                               Psi4 1.4a3.dev225

  ==> Input File <==

--------------------------------------------------------------------------
#psi4
#
memory 32 gb

molecule  {
0 1
  O       -0.4771680     1.3164760     0.3008390
  N        0.7985240    -0.5535590    -0.2772820
  C        3.2200150    -0.4235850    -0.1586420
  C        0.7425440     0.7008700     0.1517020
  C       -1.6208490     0.5302780     0.1412880
  C        3.1140170     0.9030370     0.2913960
  C        1.8654780     1.4834140     0.4539590
  C        2.0264240    -1.0936290    -0.4226860
  C        4.5555360    -1.0893210    -0.3460000
  C       -1.9196720    -0.4880720     1.0459920
  C       -2.4970780     0.8728280    -0.8843220
  C       -3.1225630    -1.1795470     0.9070330
  C       -3.7017300     0.1773150    -1.0087090
  C       -4.0153870    -0.8504980    -0.1174150
  H        4.0120030     1.4769520     0.5152690
  H        1.7610943     2.3158351     0.7373083
  H        2.0412640    -2.1246280    -0.7760920
  H        5.1157190    -1.1239590     0.5937180
  H        4.4318450    -2.1155640    -0.7023530
  H        5.1668890    -0.5502680    -1.0765200
  H       -1.2183070    -0.7290930     1.8393240
  H       -2.2288450     1.6771480    -1.5635320
  H       -3.3650020    -1.9773860     1.6048690
  H       -4.3932510     0.4394220    -1.8057380
  H       -4.9525670    -1.3919050    -0.2175730
units angstrom
no_reorient  #important for SAPT in psi4, default
symmetry c1  #important for SAPT in psi4, default
}

set PROPERTIES_ORIGIN ["COM"]
properties('MP2/aug-cc-pvtz', properties = ['dipole'])
--------------------------------------------------------------------------

    Molecular point group: c1
  Charge       = 0
  Multiplicity = 1
  Basis Set: AUG-CC-PVTZ
    Blend: AUG-CC-PVTZ
  Basis Set: (AUG-CC-PVTZ AUX)
    Blend: AUG-CC-PVTZ-JKFIT

    Orbital Energies [Eh]
    ---------------------

    Doubly Occupied:

       1A    -20.598918     2A    -15.562288     3A    -11.339668
       4A    -11.295837     5A    -11.277143     6A    -11.260650
       7A    -11.242387     8A    -11.236805     9A    -11.236705
      10A    -11.232320    11A    -11.232169    12A    -11.231438
      13A    -11.230510    14A    -11.218244    15A     -1.431052
      16A     -1.252829    17A     -1.146037    18A     -1.104804
      19A     -1.059858    20A     -1.015345    21A     -1.004791
      22A     -0.942628    23A     -0.884129    24A     -0.850776
      25A     -0.832734    26A     -0.801147    27A     -0.736917
      28A     -0.712746    29A     -0.679124    30A     -0.676297
      31A     -0.655500    32A     -0.627880    33A     -0.613200
      34A     -0.594709    35A     -0.592019    36A     -0.586051
      37A     -0.569700    38A     -0.563362    39A     -0.549524
      40A     -0.525092    41A     -0.513478    42A     -0.511899
      43A     -0.492782    44A     -0.477562    45A     -0.428732
      46A     -0.384035    47A     -0.335488    48A     -0.332269
      49A     -0.313495

  @DF-RHF Final Energy:  -590.29654496040371

   => Energetics <=

    Nuclear Repulsion Energy =            802.9427177530658355
    One-Electron Energy =               -2394.4923767127188512
    Two-Electron Energy =                1001.2531139992493081
    Total Energy =                       -590.2965449604037076
  Basis Set: (AUG-CC-PVTZ AUX)
    Blend: AUG-CC-PVTZ-RI
    Molecular point group: c1

    Geometry (in Angstrom), charge = 0, multiplicity = 1:

       Center              X                  Y                   Z               Mass
    ------------   -----------------  -----------------  -----------------  -----------------
         O           -0.443297140069     1.296555764836     0.296979864677    15.994914619570
         N            0.832394859931    -0.573479235164    -0.281141135323    14.003074004430
         C            3.253885859931    -0.443505235164    -0.162501135323    12.000000000000
         C            0.776414859931     0.680949764836     0.147842864677    12.000000000000
         C           -1.586978140069     0.510357764836     0.137428864677    12.000000000000
         C            3.147887859931     0.883116764836     0.287536864677    12.000000000000
         C            1.899348859931     1.463493764836     0.450099864677    12.000000000000
         C            2.060294859931    -1.113549235164    -0.426545135323    12.000000000000
         C            4.589406859931    -1.109241235164    -0.349859135323    12.000000000000
         C           -1.885801140069    -0.507992235164     1.042132864677    12.000000000000
         C           -2.463207140069     0.852907764836    -0.888181135323    12.000000000000
         C           -3.088692140069    -1.199467235164     0.903173864677    12.000000000000
         C           -3.667859140069     0.157394764836    -1.012568135323    12.000000000000
         C           -3.981516140069    -0.870418235164    -0.121274135323    12.000000000000
         H            4.045873859931     1.457031764836     0.511409864677     1.007825032230
         H            1.794965159931     2.295914864836     0.733449164677     1.007825032230
         H            2.075134859931    -2.144548235164    -0.779951135323     1.007825032230
         H            5.149589859931    -1.143879235164     0.589858864677     1.007825032230
         H            4.465715859931    -2.135484235164    -0.706212135323     1.007825032230
         H            5.200759859931    -0.570188235164    -1.080379135323     1.007825032230
         H           -1.184436140069    -0.749013235164     1.835464864677     1.007825032230
         H           -2.194974140069     1.657227764836    -1.567391135323     1.007825032230
         H           -3.331131140069    -1.997306235164     1.601009864677     1.007825032230
         H           -4.359380140069     0.419501764836    -1.809597135323     1.007825032230
         H           -4.918696140069    -1.411825235164    -0.221432135323     1.007825032230

  Basis Set: AUG-CC-PVTZ
    Blend: AUG-CC-PVTZ
  Basis Set: (AUG-CC-PVTZ AUX)
    Blend: AUG-CC-PVTZ-JKFIT
	 Reference Energy          =    -590.2965449604037076 [Eh]
	 Singles Energy            =      -0.0000000000000000 [Eh]
	 Same-Spin Energy          =      -0.6436993508520663 [Eh]
	 Opposite-Spin Energy      =      -1.9807857099073720 [Eh]
	 Correlation Energy        =      -2.6244850607594383 [Eh]
	 Total Energy              =    -592.9210300211631193 [Eh]

	 ================> DF-SCS-MP2 Energies <==================
	-----------------------------------------------------------
	 SCS Same-Spin Scale       =       0.3333333333333333 [-]
	 SCS Opposite-Spin Scale   =       1.2000000000000000 [-]
	 SCS Same-Spin Energy      =      -0.2145664502840221 [Eh]
	 SCS Opposite-Spin Energy  =      -2.3769428518888462 [Eh]
	 SCS Correlation Energy    =      -2.5915093021728683 [Eh]
	 SCS Total Energy          =    -592.8880542625765884 [Eh]
	-----------------------------------------------------------

  Dipole Moment: [D]
     X:     2.0117      Y:    -0.1914      Z:     0.1542     Total:     2.0266

*** Psi4 exiting successfully. Buy a developer a beer!
