                               Psi4 1.4a3.dev225

  ==> Input File <==

--------------------------------------------------------------------------
#psi4
#
memory 32 gb

molecule  {
0 1
  O       -0.4771680     1.3164760     0.3008390
  N        0.7985240    -0.5535590    -0.2772820
  C        3.2200150    -0.4235850    -0.1586420
  C        0.7425440     0.7008700     0.1517020
  C       -1.6208490     0.5302780     0.1412880
  C        3.1140170     0.9030370     0.2913960
  C        1.8654780     1.4834140     0.4539590
  C        2.0264240    -1.0936290    -0.4226860
  C        4.5555360    -1.0893210    -0.3460000
  C       -1.9196720    -0.4880720     1.0459920
  C       -2.4970780     0.8728280    -0.8843220
  C       -3.1225630    -1.1795470     0.9070330
  C       -3.7017300     0.1773150    -1.0087090
  C       -4.0153870    -0.8504980    -0.1174150
  H        4.0120030     1.4769520     0.5152690
  H        1.7375180     2.5038470     0.8013060
  H        2.0412640    -2.1246280    -0.7760920
  H        5.1157190    -1.1239590     0.5937180
  H        4.4318450    -2.1155640    -0.7023530
  H        5.1668890    -0.5502680    -1.0765200
  H       -1.2828899    -0.7068994     1.7662727
  H       -2.2288450     1.6771480    -1.5635320
  H       -3.3650020    -1.9773860     1.6048690
  H       -4.3932510     0.4394220    -1.8057380
  H       -4.9525670    -1.3919050    -0.2175730
units angstrom
no_reorient  #important for SAPT in psi4, default
symmetry c1  #important for SAPT in psi4, default
}

set PROPERTIES_ORIGIN ["COM"]
properties('MP2/aug-cc-pvtz', properties = ['dipole'])
--------------------------------------------------------------------------

    Molecular point group: c1
  Charge       = 0
  Multiplicity = 1
  Basis Set: AUG-CC-PVTZ
    Blend: AUG-CC-PVTZ
  Basis Set: (AUG-CC-PVTZ AUX)
    Blend: AUG-CC-PVTZ-JKFIT

    Orbital Energies [Eh]
    ---------------------

    Doubly Occupied:

       1A    -20.598675     2A    -15.563653     3A    -11.340912
       4A    -11.294867     5A    -11.277479     6A    -11.261589
       7A    -11.243361     8A    -11.241304     9A    -11.236444
      10A    -11.235953    11A    -11.232857    12A    -11.230706
      13A    -11.229853    14A    -11.220386    15A     -1.430878
      16A     -1.253669    17A     -1.146101    18A     -1.102780
      19A     -1.053094    20A     -1.018509    21A     -1.004154
      22A     -0.943188    23A     -0.878096    24A     -0.845563
      25A     -0.832092    26A     -0.801886    27A     -0.738701
      28A     -0.705249    29A     -0.686342    30A     -0.656435
      31A     -0.643930    32A     -0.629776    33A     -0.611591
      34A     -0.597165    35A     -0.592996    36A     -0.588315
      37A     -0.570815    38A     -0.563650    39A     -0.549675
      40A     -0.521295    41A     -0.515726    42A     -0.511440
      43A     -0.492841    44A     -0.478308    45A     -0.428500
      46A     -0.384672    47A     -0.335127    48A     -0.332115
      49A     -0.313480

  @DF-RHF Final Energy:  -590.32572059398626

   => Energetics <=

    Nuclear Repulsion Energy =            802.2280959651915282
    One-Electron Energy =               -2393.1752506905013433
    Two-Electron Energy =                1000.6214341313234399
    Total Energy =                       -590.3257205939862615
  Basis Set: (AUG-CC-PVTZ AUX)
    Blend: AUG-CC-PVTZ-RI
    Molecular point group: c1

    Geometry (in Angstrom), charge = 0, multiplicity = 1:

       Center              X                  Y                   Z               Mass
    ------------   -----------------  -----------------  -----------------  -----------------
         O           -0.442817093074     1.295411147843     0.297029163598    15.994914619570
         N            0.832874906926    -0.574623852157    -0.281091836402    14.003074004430
         C            3.254365906926    -0.444649852157    -0.162451836402    12.000000000000
         C            0.776894906926     0.679805147843     0.147892163598    12.000000000000
         C           -1.586498093074     0.509213147843     0.137478163598    12.000000000000
         C            3.148367906926     0.881972147843     0.287586163598    12.000000000000
         C            1.899828906926     1.462349147843     0.450149163598    12.000000000000
         C            2.060774906926    -1.114693852157    -0.426495836402    12.000000000000
         C            4.589886906926    -1.110385852157    -0.349809836402    12.000000000000
         C           -1.885321093074    -0.509136852157     1.042182163598    12.000000000000
         C           -2.462727093074     0.851763147843    -0.888131836402    12.000000000000
         C           -3.088212093074    -1.200611852157     0.903223163598    12.000000000000
         C           -3.667379093074     0.156250147843    -1.012518836402    12.000000000000
         C           -3.981036093074    -0.871562852157    -0.121224836402    12.000000000000
         H            4.046353906926     1.455887147843     0.511459163598     1.007825032230
         H            1.771868906926     2.482782147843     0.797496163598     1.007825032230
         H            2.075614906926    -2.145692852157    -0.779901836402     1.007825032230
         H            5.150069906926    -1.145023852157     0.589908163598     1.007825032230
         H            4.466195906926    -2.136628852157    -0.706162836402     1.007825032230
         H            5.201239906926    -0.571332852157    -1.080329836402     1.007825032230
         H           -1.248538993074    -0.727964252157     1.762462863598     1.007825032230
         H           -2.194494093074     1.656083147843    -1.567341836402     1.007825032230
         H           -3.330651093074    -1.998450852157     1.601059163598     1.007825032230
         H           -4.358900093074     0.418357147843    -1.809547836402     1.007825032230
         H           -4.918216093074    -1.412969852157    -0.221382836402     1.007825032230

  Basis Set: AUG-CC-PVTZ
    Blend: AUG-CC-PVTZ
  Basis Set: (AUG-CC-PVTZ AUX)
    Blend: AUG-CC-PVTZ-JKFIT
	 Reference Energy          =    -590.3257205939862615 [Eh]
	 Singles Energy            =      -0.0000000000000000 [Eh]
	 Same-Spin Energy          =      -0.6437871477007865 [Eh]
	 Opposite-Spin Energy      =      -1.9809833398449765 [Eh]
	 Correlation Energy        =      -2.6247704875457631 [Eh]
	 Total Energy              =    -592.9504910815320500 [Eh]

	 ================> DF-SCS-MP2 Energies <==================
	-----------------------------------------------------------
	 SCS Same-Spin Scale       =       0.3333333333333333 [-]
	 SCS Opposite-Spin Scale   =       1.2000000000000000 [-]
	 SCS Same-Spin Energy      =      -0.2145957159002622 [Eh]
	 SCS Opposite-Spin Energy  =      -2.3771800078139718 [Eh]
	 SCS Correlation Energy    =      -2.5917757237142340 [Eh]
	 SCS Total Energy          =    -592.9174963177005111 [Eh]
	-----------------------------------------------------------

  Dipole Moment: [D]
     X:     2.0332      Y:    -0.1799      Z:     0.1634     Total:     2.0476

*** Psi4 exiting successfully. Buy a developer a beer!
