                               Psi4 1.4a3.dev225

  ==> Input File <==

--------------------------------------------------------------------------
#psi4
#
memory 32 gb

molecule  {
0 1
  O       -0.4771680     1.3164760     0.3008390
  N        0.7985240    -0.5535590    -0.2772820
  C        3.2200150    -0.4235850    -0.1586420
  C        0.7425440     0.7008700     0.1517020
  C       -1.6208490     0.5302780     0.1412880
  C        3.1140170     0.9030370     0.2913960
  C        1.8654780     1.4834140     0.4539590
  C        2.0264240    -1.0936290    -0.4226860
  C        4.5555360    -1.0893210    -0.3460000
  C       -1.9196720    -0.4880720     1.0459920
  C       -2.4970780     0.8728280    -0.8843220
  C       -3.1225630    -1.1795470     0.9070330
  C       -3.7017300     0.1773150    -1.0087090
  C       -4.0153870    -0.8504980    -0.1174150
  H        4.0120030     1.4769520     0.5152690
  H        1.7375180     2.5038470     0.8013060
  H        2.0412640    -2.1246280    -0.7760920
  H        5.1157190    -1.1239590     0.5937180
  H        4.4318450    -2.1155640    -0.7023530
  H        5.1668890    -0.5502680    -1.0765200
  H       -1.3474727    -0.6847058     1.6932213
  H       -2.2288450     1.6771480    -1.5635320
  H       -3.3650020    -1.9773860     1.6048690
  H       -4.3932510     0.4394220    -1.8057380
  H       -4.9525670    -1.3919050    -0.2175730
units angstrom
no_reorient  #important for SAPT in psi4, default
symmetry c1  #important for SAPT in psi4, default
}

set PROPERTIES_ORIGIN ["COM"]
properties('MP2/aug-cc-pvtz', properties = ['dipole'])
--------------------------------------------------------------------------

    Molecular point group: c1
  Charge       = 0
  Multiplicity = 1
  Basis Set: AUG-CC-PVTZ
    Blend: AUG-CC-PVTZ
  Basis Set: (AUG-CC-PVTZ AUX)
    Blend: AUG-CC-PVTZ-JKFIT

    Orbital Energies [Eh]
    ---------------------

    Doubly Occupied:

       1A    -20.598821     2A    -15.563877     3A    -11.341085
       4A    -11.294411     5A    -11.277626     6A    -11.261718
       7A    -11.243483     8A    -11.241425     9A    -11.236381
      10A    -11.235576    11A    -11.232935    12A    -11.230227
      13A    -11.229419    14A    -11.208660    15A     -1.431065
      16A     -1.253844    17A     -1.146943    18A     -1.102911
      19A     -1.053185    20A     -1.024090    21A     -1.004467
      22A     -0.943542    23A     -0.878843    24A     -0.851611
      25A     -0.833367    26A     -0.803064    27A     -0.741724
      28A     -0.706434    29A     -0.694847    30A     -0.657418
      31A     -0.644646    32A     -0.632701    33A     -0.612101
      34A     -0.599955    35A     -0.593143    36A     -0.588940
      37A     -0.571458    38A     -0.563826    39A     -0.549757
      40A     -0.521451    41A     -0.517358    42A     -0.511257
      43A     -0.492963    44A     -0.478773    45A     -0.428738
      46A     -0.384844    47A     -0.335051    48A     -0.331950
      49A     -0.313457

  @DF-RHF Final Energy:  -590.29667478764543

   => Energetics <=

    Nuclear Repulsion Energy =            802.8110690205548963
    One-Electron Energy =               -2394.2247495051060469
    Two-Electron Energy =                1001.1170056969057214
    Total Energy =                       -590.2966747876454292
  Basis Set: (AUG-CC-PVTZ AUX)
    Blend: AUG-CC-PVTZ-RI
    Molecular point group: c1

    Geometry (in Angstrom), charge = 0, multiplicity = 1:

       Center              X                  Y                   Z               Mass
    ------------   -----------------  -----------------  -----------------  -----------------
         O           -0.442465424967     1.295290298619     0.297426945168    15.994914619570
         N            0.833226575033    -0.574744701381    -0.280694054832    14.003074004430
         C            3.254717575033    -0.444770701381    -0.162054054832    12.000000000000
         C            0.777246575033     0.679684298619     0.148289945168    12.000000000000
         C           -1.586146424967     0.509092298619     0.137875945168    12.000000000000
         C            3.148719575033     0.881851298619     0.287983945168    12.000000000000
         C            1.900180575033     1.462228298619     0.450546945168    12.000000000000
         C            2.061126575033    -1.114814701381    -0.426098054832    12.000000000000
         C            4.590238575033    -1.110506701381    -0.349412054832    12.000000000000
         C           -1.884969424967    -0.509257701381     1.042579945168    12.000000000000
         C           -2.462375424967     0.851642298619    -0.887734054832    12.000000000000
         C           -3.087860424967    -1.200732701381     0.903620945168    12.000000000000
         C           -3.667027424967     0.156129298619    -1.012121054832    12.000000000000
         C           -3.980684424967    -0.871683701381    -0.120827054832    12.000000000000
         H            4.046705575033     1.455766298619     0.511856945168     1.007825032230
         H            1.772220575033     2.482661298619     0.797893945168     1.007825032230
         H            2.075966575033    -2.145813701381    -0.779504054832     1.007825032230
         H            5.150421575033    -1.145144701381     0.590305945168     1.007825032230
         H            4.466547575033    -2.136749701381    -0.705765054832     1.007825032230
         H            5.201591575033    -0.571453701381    -1.079932054832     1.007825032230
         H           -1.312770124967    -0.705891501381     1.689809245168     1.007825032230
         H           -2.194142424967     1.655962298619    -1.566944054832     1.007825032230
         H           -3.330299424967    -1.998571701381     1.601456945168     1.007825032230
         H           -4.358548424967     0.418236298619    -1.809150054832     1.007825032230
         H           -4.917864424967    -1.413090701381    -0.220985054832     1.007825032230

  Basis Set: AUG-CC-PVTZ
    Blend: AUG-CC-PVTZ
  Basis Set: (AUG-CC-PVTZ AUX)
    Blend: AUG-CC-PVTZ-JKFIT
	 Reference Energy          =    -590.2966747876454292 [Eh]
	 Singles Energy            =      -0.0000000000000000 [Eh]
	 Same-Spin Energy          =      -0.6436860552821974 [Eh]
	 Opposite-Spin Energy      =      -1.9809718628832602 [Eh]
	 Correlation Energy        =      -2.6246579181654575 [Eh]
	 Total Energy              =    -592.9213327058108689 [Eh]

	 ================> DF-SCS-MP2 Energies <==================
	-----------------------------------------------------------
	 SCS Same-Spin Scale       =       0.3333333333333333 [-]
	 SCS Opposite-Spin Scale   =       1.2000000000000000 [-]
	 SCS Same-Spin Energy      =      -0.2145620184273991 [Eh]
	 SCS Opposite-Spin Energy  =      -2.3771662354599123 [Eh]
	 SCS Correlation Energy    =      -2.5917282538873114 [Eh]
	 SCS Total Energy          =    -592.8884030415327970 [Eh]
	-----------------------------------------------------------

  Dipole Moment: [D]
     X:     2.0406      Y:    -0.1736      Z:     0.1608     Total:     2.0543

*** Psi4 exiting successfully. Buy a developer a beer!
