                               Psi4 1.4a3.dev225

  ==> Input File <==

--------------------------------------------------------------------------
#psi4
#
memory 32 gb

molecule  {
0 1
  O       -0.4771680     1.3164760     0.3008390
  N        0.7985240    -0.5535590    -0.2772820
  C        3.2200150    -0.4235850    -0.1586420
  C        0.7425440     0.7008700     0.1517020
  C       -1.6208490     0.5302780     0.1412880
  C        3.1140170     0.9030370     0.2913960
  C        1.8654780     1.4834140     0.4539590
  C        2.0264240    -1.0936290    -0.4226860
  C        4.5555360    -1.0893210    -0.3460000
  C       -1.9196720    -0.4880720     1.0459920
  C       -2.4970780     0.8728280    -0.8843220
  C       -3.1225630    -1.1795470     0.9070330
  C       -3.7017300     0.1773150    -1.0087090
  C       -4.0153870    -0.8504980    -0.1174150
  H        4.0120030     1.4769520     0.5152690
  H        1.7375180     2.5038470     0.8013060
  H        2.0412640    -2.1246280    -0.7760920
  H        5.1180025    -1.2378178     0.5811757
  H        4.4318450    -2.1155640    -0.7023530
  H        5.1668890    -0.5502680    -1.0765200
  H       -1.2183070    -0.7290930     1.8393240
  H       -2.2288450     1.6771480    -1.5635320
  H       -3.3650020    -1.9773860     1.6048690
  H       -4.3932510     0.4394220    -1.8057380
  H       -4.9525670    -1.3919050    -0.2175730
units angstrom
no_reorient  #important for SAPT in psi4, default
symmetry c1  #important for SAPT in psi4, default
}

set PROPERTIES_ORIGIN ["COM"]
properties('MP2/aug-cc-pvtz', properties = ['dipole'])
--------------------------------------------------------------------------

    Molecular point group: c1
  Charge       = 0
  Multiplicity = 1
  Basis Set: AUG-CC-PVTZ
    Blend: AUG-CC-PVTZ
  Basis Set: (AUG-CC-PVTZ AUX)
    Blend: AUG-CC-PVTZ-JKFIT

    Orbital Energies [Eh]
    ---------------------

    Doubly Occupied:

       1A    -20.598795     2A    -15.563552     3A    -11.341081
       4A    -11.295765     5A    -11.277816     6A    -11.261557
       7A    -11.243614     8A    -11.241053     9A    -11.236827
      10A    -11.236727    11A    -11.232292    12A    -11.232183
      13A    -11.231438    14A    -11.230533    15A     -1.430935
      16A     -1.253709    17A     -1.145968    18A     -1.102386
      19A     -1.053017    20A     -1.015346    21A     -1.003834
      22A     -0.943043    23A     -0.877653    24A     -0.842667
      25A     -0.830877    26A     -0.800971    27A     -0.736943
      28A     -0.704491    29A     -0.679223    30A     -0.655638
      31A     -0.644718    32A     -0.626491    33A     -0.611161
      34A     -0.596440    35A     -0.591958    36A     -0.586790
      37A     -0.570950    38A     -0.563416    39A     -0.542167
      40A     -0.521433    41A     -0.513929    42A     -0.511343
      43A     -0.492800    44A     -0.477844    45A     -0.428361
      46A     -0.384710    47A     -0.335543    48A     -0.332674
      49A     -0.314020

  @DF-RHF Final Energy:  -590.33041184602860

   => Energetics <=

    Nuclear Repulsion Energy =            801.6281538170696876
    One-Electron Energy =               -2392.0237711315598972
    Two-Electron Energy =                1000.0652054684616132
    Total Energy =                       -590.3304118460285963
  Basis Set: (AUG-CC-PVTZ AUX)
    Blend: AUG-CC-PVTZ-RI
    Molecular point group: c1

    Geometry (in Angstrom), charge = 0, multiplicity = 1:

       Center              X                  Y                   Z               Mass
    ------------   -----------------  -----------------  -----------------  -----------------
         O           -0.443181195906     1.296151984258     0.296699678263    15.994914619570
         N            0.832510804094    -0.573883015742    -0.281421321737    14.003074004430
         C            3.254001804094    -0.443909015742    -0.162781321737    12.000000000000
         C            0.776530804094     0.680545984258     0.147562678263    12.000000000000
         C           -1.586862195906     0.509953984258     0.137148678263    12.000000000000
         C            3.148003804094     0.882712984258     0.287256678263    12.000000000000
         C            1.899464804094     1.463089984258     0.449819678263    12.000000000000
         C            2.060410804094    -1.113953015742    -0.426825321737    12.000000000000
         C            4.589522804094    -1.109645015742    -0.350139321737    12.000000000000
         C           -1.885685195906    -0.508396015742     1.041852678263    12.000000000000
         C           -2.463091195906     0.852503984258    -0.888461321737    12.000000000000
         C           -3.088576195906    -1.199871015742     0.902893678263    12.000000000000
         C           -3.667743195906     0.156990984258    -1.012848321737    12.000000000000
         C           -3.981400195906    -0.870822015742    -0.121554321737    12.000000000000
         H            4.045989804094     1.456627984258     0.511129678263     1.007825032230
         H            1.771504804094     2.483522984258     0.797166678263     1.007825032230
         H            2.075250804094    -2.144952015742    -0.780231321737     1.007825032230
         H            5.151989304094    -1.258141815742     0.577036378263     1.007825032230
         H            4.465831804094    -2.135888015742    -0.706492321737     1.007825032230
         H            5.200875804094    -0.570592015742    -1.080659321737     1.007825032230
         H           -1.184320195906    -0.749417015742     1.835184678263     1.007825032230
         H           -2.194858195906     1.656823984258    -1.567671321737     1.007825032230
         H           -3.331015195906    -1.997710015742     1.600729678263     1.007825032230
         H           -4.359264195906     0.419097984258    -1.809877321737     1.007825032230
         H           -4.918580195906    -1.412229015742    -0.221712321737     1.007825032230

  Basis Set: AUG-CC-PVTZ
    Blend: AUG-CC-PVTZ
  Basis Set: (AUG-CC-PVTZ AUX)
    Blend: AUG-CC-PVTZ-JKFIT
	 Reference Energy          =    -590.3304118460285963 [Eh]
	 Singles Energy            =      -0.0000000000000000 [Eh]
	 Same-Spin Energy          =      -0.6440029386603559 [Eh]
	 Opposite-Spin Energy      =      -1.9814541074487237 [Eh]
	 Correlation Energy        =      -2.6254570461090796 [Eh]
	 Total Energy              =    -592.9558688921376870 [Eh]

	 ================> DF-SCS-MP2 Energies <==================
	-----------------------------------------------------------
	 SCS Same-Spin Scale       =       0.3333333333333333 [-]
	 SCS Opposite-Spin Scale   =       1.2000000000000000 [-]
	 SCS Same-Spin Energy      =      -0.2146676462201186 [Eh]
	 SCS Opposite-Spin Energy  =      -2.3777449289384682 [Eh]
	 SCS Correlation Energy    =      -2.5924125751585869 [Eh]
	 SCS Total Energy          =    -592.9228244211872152 [Eh]
	-----------------------------------------------------------

  Dipole Moment: [D]
     X:     1.9899      Y:    -0.2150      Z:     0.1658     Total:     2.0083

*** Psi4 exiting successfully. Buy a developer a beer!
