                               Psi4 1.4a3.dev225

  ==> Input File <==

--------------------------------------------------------------------------
#psi4
#
memory 32 gb

molecule  {
0 1
  O       -0.4771680     1.3164760     0.3008390
  N        0.7985240    -0.5535590    -0.2772820
  C        3.2200150    -0.4235850    -0.1586420
  C        0.7425440     0.7008700     0.1517020
  C       -1.6055140     0.5474981     0.1336503
  C        3.1140170     0.9030370     0.2913960
  C        1.8654780     1.4834140     0.4539590
  C        2.0264240    -1.0936290    -0.4226860
  C        4.5555360    -1.0893210    -0.3460000
  C       -1.9196720    -0.4880720     1.0459920
  C       -2.4970780     0.8728280    -0.8843220
  C       -3.1225630    -1.1795470     0.9070330
  C       -3.7017300     0.1773150    -1.0087090
  C       -4.0153870    -0.8504980    -0.1174150
  H        4.0120030     1.4769520     0.5152690
  H        1.7375180     2.5038470     0.8013060
  H        2.0412640    -2.1246280    -0.7760920
  H        5.1157190    -1.1239590     0.5937180
  H        4.4318450    -2.1155640    -0.7023530
  H        5.1668890    -0.5502680    -1.0765200
  H       -1.2183070    -0.7290930     1.8393240
  H       -2.2288450     1.6771480    -1.5635320
  H       -3.3650020    -1.9773860     1.6048690
  H       -4.3932510     0.4394220    -1.8057380
  H       -4.9525670    -1.3919050    -0.2175730
units angstrom
no_reorient  #important for SAPT in psi4, default
symmetry c1  #important for SAPT in psi4, default
}

set PROPERTIES_ORIGIN ["COM"]
properties('MP2/aug-cc-pvtz', properties = ['dipole'])
--------------------------------------------------------------------------

    Molecular point group: c1
  Charge       = 0
  Multiplicity = 1
  Basis Set: AUG-CC-PVTZ
    Blend: AUG-CC-PVTZ
  Basis Set: (AUG-CC-PVTZ AUX)
    Blend: AUG-CC-PVTZ-JKFIT

    Orbital Energies [Eh]
    ---------------------

    Doubly Occupied:

       1A    -20.601175     2A    -15.564712     3A    -11.342369
       4A    -11.296508     5A    -11.278228     6A    -11.262370
       7A    -11.244315     8A    -11.242427     9A    -11.235828
      10A    -11.235573    11A    -11.233444    12A    -11.232812
      13A    -11.229949    14A    -11.229453    15A     -1.438800
      16A     -1.255248    17A     -1.142649    18A     -1.103652
      19A     -1.054739    20A     -1.013177    21A     -1.002140
      22A     -0.944064    23A     -0.879543    24A     -0.843698
      25A     -0.829149    26A     -0.800859    27A     -0.739031
      28A     -0.706236    29A     -0.678749    30A     -0.657472
      31A     -0.644486    32A     -0.627022    33A     -0.612679
      34A     -0.596494    35A     -0.591239    36A     -0.584493
      37A     -0.570103    38A     -0.565027    39A     -0.550506
      40A     -0.522165    41A     -0.514632    42A     -0.511922
      43A     -0.489926    44A     -0.474924    45A     -0.429286
      46A     -0.385372    47A     -0.334413    48A     -0.331829
      49A     -0.312193

  @DF-RHF Final Energy:  -590.33099470245725

   => Energetics <=

    Nuclear Repulsion Energy =            801.7657860474816971
    One-Electron Energy =               -2392.2593972890954319
    Two-Electron Energy =                1000.1626165391564882
    Total Energy =                       -590.3309947024572466
  Basis Set: (AUG-CC-PVTZ AUX)
    Blend: AUG-CC-PVTZ-RI
    Molecular point group: c1

    Geometry (in Angstrom), charge = 0, multiplicity = 1:

       Center              X                  Y                   Z               Mass
    ------------   -----------------  -----------------  -----------------  -----------------
         O           -0.444163012642     1.294415524933     0.297126575935    15.994914619570
         N            0.831528987358    -0.575619475067    -0.280994424065    14.003074004430
         C            3.253019987358    -0.445645475067    -0.162354424065    12.000000000000
         C            0.775548987358     0.678809524933     0.147989575935    12.000000000000
         C           -1.572509012642     0.525437624933     0.129937875935    12.000000000000
         C            3.147021987358     0.880976524933     0.287683575935    12.000000000000
         C            1.898482987358     1.461353524933     0.450246575935    12.000000000000
         C            2.059428987358    -1.115689475067    -0.426398424065    12.000000000000
         C            4.588540987358    -1.111381475067    -0.349712424065    12.000000000000
         C           -1.886667012642    -0.510132475067     1.042279575935    12.000000000000
         C           -2.464073012642     0.850767524933    -0.888034424065    12.000000000000
         C           -3.089558012642    -1.201607475067     0.903320575935    12.000000000000
         C           -3.668725012642     0.155254524933    -1.012421424065    12.000000000000
         C           -3.982382012642    -0.872558475067    -0.121127424065    12.000000000000
         H            4.045007987358     1.454891524933     0.511556575935     1.007825032230
         H            1.770522987358     2.481786524933     0.797593575935     1.007825032230
         H            2.074268987358    -2.146688475067    -0.779804424065     1.007825032230
         H            5.148723987358    -1.146019475067     0.590005575935     1.007825032230
         H            4.464849987358    -2.137624475067    -0.706065424065     1.007825032230
         H            5.199893987358    -0.572328475067    -1.080232424065     1.007825032230
         H           -1.185302012642    -0.751153475067     1.835611575935     1.007825032230
         H           -2.195840012642     1.655087524933    -1.567244424065     1.007825032230
         H           -3.331997012642    -1.999446475067     1.601156575935     1.007825032230
         H           -4.360246012642     0.417361524933    -1.809450424065     1.007825032230
         H           -4.919562012642    -1.413965475067    -0.221285424065     1.007825032230

  Basis Set: AUG-CC-PVTZ
    Blend: AUG-CC-PVTZ
  Basis Set: (AUG-CC-PVTZ AUX)
    Blend: AUG-CC-PVTZ-JKFIT
	 Reference Energy          =    -590.3309947024572466 [Eh]
	 Singles Energy            =      -0.0000000000000000 [Eh]
	 Same-Spin Energy          =      -0.6440382804169893 [Eh]
	 Opposite-Spin Energy      =      -1.9814447912256816 [Eh]
	 Correlation Energy        =      -2.6254830716426709 [Eh]
	 Total Energy              =    -592.9564777740998807 [Eh]

	 ================> DF-SCS-MP2 Energies <==================
	-----------------------------------------------------------
	 SCS Same-Spin Scale       =       0.3333333333333333 [-]
	 SCS Opposite-Spin Scale   =       1.2000000000000000 [-]
	 SCS Same-Spin Energy      =      -0.2146794268056631 [Eh]
	 SCS Opposite-Spin Energy  =      -2.3777337494708179 [Eh]
	 SCS Correlation Energy    =      -2.5924131762764810 [Eh]
	 SCS Total Energy          =    -592.9234078787337694 [Eh]
	-----------------------------------------------------------

  Dipole Moment: [D]
     X:     2.1771      Y:    -0.1463      Z:     0.1567     Total:     2.1876

*** Psi4 exiting successfully. Buy a developer a beer!
