                               Psi4 1.4a3.dev225

  ==> Input File <==

--------------------------------------------------------------------------
#psi4
#
memory 32 gb

molecule  {
0 1
  O       -0.4771680     1.3164760     0.3008390
  N        0.7985240    -0.5535590    -0.2772820
  C        3.2200150    -0.4235850    -0.1586420
  C        0.7425440     0.7008700     0.1517020
  C       -1.6208490     0.5302780     0.1412880
  C        3.1140170     0.9030370     0.2913960
  C        1.8654780     1.4834140     0.4539590
  C        2.0264240    -1.0936290    -0.4226860
  C        4.5555360    -1.0893210    -0.3460000
  C       -1.9196720    -0.4880720     1.0459920
  C       -2.4970780     0.8728280    -0.8843220
  C       -3.1225630    -1.1795470     0.9070330
  C       -3.7017300     0.1773150    -1.0087090
  C       -4.0153870    -0.8504980    -0.1174150
  H        4.0120030     1.4769520     0.5152690
  H        1.7375180     2.5038470     0.8013060
  H        2.0412640    -2.1246280    -0.7760920
  H        5.1157190    -1.1239590     0.5937180
  H        4.4318450    -2.1155640    -0.7023530
  H        5.1668890    -0.5502680    -1.0765200
  H       -1.2183070    -0.7290930     1.8393240
  H       -2.2288450     1.6771480    -1.5635320
  H       -3.3650020    -1.9773860     1.6048690
  H       -4.3805307     0.4346006    -1.7910769
  H       -4.9525670    -1.3919050    -0.2175730
units angstrom
no_reorient  #important for SAPT in psi4, default
symmetry c1  #important for SAPT in psi4, default
}

set PROPERTIES_ORIGIN ["COM"]
properties('MP2/aug-cc-pvtz', properties = ['dipole'])
--------------------------------------------------------------------------

    Molecular point group: c1
  Charge       = 0
  Multiplicity = 1
  Basis Set: AUG-CC-PVTZ
    Blend: AUG-CC-PVTZ
  Basis Set: (AUG-CC-PVTZ AUX)
    Blend: AUG-CC-PVTZ-JKFIT

    Orbital Energies [Eh]
    ---------------------

    Doubly Occupied:

       1A    -20.598492     2A    -15.563357     3A    -11.340677
       4A    -11.295522     5A    -11.277266     6A    -11.261397
       7A    -11.243180     8A    -11.241121     9A    -11.236553
      10A    -11.234396    11A    -11.232735    12A    -11.232006
      13A    -11.231116    14A    -11.230226    15A     -1.430655
      16A     -1.253427    17A     -1.145877    18A     -1.102588
      19A     -1.053006    20A     -1.015683    21A     -1.003836
      22A     -0.942866    23A     -0.877627    24A     -0.842584
      25A     -0.831027    26A     -0.801185    27A     -0.737672
      28A     -0.704735    29A     -0.679107    30A     -0.655423
      31A     -0.643306    32A     -0.627727    33A     -0.611203
      34A     -0.595156    35A     -0.592468    36A     -0.586624
      37A     -0.569598    38A     -0.563305    39A     -0.549537
      40A     -0.521118    41A     -0.514164    42A     -0.511600
      43A     -0.492734    44A     -0.477834    45A     -0.428168
      46A     -0.384422    47A     -0.335342    48A     -0.332266
      49A     -0.313513

  @DF-RHF Final Energy:  -590.33168657848466

   => Energetics <=

    Nuclear Repulsion Energy =            801.8248770218316395
    One-Electron Energy =               -2392.4222753593890047
    Two-Electron Energy =                1000.2657117590728149
    Total Energy =                       -590.3316865784846641
  Basis Set: (AUG-CC-PVTZ AUX)
    Blend: AUG-CC-PVTZ-RI
    Molecular point group: c1

    Geometry (in Angstrom), charge = 0, multiplicity = 1:

       Center              X                  Y                   Z               Mass
    ------------   -----------------  -----------------  -----------------  -----------------
         O           -0.443238026667     1.295558250693     0.296551549532    15.994914619570
         N            0.832453973333    -0.574476749307    -0.281569450468    14.003074004430
         C            3.253944973333    -0.444502749307    -0.162929450468    12.000000000000
         C            0.776473973333     0.679952250693     0.147414549532    12.000000000000
         C           -1.586919026667     0.509360250693     0.137000549532    12.000000000000
         C            3.147946973333     0.882119250693     0.287108549532    12.000000000000
         C            1.899407973333     1.462496250693     0.449671549532    12.000000000000
         C            2.060353973333    -1.114546749307    -0.426973450468    12.000000000000
         C            4.589465973333    -1.110238749307    -0.350287450468    12.000000000000
         C           -1.885742026667    -0.508989749307     1.041704549532    12.000000000000
         C           -2.463148026667     0.851910250693    -0.888609450468    12.000000000000
         C           -3.088633026667    -1.200464749307     0.902745549532    12.000000000000
         C           -3.667800026667     0.156397250693    -1.012996450468    12.000000000000
         C           -3.981457026667    -0.871415749307    -0.121702450468    12.000000000000
         H            4.045932973333     1.456034250693     0.510981549532     1.007825032230
         H            1.771447973333     2.482929250693     0.797018549532     1.007825032230
         H            2.075193973333    -2.145545749307    -0.780379450468     1.007825032230
         H            5.149648973333    -1.144876749307     0.589430549532     1.007825032230
         H            4.465774973333    -2.136481749307    -0.706640450468     1.007825032230
         H            5.200818973333    -0.571185749307    -1.080807450468     1.007825032230
         H           -1.184377026667    -0.750010749307     1.835036549532     1.007825032230
         H           -2.194915026667     1.656230250693    -1.567819450468     1.007825032230
         H           -3.331072026667    -1.998303749307     1.600581549532     1.007825032230
         H           -4.346600726667     0.413682850693    -1.795364350468     1.007825032230
         H           -4.918637026667    -1.412822749307    -0.221860450468     1.007825032230

  Basis Set: AUG-CC-PVTZ
    Blend: AUG-CC-PVTZ
  Basis Set: (AUG-CC-PVTZ AUX)
    Blend: AUG-CC-PVTZ-JKFIT
	 Reference Energy          =    -590.3316865784846641 [Eh]
	 Singles Energy            =      -0.0000000000000000 [Eh]
	 Same-Spin Energy          =      -0.6439668472541173 [Eh]
	 Opposite-Spin Energy      =      -1.9813472378876922 [Eh]
	 Correlation Energy        =      -2.6253140851418095 [Eh]
	 Total Energy              =    -592.9570006636264452 [Eh]

	 ================> DF-SCS-MP2 Energies <==================
	-----------------------------------------------------------
	 SCS Same-Spin Scale       =       0.3333333333333333 [-]
	 SCS Opposite-Spin Scale   =       1.2000000000000000 [-]
	 SCS Same-Spin Energy      =      -0.2146556157513724 [Eh]
	 SCS Opposite-Spin Energy  =      -2.3776166854652305 [Eh]
	 SCS Correlation Energy    =      -2.5922723012166031 [Eh]
	 SCS Total Energy          =    -592.9239588797012175 [Eh]
	-----------------------------------------------------------

  Dipole Moment: [D]
     X:     2.0101      Y:    -0.1819      Z:     0.1512     Total:     2.0240

*** Psi4 exiting successfully. Buy a developer a beer!
