                               Psi4 1.4a3.dev225

  ==> Input File <==

--------------------------------------------------------------------------
#psi4
#
memory 32 gb

molecule  {
0 1
  O       -0.4771680     1.3164760     0.3008390
  N        0.7985240    -0.5535590    -0.2772820
  C        3.2200150    -0.4235850    -0.1586420
  C        0.7425440     0.7008700     0.1517020
  C       -1.6208490     0.5302780     0.1412880
  C        3.1140170     0.9030370     0.2913960
  C        1.8654780     1.4834140     0.4539590
  C        1.9354199    -1.0536025    -0.4119096
  C        4.5555360    -1.0893210    -0.3460000
  C       -1.9196720    -0.4880720     1.0459920
  C       -2.4970780     0.8728280    -0.8843220
  C       -3.1225630    -1.1795470     0.9070330
  C       -3.7017300     0.1773150    -1.0087090
  C       -4.0153870    -0.8504980    -0.1174150
  H        4.0120030     1.4769520     0.5152690
  H        1.7375180     2.5038470     0.8013060
  H        2.0412640    -2.1246280    -0.7760920
  H        5.1157190    -1.1239590     0.5937180
  H        4.4318450    -2.1155640    -0.7023530
  H        5.1668890    -0.5502680    -1.0765200
  H       -1.2183070    -0.7290930     1.8393240
  H       -2.2288450     1.6771480    -1.5635320
  H       -3.3650020    -1.9773860     1.6048690
  H       -4.3932510     0.4394220    -1.8057380
  H       -4.9525670    -1.3919050    -0.2175730
units angstrom
no_reorient  #important for SAPT in psi4, default
symmetry c1  #important for SAPT in psi4, default
}

set PROPERTIES_ORIGIN ["COM"]
properties('MP2/aug-cc-pvtz', properties = ['dipole'])
--------------------------------------------------------------------------

    Molecular point group: c1
  Charge       = 0
  Multiplicity = 1
  Basis Set: AUG-CC-PVTZ
    Blend: AUG-CC-PVTZ
  Basis Set: (AUG-CC-PVTZ AUX)
    Blend: AUG-CC-PVTZ-JKFIT

    Orbital Energies [Eh]
    ---------------------

    Doubly Occupied:

       1A    -20.598763     2A    -15.561386     3A    -11.341547
       4A    -11.296623     5A    -11.280485     6A    -11.257209
       7A    -11.245482     8A    -11.237900     9A    -11.237771
      10A    -11.237266    11A    -11.233631    12A    -11.233262
      13A    -11.232312    14A    -11.231462    15A     -1.431942
      16A     -1.285468    17A     -1.147323    18A     -1.103320
      19A     -1.049673    20A     -1.016399    21A     -1.003326
      22A     -0.943958    23A     -0.869873    24A     -0.846065
      25A     -0.832663    26A     -0.805430    27A     -0.738157
      28A     -0.707370    29A     -0.680633    30A     -0.656977
      31A     -0.641807    32A     -0.624322    33A     -0.605911
      34A     -0.594137    35A     -0.592317    36A     -0.586837
      37A     -0.571521    38A     -0.564530    39A     -0.553863
      40A     -0.523300    41A     -0.520888    42A     -0.512181
      43A     -0.494112    44A     -0.481269    45A     -0.419026
      46A     -0.395004    47A     -0.336513    48A     -0.329959
      49A     -0.306271

  @DF-RHF Final Energy:  -590.31986026637173

   => Energetics <=

    Nuclear Repulsion Energy =            803.1353771910982005
    One-Electron Energy =               -2394.9155928855020647
    Two-Electron Energy =                1001.4603554280322442
    Total Energy =                       -590.3198602663717338
  Basis Set: (AUG-CC-PVTZ AUX)
    Blend: AUG-CC-PVTZ-RI
    Molecular point group: c1

    Geometry (in Angstrom), charge = 0, multiplicity = 1:

       Center              X                  Y                   Z               Mass
    ------------   -----------------  -----------------  -----------------  -----------------
         O           -0.437268474168     1.292936862783     0.295932690329    15.994914619570
         N            0.838423525832    -0.577098137217    -0.282188309671    14.003074004430
         C            3.259914525832    -0.447124137217    -0.163548309671    12.000000000000
         C            0.782443525832     0.677330862783     0.146795690329    12.000000000000
         C           -1.580949474168     0.506738862783     0.136381690329    12.000000000000
         C            3.153916525832     0.879497862783     0.286489690329    12.000000000000
         C            1.905377525832     1.459874862783     0.449052690329    12.000000000000
         C            1.975319425832    -1.077141637217    -0.416815909671    12.000000000000
         C            4.595435525832    -1.112860137217    -0.350906309671    12.000000000000
         C           -1.879772474168    -0.511611137217     1.041085690329    12.000000000000
         C           -2.457178474168     0.849288862783    -0.889228309671    12.000000000000
         C           -3.082663474168    -1.203086137217     0.902126690329    12.000000000000
         C           -3.661830474168     0.153775862783    -1.013615309671    12.000000000000
         C           -3.975487474168    -0.874037137217    -0.122321309671    12.000000000000
         H            4.051902525832     1.453412862783     0.510362690329     1.007825032230
         H            1.777417525832     2.480307862783     0.796399690329     1.007825032230
         H            2.081163525832    -2.148167137217    -0.780998309671     1.007825032230
         H            5.155618525832    -1.147498137217     0.588811690329     1.007825032230
         H            4.471744525832    -2.139103137217    -0.707259309671     1.007825032230
         H            5.206788525832    -0.573807137217    -1.081426309671     1.007825032230
         H           -1.178407474168    -0.752632137217     1.834417690329     1.007825032230
         H           -2.188945474168     1.653608862783    -1.568438309671     1.007825032230
         H           -3.325102474168    -2.000925137217     1.599962690329     1.007825032230
         H           -4.353351474168     0.415882862783    -1.810644309671     1.007825032230
         H           -4.912667474168    -1.415444137217    -0.222479309671     1.007825032230

  Basis Set: AUG-CC-PVTZ
    Blend: AUG-CC-PVTZ
  Basis Set: (AUG-CC-PVTZ AUX)
    Blend: AUG-CC-PVTZ-JKFIT
	 Reference Energy          =    -590.3198602663717338 [Eh]
	 Singles Energy            =      -0.0000000000000000 [Eh]
	 Same-Spin Energy          =      -0.6438998300175039 [Eh]
	 Opposite-Spin Energy      =      -1.9804843110627735 [Eh]
	 Correlation Energy        =      -2.6243841410802773 [Eh]
	 Total Energy              =    -592.9442444074520608 [Eh]

	 ================> DF-SCS-MP2 Energies <==================
	-----------------------------------------------------------
	 SCS Same-Spin Scale       =       0.3333333333333333 [-]
	 SCS Opposite-Spin Scale   =       1.2000000000000000 [-]
	 SCS Same-Spin Energy      =      -0.2146332766725013 [Eh]
	 SCS Opposite-Spin Energy  =      -2.3765811732753281 [Eh]
	 SCS Correlation Energy    =      -2.5912144499478296 [Eh]
	 SCS Total Energy          =    -592.9110747163196038 [Eh]
	-----------------------------------------------------------

  Dipole Moment: [D]
     X:     1.8579      Y:    -0.1840      Z:     0.1477     Total:     1.8729

*** Psi4 exiting successfully. Buy a developer a beer!
