                               Psi4 1.4a3.dev225

  ==> Input File <==

--------------------------------------------------------------------------
#psi4
#
memory 32 gb

molecule  {
0 1
  O       -0.4771680     1.3164760     0.3008390
  N        0.7985240    -0.5535590    -0.2772820
  C        3.2200150    -0.4235850    -0.1586420
  C        0.7425440     0.7008700     0.1517020
  C       -1.6208490     0.5302780     0.1412880
  C        3.1140170     0.9030370     0.2913960
  C        1.8654780     1.4834140     0.4539590
  C        2.0264240    -1.0936290    -0.4226860
  C        4.5555360    -1.0893210    -0.3460000
  C       -1.9196720    -0.4880720     1.0459920
  C       -2.4970780     0.8728280    -0.8843220
  C       -3.0360711    -1.0734369     0.8552824
  C       -3.7017300     0.1773150    -1.0087090
  C       -4.0153870    -0.8504980    -0.1174150
  H        4.0120030     1.4769520     0.5152690
  H        1.7375180     2.5038470     0.8013060
  H        2.0412640    -2.1246280    -0.7760920
  H        5.1157190    -1.1239590     0.5937180
  H        4.4318450    -2.1155640    -0.7023530
  H        5.1668890    -0.5502680    -1.0765200
  H       -1.2183070    -0.7290930     1.8393240
  H       -2.2288450     1.6771480    -1.5635320
  H       -3.3650020    -1.9773860     1.6048690
  H       -4.3932510     0.4394220    -1.8057380
  H       -4.9525670    -1.3919050    -0.2175730
units angstrom
no_reorient  #important for SAPT in psi4, default
symmetry c1  #important for SAPT in psi4, default
}

set PROPERTIES_ORIGIN ["COM"]
properties('MP2/aug-cc-pvtz', properties = ['dipole'])
--------------------------------------------------------------------------

    Molecular point group: c1
  Charge       = 0
  Multiplicity = 1
  Basis Set: AUG-CC-PVTZ
    Blend: AUG-CC-PVTZ
  Basis Set: (AUG-CC-PVTZ AUX)
    Blend: AUG-CC-PVTZ-JKFIT

    Orbital Energies [Eh]
    ---------------------

    Doubly Occupied:

       1A    -20.599170     2A    -15.564471     3A    -11.341608
       4A    -11.297796     5A    -11.278040     6A    -11.262104
       7A    -11.243919     8A    -11.241865     9A    -11.236841
      10A    -11.233685    11A    -11.233229    12A    -11.229660
      13A    -11.227977    14A    -11.218738    15A     -1.431658
      16A     -1.254443    17A     -1.162007    18A     -1.103339
      19A     -1.053650    20A     -1.030507    21A     -1.001942
      22A     -0.943487    23A     -0.880260    24A     -0.843652
      25A     -0.822136    26A     -0.804738    27A     -0.736347
      28A     -0.705294    29A     -0.685021    30A     -0.661851
      31A     -0.643500    32A     -0.619756    33A     -0.610568
      34A     -0.599712    35A     -0.591339    36A     -0.576008
      37A     -0.571550    38A     -0.564032    39A     -0.550724
      40A     -0.529027    41A     -0.521541    42A     -0.510907
      43A     -0.494252    44A     -0.454557    45A     -0.429227
      46A     -0.385311    47A     -0.350104    48A     -0.330743
      49A     -0.312876

  @DF-RHF Final Energy:  -590.30371676308596

   => Energetics <=

    Nuclear Repulsion Energy =            804.7155681140005754
    One-Electron Energy =               -2398.0882226372309560
    Two-Electron Energy =                1003.0689377601443084
    Total Energy =                       -590.3037167630859585
  Basis Set: (AUG-CC-PVTZ AUX)
    Blend: AUG-CC-PVTZ-RI
    Molecular point group: c1

    Geometry (in Angstrom), charge = 0, multiplicity = 1:

       Center              X                  Y                   Z               Mass
    ------------   -----------------  -----------------  -----------------  -----------------
         O           -0.448776498977     1.288652305901     0.299986653614    15.994914619570
         N            0.826915501023    -0.581382694099    -0.278134346386    14.003074004430
         C            3.248406501023    -0.451408694099    -0.159494346386    12.000000000000
         C            0.770935501023     0.673046305901     0.150849653614    12.000000000000
         C           -1.592457498977     0.502454305901     0.140435653614    12.000000000000
         C            3.142408501023     0.875213305901     0.290543653614    12.000000000000
         C            1.893869501023     1.455590305901     0.453106653614    12.000000000000
         C            2.054815501023    -1.121452694099    -0.423538346386    12.000000000000
         C            4.583927501023    -1.117144694099    -0.346852346386    12.000000000000
         C           -1.891280498977    -0.515895694099     1.045139653614    12.000000000000
         C           -2.468686498977     0.845004305901    -0.885174346386    12.000000000000
         C           -3.007679598977    -1.101260594099     0.854430053614    12.000000000000
         C           -3.673338498977     0.149491305901    -1.009561346386    12.000000000000
         C           -3.986995498977    -0.878321694099    -0.118267346386    12.000000000000
         H            4.040394501023     1.449128305901     0.514416653614     1.007825032230
         H            1.765909501023     2.476023305901     0.800453653614     1.007825032230
         H            2.069655501023    -2.152451694099    -0.776944346386     1.007825032230
         H            5.144110501023    -1.151782694099     0.592865653614     1.007825032230
         H            4.460236501023    -2.143387694099    -0.703205346386     1.007825032230
         H            5.195280501023    -0.578091694099    -1.077372346386     1.007825032230
         H           -1.189915498977    -0.756916694099     1.838471653614     1.007825032230
         H           -2.200453498977     1.649324305901    -1.564384346386     1.007825032230
         H           -3.336610498977    -2.005209694099     1.604016653614     1.007825032230
         H           -4.364859498977     0.411598305901    -1.806590346386     1.007825032230
         H           -4.924175498977    -1.419728694099    -0.218425346386     1.007825032230

  Basis Set: AUG-CC-PVTZ
    Blend: AUG-CC-PVTZ
  Basis Set: (AUG-CC-PVTZ AUX)
    Blend: AUG-CC-PVTZ-JKFIT
	 Reference Energy          =    -590.3037167630859585 [Eh]
	 Singles Energy            =      -0.0000000000000000 [Eh]
	 Same-Spin Energy          =      -0.6442787236283720 [Eh]
	 Opposite-Spin Energy      =      -1.9822015825070589 [Eh]
	 Correlation Energy        =      -2.6264803061354307 [Eh]
	 Total Energy              =    -592.9301970692214354 [Eh]

	 ================> DF-SCS-MP2 Energies <==================
	-----------------------------------------------------------
	 SCS Same-Spin Scale       =       0.3333333333333333 [-]
	 SCS Opposite-Spin Scale   =       1.2000000000000000 [-]
	 SCS Same-Spin Energy      =      -0.2147595745427907 [Eh]
	 SCS Opposite-Spin Energy  =      -2.3786418990084708 [Eh]
	 SCS Correlation Energy    =      -2.5934014735512614 [Eh]
	 SCS Total Energy          =    -592.8971182366371977 [Eh]
	-----------------------------------------------------------

  Dipole Moment: [D]
     X:     2.0609      Y:    -0.0847      Z:     0.0849     Total:     2.0644

*** Psi4 exiting successfully. Buy a developer a beer!
