                               Psi4 1.4a3.dev225

  ==> Input File <==

--------------------------------------------------------------------------
#psi4
#
memory 32 gb

molecule  {
0 1
  O       -0.4771680     1.3164760     0.3008390
  N        0.7985240    -0.5535590    -0.2772820
  C        3.2200150    -0.4235850    -0.1586420
  C        0.7425440     0.7008700     0.1517020
  C       -1.6208490     0.5302780     0.1412880
  C        3.1140170     0.9030370     0.2913960
  C        1.8654780     1.4834140     0.4539590
  C        2.0264240    -1.0936290    -0.4226860
  C        4.5555360    -1.0893210    -0.3460000
  C       -1.9196720    -0.4880720     1.0459920
  C       -2.4970780     0.8728280    -0.8843220
  C       -3.1225630    -1.1795470     0.9070330
  C       -3.7017300     0.1773150    -1.0087090
  C       -3.8872492    -0.8231066    -0.0527150
  H        4.0120030     1.4769520     0.5152690
  H        1.7375180     2.5038470     0.8013060
  H        2.0412640    -2.1246280    -0.7760920
  H        5.1157190    -1.1239590     0.5937180
  H        4.4318450    -2.1155640    -0.7023530
  H        5.1668890    -0.5502680    -1.0765200
  H       -1.2183070    -0.7290930     1.8393240
  H       -2.2288450     1.6771480    -1.5635320
  H       -3.3650020    -1.9773860     1.6048690
  H       -4.3932510     0.4394220    -1.8057380
  H       -4.9525670    -1.3919050    -0.2175730
units angstrom
no_reorient  #important for SAPT in psi4, default
symmetry c1  #important for SAPT in psi4, default
}

set PROPERTIES_ORIGIN ["COM"]
properties('MP2/aug-cc-pvtz', properties = ['dipole'])
--------------------------------------------------------------------------

    Molecular point group: c1
  Charge       = 0
  Multiplicity = 1
  Basis Set: AUG-CC-PVTZ
    Blend: AUG-CC-PVTZ
  Basis Set: (AUG-CC-PVTZ AUX)
    Blend: AUG-CC-PVTZ-JKFIT

    Orbital Energies [Eh]
    ---------------------

    Doubly Occupied:

       1A    -20.597577     2A    -15.562914     3A    -11.340222
       4A    -11.292548     5A    -11.277055     6A    -11.261182
       7A    -11.242900     8A    -11.240813     9A    -11.237180
      10A    -11.232865    11A    -11.232598    12A    -11.232454
      13A    -11.228605    14A    -11.221375    15A     -1.429740
      16A     -1.253093    17A     -1.161718    18A     -1.102332
      19A     -1.054988    20A     -1.025986    21A     -1.002692
      22A     -0.942709    23A     -0.876421    24A     -0.848724
      25A     -0.830036    26A     -0.797429    27A     -0.739522
      28A     -0.704750    29A     -0.667322    30A     -0.659922
      31A     -0.641523    32A     -0.628389    33A     -0.611451
      34A     -0.604975    35A     -0.592202    36A     -0.587714
      37A     -0.569356    38A     -0.561469    39A     -0.548277
      40A     -0.523160    41A     -0.520910    42A     -0.505607
      43A     -0.483699    44A     -0.467196    45A     -0.427955
      46A     -0.384168    47A     -0.346275    48A     -0.331736
      49A     -0.313152

  @DF-RHF Final Energy:  -590.30337859098790

   => Energetics <=

    Nuclear Repulsion Energy =            804.5661734851792062
    One-Electron Energy =               -2397.8453365700183895
    Two-Electron Energy =                1002.9757844938512790
    Total Energy =                       -590.3033785909879043
  Basis Set: (AUG-CC-PVTZ AUX)
    Blend: AUG-CC-PVTZ-RI
    Molecular point group: c1

    Geometry (in Angstrom), charge = 0, multiplicity = 1:

       Center              X                  Y                   Z               Mass
    ------------   -----------------  -----------------  -----------------  -----------------
         O           -0.451476627714     1.293756064592     0.292436531956    15.994914619570
         N            0.824215372286    -0.576278935408    -0.285684468044    14.003074004430
         C            3.245706372286    -0.446304935408    -0.167044468044    12.000000000000
         C            0.768235372286     0.678150064592     0.143299531956    12.000000000000
         C           -1.595157627714     0.507558064592     0.132885531956    12.000000000000
         C            3.139708372286     0.880317064592     0.282993531956    12.000000000000
         C            1.891169372286     1.460694064592     0.445556531956    12.000000000000
         C            2.052115372286    -1.116348935408    -0.431088468044    12.000000000000
         C            4.581227372286    -1.112040935408    -0.354402468044    12.000000000000
         C           -1.893980627714    -0.510791935408     1.037589531956    12.000000000000
         C           -2.471386627714     0.850108064592    -0.892724468044    12.000000000000
         C           -3.096871627714    -1.202266935408     0.898630531956    12.000000000000
         C           -3.676038627714     0.154595064592    -1.017111468044    12.000000000000
         C           -3.861557827714    -0.845826535408    -0.061117468044    12.000000000000
         H            4.037694372286     1.454232064592     0.506866531956     1.007825032230
         H            1.763209372286     2.481127064592     0.792903531956     1.007825032230
         H            2.066955372286    -2.147347935408    -0.784494468044     1.007825032230
         H            5.141410372286    -1.146678935408     0.585315531956     1.007825032230
         H            4.457536372286    -2.138283935408    -0.710755468044     1.007825032230
         H            5.192580372286    -0.572987935408    -1.084922468044     1.007825032230
         H           -1.192615627714    -0.751812935408     1.830921531956     1.007825032230
         H           -2.203153627714     1.654428064592    -1.571934468044     1.007825032230
         H           -3.339310627714    -2.000105935408     1.596466531956     1.007825032230
         H           -4.367559627714     0.416702064592    -1.814140468044     1.007825032230
         H           -4.926875627714    -1.414624935408    -0.225975468044     1.007825032230

  Basis Set: AUG-CC-PVTZ
    Blend: AUG-CC-PVTZ
  Basis Set: (AUG-CC-PVTZ AUX)
    Blend: AUG-CC-PVTZ-JKFIT
	 Reference Energy          =    -590.3033785909879043 [Eh]
	 Singles Energy            =      -0.0000000000000000 [Eh]
	 Same-Spin Energy          =      -0.6445632998914070 [Eh]
	 Opposite-Spin Energy      =      -1.9824724189282341 [Eh]
	 Correlation Energy        =      -2.6270357188196414 [Eh]
	 Total Energy              =    -592.9304143098075883 [Eh]

	 ================> DF-SCS-MP2 Energies <==================
	-----------------------------------------------------------
	 SCS Same-Spin Scale       =       0.3333333333333333 [-]
	 SCS Opposite-Spin Scale   =       1.2000000000000000 [-]
	 SCS Same-Spin Energy      =      -0.2148544332971357 [Eh]
	 SCS Opposite-Spin Energy  =      -2.3789669027138807 [Eh]
	 SCS Correlation Energy    =      -2.5938213360110165 [Eh]
	 SCS Total Energy          =    -592.8971999269989510 [Eh]
	-----------------------------------------------------------

  Dipole Moment: [D]
     X:     2.0651      Y:    -0.1216      Z:     0.1487     Total:     2.0740

*** Psi4 exiting successfully. Buy a developer a beer!
