                               Psi4 1.4a3.dev225

  ==> Input File <==

--------------------------------------------------------------------------
#psi4
#
memory 32 gb

molecule  {
0 1
  O       -0.4771680     1.3164760     0.3008390
  N        0.7985240    -0.5535590    -0.2772820
  C        3.2200150    -0.4235850    -0.1586420
  C        0.7425440     0.7008700     0.1517020
  C       -1.6208490     0.5302780     0.1412880
  C        3.1140170     0.9030370     0.2913960
  C        1.8654780     1.4834140     0.4539590
  C        2.0264240    -1.0936290    -0.4226860
  C        4.5555360    -1.0893210    -0.3460000
  C       -1.9196720    -0.4880720     1.0459920
  C       -2.4970780     0.8728280    -0.8843220
  C       -3.1225630    -1.1795470     0.9070330
  C       -3.7017300     0.1773150    -1.0087090
  C       -4.0153870    -0.8504980    -0.1174150
  H        4.0120030     1.4769520     0.5152690
  H        1.7375180     2.5038470     0.8013060
  H        2.0412640    -2.1246280    -0.7760920
  H        5.0645405    -1.1207945     0.5078650
  H        4.4318450    -2.1155640    -0.7023530
  H        5.1668890    -0.5502680    -1.0765200
  H       -1.2183070    -0.7290930     1.8393240
  H       -2.2288450     1.6771480    -1.5635320
  H       -3.3650020    -1.9773860     1.6048690
  H       -4.3932510     0.4394220    -1.8057380
  H       -4.9525670    -1.3919050    -0.2175730
units angstrom
no_reorient  #important for SAPT in psi4, default
symmetry c1  #important for SAPT in psi4, default
}

set PROPERTIES_ORIGIN ["COM"]
properties('MP2/aug-cc-pvtz', properties = ['dipole'])
--------------------------------------------------------------------------

    Molecular point group: c1
  Charge       = 0
  Multiplicity = 1
  Basis Set: AUG-CC-PVTZ
    Blend: AUG-CC-PVTZ
  Basis Set: (AUG-CC-PVTZ AUX)
    Blend: AUG-CC-PVTZ-JKFIT

    Orbital Energies [Eh]
    ---------------------

    Doubly Occupied:

       1A    -20.598297     2A    -15.563100     3A    -11.340345
       4A    -11.295499     5A    -11.276784     6A    -11.261180
       7A    -11.242547     8A    -11.240904     9A    -11.236607
      10A    -11.236508    11A    -11.231930    12A    -11.231186
      13A    -11.230308    14A    -11.220430    15A     -1.430469
      16A     -1.253138    17A     -1.145720    18A     -1.103425
      19A     -1.053892    20A     -1.015137    21A     -1.004655
      22A     -0.950017    23A     -0.877485    24A     -0.843508
      25A     -0.830825    26A     -0.801209    27A     -0.736611
      28A     -0.705001    29A     -0.678996    30A     -0.655422
      31A     -0.643916    32A     -0.626293    33A     -0.611211
      34A     -0.602024    35A     -0.594467    36A     -0.588176
      37A     -0.571993    38A     -0.563648    39A     -0.552183
      40A     -0.520446    41A     -0.513860    42A     -0.511713
      43A     -0.492558    44A     -0.477893    45A     -0.427991
      46A     -0.384422    47A     -0.335303    48A     -0.332311
      49A     -0.313557

  @DF-RHF Final Energy:  -590.32551204470224

   => Energetics <=

    Nuclear Repulsion Energy =            802.1904164885785349
    One-Electron Energy =               -2393.1216482271001951
    Two-Electron Energy =                1000.6057196938193101
    Total Energy =                       -590.3255120447022364
  Basis Set: (AUG-CC-PVTZ AUX)
    Blend: AUG-CC-PVTZ-RI
    Molecular point group: c1

    Geometry (in Angstrom), charge = 0, multiplicity = 1:

       Center              X                  Y                   Z               Mass
    ------------   -----------------  -----------------  -----------------  -----------------
         O           -0.442890083096     1.295514765642     0.297098871781    15.994914619570
         N            0.832801916904    -0.574520234358    -0.281022128219    14.003074004430
         C            3.254292916904    -0.444546234358    -0.162382128219    12.000000000000
         C            0.776821916904     0.679908765642     0.147961871781    12.000000000000
         C           -1.586571083096     0.509316765642     0.137547871781    12.000000000000
         C            3.148294916904     0.882075765642     0.287655871781    12.000000000000
         C            1.899755916904     1.462452765642     0.450218871781    12.000000000000
         C            2.060701916904    -1.114590234358    -0.426426128219    12.000000000000
         C            4.589813916904    -1.110282234358    -0.349740128219    12.000000000000
         C           -1.885394083096    -0.509033234358     1.042251871781    12.000000000000
         C           -2.462800083096     0.851866765642    -0.888062128219    12.000000000000
         C           -3.088285083096    -1.200508234358     0.903292871781    12.000000000000
         C           -3.667452083096     0.156353765642    -1.012449128219    12.000000000000
         C           -3.981109083096    -0.871459234358    -0.121155128219    12.000000000000
         H            4.046280916904     1.455990765642     0.511528871781     1.007825032230
         H            1.771795916904     2.482885765642     0.797565871781     1.007825032230
         H            2.075541916904    -2.145589234358    -0.779832128219     1.007825032230
         H            5.098818416904    -1.141755734358     0.504124871781     1.007825032230
         H            4.466122916904    -2.136525234358    -0.706093128219     1.007825032230
         H            5.201166916904    -0.571229234358    -1.080260128219     1.007825032230
         H           -1.184029083096    -0.750054234358     1.835583871781     1.007825032230
         H           -2.194567083096     1.656186765642    -1.567272128219     1.007825032230
         H           -3.330724083096    -1.998347234358     1.601128871781     1.007825032230
         H           -4.358973083096     0.418460765642    -1.809478128219     1.007825032230
         H           -4.918289083096    -1.412866234358    -0.221313128219     1.007825032230

  Basis Set: AUG-CC-PVTZ
    Blend: AUG-CC-PVTZ
  Basis Set: (AUG-CC-PVTZ AUX)
    Blend: AUG-CC-PVTZ-JKFIT
	 Reference Energy          =    -590.3255120447022364 [Eh]
	 Singles Energy            =      -0.0000000000000000 [Eh]
	 Same-Spin Energy          =      -0.6440531838846673 [Eh]
	 Opposite-Spin Energy      =      -1.9810433111181378 [Eh]
	 Correlation Energy        =      -2.6250964950028051 [Eh]
	 Total Energy              =    -592.9506085397050583 [Eh]

	 ================> DF-SCS-MP2 Energies <==================
	-----------------------------------------------------------
	 SCS Same-Spin Scale       =       0.3333333333333333 [-]
	 SCS Opposite-Spin Scale   =       1.2000000000000000 [-]
	 SCS Same-Spin Energy      =      -0.2146843946282224 [Eh]
	 SCS Opposite-Spin Energy  =      -2.3772519733417652 [Eh]
	 SCS Correlation Energy    =      -2.5919363679699874 [Eh]
	 SCS Total Energy          =    -592.9174484126722291 [Eh]
	-----------------------------------------------------------

  Dipole Moment: [D]
     X:     2.0596      Y:    -0.1950      Z:     0.1775     Total:     2.0764

*** Psi4 exiting successfully. Buy a developer a beer!
