                               Psi4 1.4a3.dev225

  ==> Input File <==

--------------------------------------------------------------------------
#psi4
#
memory 32 gb

molecule  {
0 1
  O       -0.4771680     1.3164760     0.3008390
  N        0.7985240    -0.5535590    -0.2772820
  C        3.2200150    -0.4235850    -0.1586420
  C        0.7425440     0.7008700     0.1517020
  C       -1.6208490     0.5302780     0.1412880
  C        3.1140170     0.9030370     0.2913960
  C        1.8654780     1.4834140     0.4539590
  C        2.0264240    -1.0936290    -0.4226860
  C        4.5555360    -1.0893210    -0.3460000
  C       -1.9196720    -0.4880720     1.0459920
  C       -2.4970780     0.8728280    -0.8843220
  C       -3.1225630    -1.1795470     0.9070330
  C       -3.7017300     0.1773150    -1.0087090
  C       -4.0153870    -0.8504980    -0.1174150
  H        4.0120030     1.4769520     0.5152690
  H        1.7316239     2.5508500     0.8173054
  H        2.0412640    -2.1246280    -0.7760920
  H        5.1157190    -1.1239590     0.5937180
  H        4.4318450    -2.1155640    -0.7023530
  H        5.1668890    -0.5502680    -1.0765200
  H       -1.2183070    -0.7290930     1.8393240
  H       -2.2288450     1.6771480    -1.5635320
  H       -3.3650020    -1.9773860     1.6048690
  H       -4.3932510     0.4394220    -1.8057380
  H       -4.9525670    -1.3919050    -0.2175730
units angstrom
no_reorient  #important for SAPT in psi4, default
symmetry c1  #important for SAPT in psi4, default
}

set PROPERTIES_ORIGIN ["COM"]
properties('MP2/aug-cc-pvtz', properties = ['dipole'])
--------------------------------------------------------------------------

    Molecular point group: c1
  Charge       = 0
  Multiplicity = 1
  Basis Set: AUG-CC-PVTZ
    Blend: AUG-CC-PVTZ
  Basis Set: (AUG-CC-PVTZ AUX)
    Blend: AUG-CC-PVTZ-JKFIT

    Orbital Energies [Eh]
    ---------------------

    Doubly Occupied:

       1A    -20.598511     2A    -15.563767     3A    -11.341149
       4A    -11.295619     5A    -11.277445     6A    -11.261793
       7A    -11.246604     8A    -11.243506     9A    -11.236727
      10A    -11.236627    11A    -11.232924    12A    -11.232062
      13A    -11.231317    14A    -11.230430    15A     -1.430678
      16A     -1.253735    17A     -1.145841    18A     -1.102510
      19A     -1.052031    20A     -1.015238    21A     -1.003635
      22A     -0.943061    23A     -0.877035    24A     -0.840896
      25A     -0.829950    26A     -0.800846    27A     -0.736840
      28A     -0.704049    29A     -0.679217    30A     -0.655452
      31A     -0.636908    32A     -0.624891    33A     -0.609266
      34A     -0.594863    35A     -0.592145    36A     -0.586189
      37A     -0.569679    38A     -0.563283    39A     -0.549608
      40A     -0.519635    41A     -0.513588    42A     -0.511556
      43A     -0.492678    44A     -0.477603    45A     -0.428041
      46A     -0.384687    47A     -0.335437    48A     -0.332422
      49A     -0.313667

  @DF-RHF Final Energy:  -590.32902700525540

   => Energetics <=

    Nuclear Repulsion Energy =            801.4536004996732572
    One-Electron Energy =               -2391.6939688518050389
    Two-Electron Energy =                 999.9113413468763838
    Total Energy =                       -590.3290270052553979
  Basis Set: (AUG-CC-PVTZ AUX)
    Blend: AUG-CC-PVTZ-RI
    Molecular point group: c1

    Geometry (in Angstrom), charge = 0, multiplicity = 1:

       Center              X                  Y                   Z               Mass
    ------------   -----------------  -----------------  -----------------  -----------------
         O           -0.443136667005     1.295276054990     0.296544262183    15.994914619570
         N            0.832555332995    -0.574758945010    -0.281576737817    14.003074004430
         C            3.254046332995    -0.444784945010    -0.162936737817    12.000000000000
         C            0.776575332995     0.679670054990     0.147407262183    12.000000000000
         C           -1.586817667005     0.509078054990     0.136993262183    12.000000000000
         C            3.148048332995     0.881837054990     0.287101262183    12.000000000000
         C            1.899509332995     1.462214054990     0.449664262183    12.000000000000
         C            2.060455332995    -1.114828945010    -0.426980737817    12.000000000000
         C            4.589567332995    -1.110520945010    -0.350294737817    12.000000000000
         C           -1.885640667005    -0.509271945010     1.041697262183    12.000000000000
         C           -2.463046667005     0.851628054990    -0.888616737817    12.000000000000
         C           -3.088531667005    -1.200746945010     0.902738262183    12.000000000000
         C           -3.667698667005     0.156115054990    -1.013003737817    12.000000000000
         C           -3.981355667005    -0.871697945010    -0.121709737817    12.000000000000
         H            4.046034332995     1.455752054990     0.510974262183     1.007825032230
         H            1.765655232995     2.529650054990     0.813010662183     1.007825032230
         H            2.075295332995    -2.145827945010    -0.780386737817     1.007825032230
         H            5.149750332995    -1.145158945010     0.589423262183     1.007825032230
         H            4.465876332995    -2.136763945010    -0.706647737817     1.007825032230
         H            5.200920332995    -0.571467945010    -1.080814737817     1.007825032230
         H           -1.184275667005    -0.750292945010     1.835029262183     1.007825032230
         H           -2.194813667005     1.655948054990    -1.567826737817     1.007825032230
         H           -3.330970667005    -1.998585945010     1.600574262183     1.007825032230
         H           -4.359219667005     0.418222054990    -1.810032737817     1.007825032230
         H           -4.918535667005    -1.413104945010    -0.221867737817     1.007825032230

  Basis Set: AUG-CC-PVTZ
    Blend: AUG-CC-PVTZ
  Basis Set: (AUG-CC-PVTZ AUX)
    Blend: AUG-CC-PVTZ-JKFIT
	 Reference Energy          =    -590.3290270052553979 [Eh]
	 Singles Energy            =      -0.0000000000000000 [Eh]
	 Same-Spin Energy          =      -0.6441341568778922 [Eh]
	 Opposite-Spin Energy      =      -1.9819383039393015 [Eh]
	 Correlation Energy        =      -2.6260724608171939 [Eh]
	 Total Energy              =    -592.9550994660726246 [Eh]

	 ================> DF-SCS-MP2 Energies <==================
	-----------------------------------------------------------
	 SCS Same-Spin Scale       =       0.3333333333333333 [-]
	 SCS Opposite-Spin Scale   =       1.2000000000000000 [-]
	 SCS Same-Spin Energy      =      -0.2147113856259641 [Eh]
	 SCS Opposite-Spin Energy  =      -2.3783259647271615 [Eh]
	 SCS Correlation Energy    =      -2.5930373503531254 [Eh]
	 SCS Total Energy          =    -592.9220643556085406 [Eh]
	-----------------------------------------------------------

  Dipole Moment: [D]
     X:     2.0184      Y:    -0.1897      Z:     0.1541     Total:     2.0331

*** Psi4 exiting successfully. Buy a developer a beer!
