                               Psi4 1.4a3.dev225

  ==> Input File <==

--------------------------------------------------------------------------
#psi4
#
memory 32 gb

molecule  {
0 1
  O       -0.4771680     1.3164760     0.3008390
  N        0.7985240    -0.5535590    -0.2772820
  C        3.2200150    -0.4235850    -0.1586420
  C        0.7425440     0.7008700     0.1517020
  C       -1.6208490     0.5302780     0.1412880
  C        3.1140170     0.9030370     0.2913960
  C        1.8654780     1.4834140     0.4539590
  C        2.0264240    -1.0936290    -0.4226860
  C        4.5555360    -1.0893210    -0.3460000
  C       -1.9196720    -0.4880720     1.0459920
  C       -2.4970780     0.8728280    -0.8843220
  C       -3.1225630    -1.1795470     0.9070330
  C       -3.7017300     0.1773150    -1.0087090
  C       -4.0153870    -0.8504980    -0.1174150
  H        3.9707724     1.4506010     0.5049900
  H        1.7375180     2.5038470     0.8013060
  H        2.0412640    -2.1246280    -0.7760920
  H        5.1157190    -1.1239590     0.5937180
  H        4.4318450    -2.1155640    -0.7023530
  H        5.1668890    -0.5502680    -1.0765200
  H       -1.2183070    -0.7290930     1.8393240
  H       -2.2288450     1.6771480    -1.5635320
  H       -3.3650020    -1.9773860     1.6048690
  H       -4.3932510     0.4394220    -1.8057380
  H       -4.9525670    -1.3919050    -0.2175730
units angstrom
no_reorient  #important for SAPT in psi4, default
symmetry c1  #important for SAPT in psi4, default
}

set PROPERTIES_ORIGIN ["COM"]
properties('MP2/aug-cc-pvtz', properties = ['dipole'])
--------------------------------------------------------------------------

    Molecular point group: c1
  Charge       = 0
  Multiplicity = 1
  Basis Set: AUG-CC-PVTZ
    Blend: AUG-CC-PVTZ
  Basis Set: (AUG-CC-PVTZ AUX)
    Blend: AUG-CC-PVTZ-JKFIT

    Orbital Energies [Eh]
    ---------------------

    Doubly Occupied:

       1A    -20.598388     2A    -15.563250     3A    -11.340408
       4A    -11.295551     5A    -11.276953     6A    -11.255586
       7A    -11.242768     8A    -11.240770     9A    -11.236661
      10A    -11.236562    11A    -11.232784    12A    -11.231986
      13A    -11.231246    14A    -11.230361    15A     -1.430553
      16A     -1.253254    17A     -1.145775    18A     -1.103754
      19A     -1.052911    20A     -1.015170    21A     -1.003876
      22A     -0.943014    23A     -0.880414    24A     -0.841955
      25A     -0.830511    26A     -0.803014    27A     -0.739108
      28A     -0.705088    29A     -0.679138    30A     -0.655405
      31A     -0.643060    32A     -0.626497    33A     -0.614218
      34A     -0.596198    35A     -0.592391    36A     -0.586110
      37A     -0.569746    38A     -0.566163    39A     -0.549698
      40A     -0.520894    41A     -0.513408    42A     -0.511602
      43A     -0.492619    44A     -0.477436    45A     -0.428322
      46A     -0.384249    47A     -0.335347    48A     -0.332183
      49A     -0.313393

  @DF-RHF Final Energy:  -590.33079834092973

   => Energetics <=

    Nuclear Repulsion Energy =            801.9972165929434595
    One-Electron Energy =               -2392.7565347460968042
    Two-Electron Energy =                1000.4285198122236125
    Total Energy =                       -590.3307983409297321
  Basis Set: (AUG-CC-PVTZ AUX)
    Blend: AUG-CC-PVTZ-RI
    Molecular point group: c1

    Geometry (in Angstrom), charge = 0, multiplicity = 1:

       Center              X                  Y                   Z               Mass
    ------------   -----------------  -----------------  -----------------  -----------------
         O           -0.442944251685     1.295675484286     0.296687354077    15.994914619570
         N            0.832747748315    -0.574359515714    -0.281433645923    14.003074004430
         C            3.254238748315    -0.444385515714    -0.162793645923    12.000000000000
         C            0.776767748315     0.680069484286     0.147550354077    12.000000000000
         C           -1.586625251685     0.509477484286     0.137136354077    12.000000000000
         C            3.148240748315     0.882236484286     0.287244354077    12.000000000000
         C            1.899701748315     1.462613484286     0.449807354077    12.000000000000
         C            2.060647748315    -1.114429515714    -0.426837645923    12.000000000000
         C            4.589759748315    -1.110121515714    -0.350151645923    12.000000000000
         C           -1.885448251685    -0.508872515714     1.041840354077    12.000000000000
         C           -2.462854251685     0.852027484286    -0.888473645923    12.000000000000
         C           -3.088339251685    -1.200347515714     0.902881354077    12.000000000000
         C           -3.667506251685     0.156514484286    -1.012860645923    12.000000000000
         C           -3.981163251685    -0.871298515714    -0.121566645923    12.000000000000
         H            4.004996148315     1.429800484286     0.500838354077     1.007825032230
         H            1.771741748315     2.483046484286     0.797154354077     1.007825032230
         H            2.075487748315    -2.145428515714    -0.780243645923     1.007825032230
         H            5.149942748315    -1.144759515714     0.589566354077     1.007825032230
         H            4.466068748315    -2.136364515714    -0.706504645923     1.007825032230
         H            5.201112748315    -0.571068515714    -1.080671645923     1.007825032230
         H           -1.184083251685    -0.749893515714     1.835172354077     1.007825032230
         H           -2.194621251685     1.656347484286    -1.567683645923     1.007825032230
         H           -3.330778251685    -1.998186515714     1.600717354077     1.007825032230
         H           -4.359027251685     0.418621484286    -1.809889645923     1.007825032230
         H           -4.918343251685    -1.412705515714    -0.221724645923     1.007825032230

  Basis Set: AUG-CC-PVTZ
    Blend: AUG-CC-PVTZ
  Basis Set: (AUG-CC-PVTZ AUX)
    Blend: AUG-CC-PVTZ-JKFIT
	 Reference Energy          =    -590.3307983409297321 [Eh]
	 Singles Energy            =      -0.0000000000000000 [Eh]
	 Same-Spin Energy          =      -0.6439114678234392 [Eh]
	 Opposite-Spin Energy      =      -1.9811823441714145 [Eh]
	 Correlation Energy        =      -2.6250938119948537 [Eh]
	 Total Energy              =    -592.9558921529245481 [Eh]

	 ================> DF-SCS-MP2 Energies <==================
	-----------------------------------------------------------
	 SCS Same-Spin Scale       =       0.3333333333333333 [-]
	 SCS Opposite-Spin Scale   =       1.2000000000000000 [-]
	 SCS Same-Spin Energy      =      -0.2146371559411464 [Eh]
	 SCS Opposite-Spin Energy  =      -2.3774188130056975 [Eh]
	 SCS Correlation Energy    =      -2.5920559689468439 [Eh]
	 SCS Total Energy          =    -592.9228543098765840 [Eh]
	-----------------------------------------------------------

  Dipole Moment: [D]
     X:     2.0331      Y:    -0.1758      Z:     0.1593     Total:     2.0469

*** Psi4 exiting successfully. Buy a developer a beer!
