                               Psi4 1.4a3.dev225

  ==> Input File <==

--------------------------------------------------------------------------
#psi4
#
memory 32 gb

molecule  {
0 1
  O       -0.4771680     1.3164760     0.3008390
  N        0.7985240    -0.5535590    -0.2772820
  C        3.2200150    -0.4235850    -0.1586420
  C        0.7425440     0.7008700     0.1517020
  C       -1.6208490     0.5302780     0.1412880
  C        3.1140170     0.9030370     0.2913960
  C        1.8654780     1.4834140     0.4539590
  C        2.0264240    -1.0936290    -0.4226860
  C        4.5555360    -1.0893210    -0.3460000
  C       -1.9196720    -0.4880720     1.0459920
  C       -2.4970780     0.8728280    -0.8843220
  C       -3.0925964    -1.1445208     0.8910044
  C       -3.7017300     0.1773150    -1.0087090
  C       -4.0153870    -0.8504980    -0.1174150
  H        4.0120030     1.4769520     0.5152690
  H        1.7375180     2.5038470     0.8013060
  H        2.0412640    -2.1246280    -0.7760920
  H        5.1157190    -1.1239590     0.5937180
  H        4.4318450    -2.1155640    -0.7023530
  H        5.1668890    -0.5502680    -1.0765200
  H       -1.2183070    -0.7290930     1.8393240
  H       -2.2288450     1.6771480    -1.5635320
  H       -3.3650020    -1.9773860     1.6048690
  H       -4.3932510     0.4394220    -1.8057380
  H       -4.9525670    -1.3919050    -0.2175730
units angstrom
no_reorient  #important for SAPT in psi4, default
symmetry c1  #important for SAPT in psi4, default
}

set PROPERTIES_ORIGIN ["COM"]
properties('MP2/aug-cc-pvtz', properties = ['dipole'])
--------------------------------------------------------------------------

    Molecular point group: c1
  Charge       = 0
  Multiplicity = 1
  Basis Set: AUG-CC-PVTZ
    Blend: AUG-CC-PVTZ
  Basis Set: (AUG-CC-PVTZ AUX)
    Blend: AUG-CC-PVTZ-JKFIT

    Orbital Energies [Eh]
    ---------------------

    Doubly Occupied:

       1A    -20.598701     2A    -15.563699     3A    -11.340961
       4A    -11.296204     5A    -11.277502     6A    -11.261611
       7A    -11.243406     8A    -11.241347     9A    -11.236577
      10A    -11.235439    11A    -11.232886    12A    -11.230070
      13A    -11.229785    14A    -11.227584    15A     -1.430957
      16A     -1.253733    17A     -1.150425    18A     -1.102816
      19A     -1.053170    20A     -1.019653    21A     -1.003267
      22A     -0.943065    23A     -0.878447    24A     -0.842256
      25A     -0.827696    26A     -0.802065    27A     -0.736276
      28A     -0.704817    29A     -0.681064    30A     -0.657490
      31A     -0.643195    32A     -0.622909    33A     -0.610820
      34A     -0.594586    35A     -0.591034    36A     -0.584118
      37A     -0.571048    38A     -0.563670    39A     -0.549896
      40A     -0.521872    41A     -0.518454    42A     -0.510130
      43A     -0.493165    44A     -0.473272    45A     -0.428510
      46A     -0.384691    47A     -0.339998    48A     -0.331611
      49A     -0.313355

  @DF-RHF Final Energy:  -590.32878768989815

   => Energetics <=

    Nuclear Repulsion Energy =            802.6864911570410186
    One-Electron Energy =               -2394.1319501242724073
    Two-Electron Energy =                1001.1166712773332392
    Total Energy =                       -590.3287876898981494
  Basis Set: (AUG-CC-PVTZ AUX)
    Blend: AUG-CC-PVTZ-RI
    Molecular point group: c1

    Geometry (in Angstrom), charge = 0, multiplicity = 1:

       Center              X                  Y                   Z               Mass
    ------------   -----------------  -----------------  -----------------  -----------------
         O           -0.445111658334     1.293261059252     0.297670603324    15.994914619570
         N            0.830580341666    -0.576773940748    -0.280450396676    14.003074004430
         C            3.252071341666    -0.446799940748    -0.161810396676    12.000000000000
         C            0.774600341666     0.677655059252     0.148533603324    12.000000000000
         C           -1.588792658334     0.507063059252     0.138119603324    12.000000000000
         C            3.146073341666     0.879822059252     0.288227603324    12.000000000000
         C            1.897534341666     1.460199059252     0.450790603324    12.000000000000
         C            2.058480341666    -1.116843940748    -0.425854396676    12.000000000000
         C            4.587592341666    -1.112535940748    -0.349168396676    12.000000000000
         C           -1.887615658334    -0.511286940748     1.042823603324    12.000000000000
         C           -2.465021658334     0.849613059252    -0.887490396676    12.000000000000
         C           -3.060540058334    -1.167735740748     0.887836003324    12.000000000000
         C           -3.669673658334     0.154100059252    -1.011877396676    12.000000000000
         C           -3.983330658334    -0.873712940748    -0.120583396676    12.000000000000
         H            4.044059341666     1.453737059252     0.512100603324     1.007825032230
         H            1.769574341666     2.480632059252     0.798137603324     1.007825032230
         H            2.073320341666    -2.147842940748    -0.779260396676     1.007825032230
         H            5.147775341666    -1.147173940748     0.590549603324     1.007825032230
         H            4.463901341666    -2.138778940748    -0.705521396676     1.007825032230
         H            5.198945341666    -0.573482940748    -1.079688396676     1.007825032230
         H           -1.186250658334    -0.752307940748     1.836155603324     1.007825032230
         H           -2.196788658334     1.653933059252    -1.566700396676     1.007825032230
         H           -3.332945658334    -2.000600940748     1.601700603324     1.007825032230
         H           -4.361194658334     0.416207059252    -1.808906396676     1.007825032230
         H           -4.920510658334    -1.415119940748    -0.220741396676     1.007825032230

  Basis Set: AUG-CC-PVTZ
    Blend: AUG-CC-PVTZ
  Basis Set: (AUG-CC-PVTZ AUX)
    Blend: AUG-CC-PVTZ-JKFIT
	 Reference Energy          =    -590.3287876898981494 [Eh]
	 Singles Energy            =      -0.0000000000000000 [Eh]
	 Same-Spin Energy          =      -0.6440221395640943 [Eh]
	 Opposite-Spin Energy      =      -1.9813945459210700 [Eh]
	 Correlation Energy        =      -2.6254166854851642 [Eh]
	 Total Energy              =    -592.9542043753833696 [Eh]

	 ================> DF-SCS-MP2 Energies <==================
	-----------------------------------------------------------
	 SCS Same-Spin Scale       =       0.3333333333333333 [-]
	 SCS Opposite-Spin Scale   =       1.2000000000000000 [-]
	 SCS Same-Spin Energy      =      -0.2146740465213647 [Eh]
	 SCS Opposite-Spin Energy  =      -2.3776734551052838 [Eh]
	 SCS Correlation Energy    =      -2.5923475016266484 [Eh]
	 SCS Total Energy          =    -592.9211351915248542 [Eh]
	-----------------------------------------------------------

  Dipole Moment: [D]
     X:     2.0265      Y:    -0.1614      Z:     0.1419     Total:     2.0378

*** Psi4 exiting successfully. Buy a developer a beer!
