                               Psi4 1.4a3.dev225

  ==> Input File <==

--------------------------------------------------------------------------
#psi4
#
memory 32 gb

molecule  {
0 1
  O       -0.4771680     1.3164760     0.3008390
  N        0.7985240    -0.5535590    -0.2772820
  C        3.2200150    -0.4235850    -0.1586420
  C        0.7425440     0.7008700     0.1517020
  C       -1.6208490     0.5302780     0.1412880
  C        3.1140170     0.9030370     0.2913960
  C        1.8654780     1.4834140     0.4539590
  C        2.0264240    -1.0936290    -0.4226860
  C        4.5555360    -1.0893210    -0.3460000
  C       -1.9196720    -0.4880720     1.0459920
  C       -2.4970780     0.8728280    -0.8843220
  C       -3.1225630    -1.1795470     0.9070330
  C       -3.5292137     0.2769183    -0.9908957
  C       -4.0153870    -0.8504980    -0.1174150
  H        4.0120030     1.4769520     0.5152690
  H        1.7375180     2.5038470     0.8013060
  H        2.0412640    -2.1246280    -0.7760920
  H        5.1157190    -1.1239590     0.5937180
  H        4.4318450    -2.1155640    -0.7023530
  H        5.1668890    -0.5502680    -1.0765200
  H       -1.2183070    -0.7290930     1.8393240
  H       -2.2288450     1.6771480    -1.5635320
  H       -3.3650020    -1.9773860     1.6048690
  H       -4.3932510     0.4394220    -1.8057380
  H       -4.9525670    -1.3919050    -0.2175730
units angstrom
no_reorient  #important for SAPT in psi4, default
symmetry c1  #important for SAPT in psi4, default
}

set PROPERTIES_ORIGIN ["COM"]
properties('MP2/aug-cc-pvtz', properties = ['dipole'])
--------------------------------------------------------------------------

    Molecular point group: c1
  Charge       = 0
  Multiplicity = 1
  Basis Set: AUG-CC-PVTZ
    Blend: AUG-CC-PVTZ
  Basis Set: (AUG-CC-PVTZ AUX)
    Blend: AUG-CC-PVTZ-JKFIT

    Orbital Energies [Eh]
    ---------------------

    Doubly Occupied:

       1A    -20.599519     2A    -15.563498     3A    -11.341328
       4A    -11.297527     5A    -11.277566     6A    -11.261723
       7A    -11.243444     8A    -11.241490     9A    -11.238155
      10A    -11.235276    11A    -11.232947    12A    -11.230901
      13A    -11.228043    14A    -11.207427    15A     -1.431689
      16A     -1.253894    17A     -1.164164    18A     -1.102887
      19A     -1.051926    20A     -1.043687    21A     -0.990468
      22A     -0.942769    23A     -0.879592    24A     -0.846692
      25A     -0.813172    26A     -0.807234    27A     -0.735600
      28A     -0.705699    29A     -0.682610    30A     -0.661531
      31A     -0.643228    32A     -0.619823    33A     -0.609751
      34A     -0.600637    35A     -0.592675    36A     -0.582547
      37A     -0.570633    38A     -0.561401    39A     -0.550254
      40A     -0.529077    41A     -0.521248    42A     -0.509626
      43A     -0.494068    44A     -0.445537    45A     -0.428958
      46A     -0.384993    47A     -0.365111    48A     -0.327598
      49A     -0.303439

  @DF-RHF Final Energy:  -590.26852769322045

   => Energetics <=

    Nuclear Repulsion Energy =            804.7053259776588447
    One-Electron Energy =               -2398.0415879563165618
    Two-Electron Energy =                1003.0677342854371545
    Total Energy =                       -590.2685276932204488
  Basis Set: (AUG-CC-PVTZ AUX)
    Blend: AUG-CC-PVTZ-RI
    Molecular point group: c1

    Geometry (in Angstrom), charge = 0, multiplicity = 1:

       Center              X                  Y                   Z               Mass
    ------------   -----------------  -----------------  -----------------  -----------------
         O           -0.454353925676     1.289074176906     0.295476450077    15.994914619570
         N            0.821338074324    -0.580960823094    -0.282644549923    14.003074004430
         C            3.242829074324    -0.450986823094    -0.164004549923    12.000000000000
         C            0.765358074324     0.673468176906     0.146339450077    12.000000000000
         C           -1.598034925676     0.502876176906     0.135925450077    12.000000000000
         C            3.136831074324     0.875635176906     0.286033450077    12.000000000000
         C            1.888292074324     1.456012176906     0.448596450077    12.000000000000
         C            2.049238074324    -1.121030823094    -0.428048549923    12.000000000000
         C            4.578350074324    -1.116722823094    -0.351362549923    12.000000000000
         C           -1.896857925676    -0.515473823094     1.040629450077    12.000000000000
         C           -2.474263925676     0.845426176906    -0.889684549923    12.000000000000
         C           -3.099748925676    -1.206948823094     0.901670450077    12.000000000000
         C           -3.506399625676     0.249516476906    -0.996258249923    12.000000000000
         C           -3.992572925676    -0.877899823094    -0.122777549923    12.000000000000
         H            4.034817074324     1.449550176906     0.509906450077     1.007825032230
         H            1.760332074324     2.476445176906     0.795943450077     1.007825032230
         H            2.064078074324    -2.152029823094    -0.781454549923     1.007825032230
         H            5.138533074324    -1.151360823094     0.588355450077     1.007825032230
         H            4.454659074324    -2.142965823094    -0.707715549923     1.007825032230
         H            5.189703074324    -0.577669823094    -1.081882549923     1.007825032230
         H           -1.195492925676    -0.756494823094     1.833961450077     1.007825032230
         H           -2.206030925676     1.649746176906    -1.568894549923     1.007825032230
         H           -3.342187925676    -2.004787823094     1.599506450077     1.007825032230
         H           -4.370436925676     0.412020176906    -1.811100549923     1.007825032230
         H           -4.929752925676    -1.419306823094    -0.222935549923     1.007825032230

  Basis Set: AUG-CC-PVTZ
    Blend: AUG-CC-PVTZ
  Basis Set: (AUG-CC-PVTZ AUX)
    Blend: AUG-CC-PVTZ-JKFIT
	 Reference Energy          =    -590.2685276932204488 [Eh]
	 Singles Energy            =      -0.0000000000000000 [Eh]
	 Same-Spin Energy          =      -0.6438675821469543 [Eh]
	 Opposite-Spin Energy      =      -1.9833195766742873 [Eh]
	 Correlation Energy        =      -2.6271871588212417 [Eh]
	 Total Energy              =    -592.8957148520416922 [Eh]

	 ================> DF-SCS-MP2 Energies <==================
	-----------------------------------------------------------
	 SCS Same-Spin Scale       =       0.3333333333333333 [-]
	 SCS Opposite-Spin Scale   =       1.2000000000000000 [-]
	 SCS Same-Spin Energy      =      -0.2146225273823181 [Eh]
	 SCS Opposite-Spin Energy  =      -2.3799834920091447 [Eh]
	 SCS Correlation Energy    =      -2.5946060193914628 [Eh]
	 SCS Total Energy          =    -592.8631337126118979 [Eh]
	-----------------------------------------------------------

  Dipole Moment: [D]
     X:     2.0658      Y:    -0.1841      Z:     0.2048     Total:     2.0841

*** Psi4 exiting successfully. Buy a developer a beer!
