                               Psi4 1.4a3.dev225

  ==> Input File <==

--------------------------------------------------------------------------
#psi4
#
memory 32 gb

molecule  {
0 1
  O       -0.4771680     1.3164760     0.3008390
  N        0.7985240    -0.5535590    -0.2772820
  C        3.2200150    -0.4235850    -0.1586420
  C        0.7425440     0.7008700     0.1517020
  C       -1.6208490     0.5302780     0.1412880
  C        3.1140170     0.9030370     0.2913960
  C        1.8654780     1.4834140     0.4539590
  C        2.0264240    -1.0936290    -0.4226860
  C        4.5999359    -1.1114536    -0.3522288
  C       -1.9196720    -0.4880720     1.0459920
  C       -2.4970780     0.8728280    -0.8843220
  C       -3.1225630    -1.1795470     0.9070330
  C       -3.7017300     0.1773150    -1.0087090
  C       -4.0153870    -0.8504980    -0.1174150
  H        4.0120030     1.4769520     0.5152690
  H        1.7375180     2.5038470     0.8013060
  H        2.0412640    -2.1246280    -0.7760920
  H        5.1157190    -1.1239590     0.5937180
  H        4.4318450    -2.1155640    -0.7023530
  H        5.1668890    -0.5502680    -1.0765200
  H       -1.2183070    -0.7290930     1.8393240
  H       -2.2288450     1.6771480    -1.5635320
  H       -3.3650020    -1.9773860     1.6048690
  H       -4.3932510     0.4394220    -1.8057380
  H       -4.9525670    -1.3919050    -0.2175730
units angstrom
no_reorient  #important for SAPT in psi4, default
symmetry c1  #important for SAPT in psi4, default
}

set PROPERTIES_ORIGIN ["COM"]
properties('MP2/aug-cc-pvtz', properties = ['dipole'])
--------------------------------------------------------------------------

    Molecular point group: c1
  Charge       = 0
  Multiplicity = 1
  Basis Set: AUG-CC-PVTZ
    Blend: AUG-CC-PVTZ
  Basis Set: (AUG-CC-PVTZ AUX)
    Blend: AUG-CC-PVTZ-JKFIT

    Orbital Energies [Eh]
    ---------------------

    Doubly Occupied:

       1A    -20.598330     2A    -15.563196     3A    -11.340393
       4A    -11.295521     5A    -11.277143     6A    -11.261241
       7A    -11.245116     8A    -11.240816     9A    -11.236630
      10A    -11.236530    11A    -11.231950    12A    -11.231768
      13A    -11.231211    14A    -11.230332    15A     -1.430499
      16A     -1.253004    17A     -1.145726    18A     -1.099136
      19A     -1.050585    20A     -1.015118    21A     -1.002950
      22A     -0.944428    23A     -0.876932    24A     -0.842742
      25A     -0.830651    26A     -0.800614    27A     -0.736559
      28A     -0.703929    29A     -0.678786    30A     -0.655296
      31A     -0.638688    32A     -0.626195    33A     -0.610424
      34A     -0.594959    35A     -0.593922    36A     -0.587548
      37A     -0.571708    38A     -0.561624    39A     -0.557224
      40A     -0.514576    41A     -0.513271    42A     -0.511046
      43A     -0.492390    44A     -0.478082    45A     -0.427552
      46A     -0.384519    47A     -0.335352    48A     -0.332584
      49A     -0.313831

  @DF-RHF Final Energy:  -590.32998663529486

   => Energetics <=

    Nuclear Repulsion Energy =            800.8217627561951986
    One-Electron Energy =               -2390.4382428740191244
    Two-Electron Energy =                 999.2864934825289538
    Total Energy =                       -590.3299866352948584
  Basis Set: (AUG-CC-PVTZ AUX)
    Blend: AUG-CC-PVTZ-RI
    Molecular point group: c1

    Geometry (in Angstrom), charge = 0, multiplicity = 1:

       Center              X                  Y                   Z               Mass
    ------------   -----------------  -----------------  -----------------  -----------------
         O           -0.446047447166     1.296966973123     0.297035229335    15.994914619570
         N            0.829644552834    -0.573068026877    -0.281085770665    14.003074004430
         C            3.251135552834    -0.443094026877    -0.162445770665    12.000000000000
         C            0.773664552834     0.681360973123     0.147898229335    12.000000000000
         C           -1.589728447166     0.510768973123     0.137484229335    12.000000000000
         C            3.145137552834     0.883527973123     0.287592229335    12.000000000000
         C            1.896598552834     1.463904973123     0.450155229335    12.000000000000
         C            2.057544552834    -1.113138026877    -0.426489770665    12.000000000000
         C            4.631056452834    -1.130962626877    -0.356032570665    12.000000000000
         C           -1.888551447166    -0.507581026877     1.042188229335    12.000000000000
         C           -2.465957447166     0.853318973123    -0.888125770665    12.000000000000
         C           -3.091442447166    -1.199056026877     0.903229229335    12.000000000000
         C           -3.670609447166     0.157805973123    -1.012512770665    12.000000000000
         C           -3.984266447166    -0.870007026877    -0.121218770665    12.000000000000
         H            4.043123552834     1.457442973123     0.511465229335     1.007825032230
         H            1.768638552834     2.484337973123     0.797502229335     1.007825032230
         H            2.072384552834    -2.144137026877    -0.779895770665     1.007825032230
         H            5.146839552834    -1.143468026877     0.589914229335     1.007825032230
         H            4.462965552834    -2.135073026877    -0.706156770665     1.007825032230
         H            5.198009552834    -0.569777026877    -1.080323770665     1.007825032230
         H           -1.187186447166    -0.748602026877     1.835520229335     1.007825032230
         H           -2.197724447166     1.657638973123    -1.567335770665     1.007825032230
         H           -3.333881447166    -1.996895026877     1.601065229335     1.007825032230
         H           -4.362130447166     0.419912973123    -1.809541770665     1.007825032230
         H           -4.921446447166    -1.411414026877    -0.221376770665     1.007825032230

  Basis Set: AUG-CC-PVTZ
    Blend: AUG-CC-PVTZ
  Basis Set: (AUG-CC-PVTZ AUX)
    Blend: AUG-CC-PVTZ-JKFIT
	 Reference Energy          =    -590.3299866352948584 [Eh]
	 Singles Energy            =      -0.0000000000000000 [Eh]
	 Same-Spin Energy          =      -0.6436805951117199 [Eh]
	 Opposite-Spin Energy      =      -1.9812623887797356 [Eh]
	 Correlation Energy        =      -2.6249429838914553 [Eh]
	 Total Energy              =    -592.9549296191862595 [Eh]

	 ================> DF-SCS-MP2 Energies <==================
	-----------------------------------------------------------
	 SCS Same-Spin Scale       =       0.3333333333333333 [-]
	 SCS Opposite-Spin Scale   =       1.2000000000000000 [-]
	 SCS Same-Spin Energy      =      -0.2145601983705733 [Eh]
	 SCS Opposite-Spin Energy  =      -2.3775148665356824 [Eh]
	 SCS Correlation Energy    =      -2.5920750649062558 [Eh]
	 SCS Total Energy          =    -592.9220617002010840 [Eh]
	-----------------------------------------------------------

  Dipole Moment: [D]
     X:     2.0213      Y:    -0.1869      Z:     0.1553     Total:     2.0359

*** Psi4 exiting successfully. Buy a developer a beer!
