                               Psi4 1.4a3.dev225

  ==> Input File <==

--------------------------------------------------------------------------
#psi4
#
memory 32 gb

molecule  {
0 1
  O       -0.4771680     1.3164760     0.3008390
  N        0.7985240    -0.5535590    -0.2772820
  C        3.2200150    -0.4235850    -0.1586420
  C        0.7425440     0.7008700     0.1517020
  C       -1.6208490     0.5302780     0.1412880
  C        3.1140170     0.9030370     0.2913960
  C        1.8654780     1.4834140     0.4539590
  C        1.9791680    -1.0127070    -0.3964896
  C        4.5555360    -1.0893210    -0.3460000
  C       -1.9196720    -0.4880720     1.0459920
  C       -2.4970780     0.8728280    -0.8843220
  C       -3.1225630    -1.1795470     0.9070330
  C       -3.7017300     0.1773150    -1.0087090
  C       -4.0153870    -0.8504980    -0.1174150
  H        4.0120030     1.4769520     0.5152690
  H        1.7375180     2.5038470     0.8013060
  H        2.0412640    -2.1246280    -0.7760920
  H        5.1157190    -1.1239590     0.5937180
  H        4.4318450    -2.1155640    -0.7023530
  H        5.1668890    -0.5502680    -1.0765200
  H       -1.2183070    -0.7290930     1.8393240
  H       -2.2288450     1.6771480    -1.5635320
  H       -3.3650020    -1.9773860     1.6048690
  H       -4.3932510     0.4394220    -1.8057380
  H       -4.9525670    -1.3919050    -0.2175730
units angstrom
no_reorient  #important for SAPT in psi4, default
symmetry c1  #important for SAPT in psi4, default
}

set PROPERTIES_ORIGIN ["COM"]
properties('MP2/aug-cc-pvtz', properties = ['dipole'])
--------------------------------------------------------------------------

    Molecular point group: c1
  Charge       = 0
  Multiplicity = 1
  Basis Set: AUG-CC-PVTZ
    Blend: AUG-CC-PVTZ
  Basis Set: (AUG-CC-PVTZ AUX)
    Blend: AUG-CC-PVTZ-JKFIT

    Orbital Energies [Eh]
    ---------------------

    Doubly Occupied:

       1A    -20.599741     2A    -15.562279     3A    -11.342687
       4A    -11.296854     5A    -11.277943     6A    -11.260318
       7A    -11.241166     8A    -11.238345     9A    -11.237929
      10A    -11.237818    11A    -11.234266    12A    -11.233403
      13A    -11.232532    14A    -11.231562    15A     -1.432749
      16A     -1.281317    17A     -1.147365    18A     -1.107636
      19A     -1.051868    20A     -1.016494    21A     -1.004087
      22A     -0.944649    23A     -0.871706    24A     -0.847530
      25A     -0.832515    26A     -0.807104    27A     -0.738106
      28A     -0.705101    29A     -0.680929    30A     -0.657265
      31A     -0.643051    32A     -0.624020    33A     -0.604049
      34A     -0.594937    35A     -0.590159    36A     -0.587396
      37A     -0.571782    38A     -0.565387    39A     -0.548974
      40A     -0.520737    41A     -0.520435    42A     -0.511915
      43A     -0.494289    44A     -0.481535    45A     -0.424734
      46A     -0.392338    47A     -0.336667    48A     -0.332247
      49A     -0.312131

  @DF-RHF Final Energy:  -590.32112808812440

   => Energetics <=

    Nuclear Repulsion Energy =            803.6544107347435784
    One-Electron Energy =               -2395.9309871887730878
    Two-Electron Energy =                1001.9554483659051130
    Total Energy =                       -590.3211280881243965
  Basis Set: (AUG-CC-PVTZ AUX)
    Blend: AUG-CC-PVTZ-RI
    Molecular point group: c1

    Geometry (in Angstrom), charge = 0, multiplicity = 1:

       Center              X                  Y                   Z               Mass
    ------------   -----------------  -----------------  -----------------  -----------------
         O           -0.440104899891     1.290285386533     0.294932928404    15.994914619570
         N            0.835587100109    -0.579749613467    -0.283188071596    14.003074004430
         C            3.257078100109    -0.449775613467    -0.164548071596    12.000000000000
         C            0.779607100109     0.674679386533     0.145795928404    12.000000000000
         C           -1.583785899891     0.504087386533     0.135381928404    12.000000000000
         C            3.151080100109     0.876846386533     0.285489928404    12.000000000000
         C            1.902541100109     1.457223386533     0.448052928404    12.000000000000
         C            2.016231100109    -1.038897613467    -0.402395671596    12.000000000000
         C            4.592599100109    -1.115511613467    -0.351906071596    12.000000000000
         C           -1.882608899891    -0.514262613467     1.040085928404    12.000000000000
         C           -2.460014899891     0.846637386533    -0.890228071596    12.000000000000
         C           -3.085499899891    -1.205737613467     0.901126928404    12.000000000000
         C           -3.664666899891     0.151124386533    -1.014615071596    12.000000000000
         C           -3.978323899891    -0.876688613467    -0.123321071596    12.000000000000
         H            4.049066100109     1.450761386533     0.509362928404     1.007825032230
         H            1.774581100109     2.477656386533     0.795399928404     1.007825032230
         H            2.078327100109    -2.150818613467    -0.781998071596     1.007825032230
         H            5.152782100109    -1.150149613467     0.587811928404     1.007825032230
         H            4.468908100109    -2.141754613467    -0.708259071596     1.007825032230
         H            5.203952100109    -0.576458613467    -1.082426071596     1.007825032230
         H           -1.181243899891    -0.755283613467     1.833417928404     1.007825032230
         H           -2.191781899891     1.650957386533    -1.569438071596     1.007825032230
         H           -3.327938899891    -2.003576613467     1.598962928404     1.007825032230
         H           -4.356187899891     0.413231386533    -1.811644071596     1.007825032230
         H           -4.915503899891    -1.418095613467    -0.223479071596     1.007825032230

  Basis Set: AUG-CC-PVTZ
    Blend: AUG-CC-PVTZ
  Basis Set: (AUG-CC-PVTZ AUX)
    Blend: AUG-CC-PVTZ-JKFIT
	 Reference Energy          =    -590.3211280881243965 [Eh]
	 Singles Energy            =      -0.0000000000000000 [Eh]
	 Same-Spin Energy          =      -0.6439318723790732 [Eh]
	 Opposite-Spin Energy      =      -1.9806226549345352 [Eh]
	 Correlation Energy        =      -2.6245545273136086 [Eh]
	 Total Energy              =    -592.9456826154380451 [Eh]

	 ================> DF-SCS-MP2 Energies <==================
	-----------------------------------------------------------
	 SCS Same-Spin Scale       =       0.3333333333333333 [-]
	 SCS Opposite-Spin Scale   =       1.2000000000000000 [-]
	 SCS Same-Spin Energy      =      -0.2146439574596911 [Eh]
	 SCS Opposite-Spin Energy  =      -2.3767471859214422 [Eh]
	 SCS Correlation Energy    =      -2.5913911433811334 [Eh]
	 SCS Total Energy          =    -592.9125192315054846 [Eh]
	-----------------------------------------------------------

  Dipole Moment: [D]
     X:     1.8762      Y:    -0.0612      Z:     0.1939     Total:     1.8872

*** Psi4 exiting successfully. Buy a developer a beer!
