                               Psi4 1.4a3.dev225

  ==> Input File <==

--------------------------------------------------------------------------
#psi4
#
memory 32 gb

molecule  {
0 1
  O       -0.4771680     1.3164760     0.3008390
  N        0.7985240    -0.5535590    -0.2772820
  C        3.2200150    -0.4235850    -0.1586420
  C        0.7425440     0.7008700     0.1517020
  C       -1.6208490     0.5302780     0.1412880
  C        3.1140170     0.9030370     0.2913960
  C        1.8654780     1.4834140     0.4539590
  C        2.0264240    -1.0936290    -0.4226860
  C        4.5555360    -1.0893210    -0.3460000
  C       -1.9196720    -0.4880720     1.0459920
  C       -2.4970780     0.8728280    -0.8843220
  C       -3.1225630    -1.1795470     0.9070330
  C       -3.7017300     0.1773150    -1.0087090
  C       -4.0153870    -0.8504980    -0.1174150
  H        4.0120030     1.4769520     0.5152690
  H        1.7375180     2.5038470     0.8013060
  H        2.0412640    -2.1246280    -0.7760920
  H        5.1157190    -1.1239590     0.5937180
  H        4.4318450    -2.1155640    -0.7023530
  H        5.1389613    -0.5748929    -1.0431485
  H       -1.2183070    -0.7290930     1.8393240
  H       -2.2288450     1.6771480    -1.5635320
  H       -3.3650020    -1.9773860     1.6048690
  H       -4.3932510     0.4394220    -1.8057380
  H       -4.9525670    -1.3919050    -0.2175730
units angstrom
no_reorient  #important for SAPT in psi4, default
symmetry c1  #important for SAPT in psi4, default
}

set PROPERTIES_ORIGIN ["COM"]
properties('MP2/aug-cc-pvtz', properties = ['dipole'])
--------------------------------------------------------------------------

    Molecular point group: c1
  Charge       = 0
  Multiplicity = 1
  Basis Set: AUG-CC-PVTZ
    Blend: AUG-CC-PVTZ
  Basis Set: (AUG-CC-PVTZ AUX)
    Blend: AUG-CC-PVTZ-JKFIT

    Orbital Energies [Eh]
    ---------------------

    Doubly Occupied:

       1A    -20.598419     2A    -15.563232     3A    -11.340509
       4A    -11.295565     5A    -11.277010     6A    -11.261284
       7A    -11.242854     8A    -11.241018     9A    -11.236661
      10A    -11.236561    11A    -11.231987    12A    -11.231252
      13A    -11.230364    14A    -11.226650    15A     -1.430583
      16A     -1.253282    17A     -1.145781    18A     -1.102937
      19A     -1.053367    20A     -1.015181    21A     -1.004132
      22A     -0.946186    23A     -0.877561    24A     -0.842754
      25A     -0.830716    26A     -0.801013    27A     -0.736695
      28A     -0.704820    29A     -0.679070    30A     -0.655387
      31A     -0.643485    32A     -0.626397    33A     -0.611518
      34A     -0.595946    35A     -0.593383    36A     -0.587731
      37A     -0.572302    38A     -0.563383    39A     -0.550790
      40A     -0.520731    41A     -0.513983    42A     -0.511624
      43A     -0.492607    44A     -0.477685    45A     -0.428080
      46A     -0.384432    47A     -0.335362    48A     -0.332334
      49A     -0.313543

  @DF-RHF Final Energy:  -590.33055950639414

   => Energetics <=

    Nuclear Repulsion Energy =            801.9473926954209446
    One-Electron Energy =               -2392.6596047188181728
    Two-Electron Energy =                1000.3816525170029763
    Total Energy =                       -590.3305595063941382
  Basis Set: (AUG-CC-PVTZ AUX)
    Blend: AUG-CC-PVTZ-RI
    Molecular point group: c1

    Geometry (in Angstrom), charge = 0, multiplicity = 1:

       Center              X                  Y                   Z               Mass
    ------------   -----------------  -----------------  -----------------  -----------------
         O           -0.443016689017     1.295666085277     0.296449667128    15.994914619570
         N            0.832675310983    -0.574368914723    -0.281671332872    14.003074004430
         C            3.254166310983    -0.444394914723    -0.163031332872    12.000000000000
         C            0.776695310983     0.680060085277     0.147312667128    12.000000000000
         C           -1.586697689017     0.509468085277     0.136898667128    12.000000000000
         C            3.148168310983     0.882227085277     0.287006667128    12.000000000000
         C            1.899629310983     1.462604085277     0.449569667128    12.000000000000
         C            2.060575310983    -1.114438914723    -0.427075332872    12.000000000000
         C            4.589687310983    -1.110130914723    -0.350389332872    12.000000000000
         C           -1.885520689017    -0.508881914723     1.041602667128    12.000000000000
         C           -2.462926689017     0.852018085277    -0.888711332872    12.000000000000
         C           -3.088411689017    -1.200356914723     0.902643667128    12.000000000000
         C           -3.667578689017     0.156505085277    -1.013098332872    12.000000000000
         C           -3.981235689017    -0.871307914723    -0.121804332872    12.000000000000
         H            4.046154310983     1.456142085277     0.510879667128     1.007825032230
         H            1.771669310983     2.483037085277     0.796916667128     1.007825032230
         H            2.075415310983    -2.145437914723    -0.780481332872     1.007825032230
         H            5.149870310983    -1.144768914723     0.589328667128     1.007825032230
         H            4.465996310983    -2.136373914723    -0.706742332872     1.007825032230
         H            5.173112610983    -0.595702814723    -1.047537832872     1.007825032230
         H           -1.184155689017    -0.749902914723     1.834934667128     1.007825032230
         H           -2.194693689017     1.656338085277    -1.567921332872     1.007825032230
         H           -3.330850689017    -1.998195914723     1.600479667128     1.007825032230
         H           -4.359099689017     0.418612085277    -1.810127332872     1.007825032230
         H           -4.918415689017    -1.412714914723    -0.221962332872     1.007825032230

  Basis Set: AUG-CC-PVTZ
    Blend: AUG-CC-PVTZ
  Basis Set: (AUG-CC-PVTZ AUX)
    Blend: AUG-CC-PVTZ-JKFIT
	 Reference Energy          =    -590.3305595063941382 [Eh]
	 Singles Energy            =      -0.0000000000000000 [Eh]
	 Same-Spin Energy          =      -0.6440223695064057 [Eh]
	 Opposite-Spin Energy      =      -1.9812306976110694 [Eh]
	 Correlation Energy        =      -2.6252530671174750 [Eh]
	 Total Energy              =    -592.9558125735115937 [Eh]

	 ================> DF-SCS-MP2 Energies <==================
	-----------------------------------------------------------
	 SCS Same-Spin Scale       =       0.3333333333333333 [-]
	 SCS Opposite-Spin Scale   =       1.2000000000000000 [-]
	 SCS Same-Spin Energy      =      -0.2146741231688019 [Eh]
	 SCS Opposite-Spin Energy  =      -2.3774768371332833 [Eh]
	 SCS Correlation Energy    =      -2.5921509603020851 [Eh]
	 SCS Total Energy          =    -592.9227104666962305 [Eh]
	-----------------------------------------------------------

  Dipole Moment: [D]
     X:     2.0411      Y:    -0.1819      Z:     0.1443     Total:     2.0543

*** Psi4 exiting successfully. Buy a developer a beer!
