                               Psi4 1.4a3.dev225

  ==> Input File <==

--------------------------------------------------------------------------
#psi4
#
memory 32 gb

molecule  {
0 1
  O       -0.4771680     1.3164760     0.3008390
  N        0.7985240    -0.5535590    -0.2772820
  C        3.2200150    -0.4235850    -0.1586420
  C        0.7425440     0.7008700     0.1517020
  C       -1.6208490     0.5302780     0.1412880
  C        3.1140170     0.9030370     0.2913960
  C        1.8654780     1.4834140     0.4539590
  C        2.0391562    -1.1133645    -0.4290389
  C        4.5555360    -1.0893210    -0.3460000
  C       -1.9196720    -0.4880720     1.0459920
  C       -2.4970780     0.8728280    -0.8843220
  C       -3.1225630    -1.1795470     0.9070330
  C       -3.7017300     0.1773150    -1.0087090
  C       -4.0153870    -0.8504980    -0.1174150
  H        4.0120030     1.4769520     0.5152690
  H        1.7375180     2.5038470     0.8013060
  H        2.0412640    -2.1246280    -0.7760920
  H        5.1157190    -1.1239590     0.5937180
  H        4.4318450    -2.1155640    -0.7023530
  H        5.1668890    -0.5502680    -1.0765200
  H       -1.2183070    -0.7290930     1.8393240
  H       -2.2288450     1.6771480    -1.5635320
  H       -3.3650020    -1.9773860     1.6048690
  H       -4.3932510     0.4394220    -1.8057380
  H       -4.9525670    -1.3919050    -0.2175730
units angstrom
no_reorient  #important for SAPT in psi4, default
symmetry c1  #important for SAPT in psi4, default
}

set PROPERTIES_ORIGIN ["COM"]
properties('MP2/aug-cc-pvtz', properties = ['dipole'])
--------------------------------------------------------------------------

    Molecular point group: c1
  Charge       = 0
  Multiplicity = 1
  Basis Set: AUG-CC-PVTZ
    Blend: AUG-CC-PVTZ
  Basis Set: (AUG-CC-PVTZ AUX)
    Blend: AUG-CC-PVTZ-JKFIT

    Orbital Energies [Eh]
    ---------------------

    Doubly Occupied:

       1A    -20.598339     2A    -15.563689     3A    -11.340347
       4A    -11.295396     5A    -11.277320     6A    -11.261811
       7A    -11.244082     8A    -11.242032     9A    -11.236470
      10A    -11.236369    11A    -11.232424    12A    -11.231781
      13A    -11.231072    14A    -11.230189    15A     -1.430338
      16A     -1.247394    17A     -1.145520    18A     -1.101594
      19A     -1.053370    20A     -1.014973    21A     -1.003739
      22A     -0.942508    23A     -0.879409    24A     -0.841216
      25A     -0.830279    26A     -0.799311    27A     -0.736876
      28A     -0.704199    29A     -0.678743    30A     -0.655123
      31A     -0.643801    32A     -0.628431    33A     -0.612698
      34A     -0.595416    35A     -0.591589    36A     -0.585888
      37A     -0.569208    38A     -0.563139    39A     -0.549160
      40A     -0.521662    41A     -0.512435    42A     -0.511114
      43A     -0.492311    44A     -0.476588    45A     -0.427523
      46A     -0.382543    47A     -0.335174    48A     -0.332517
      49A     -0.313982

  @DF-RHF Final Energy:  -590.33015300052739

   => Energetics <=

    Nuclear Repulsion Energy =            801.2541722378517761
    One-Electron Energy =               -2391.3064721274331532
    Two-Electron Energy =                 999.7221468890538745
    Total Energy =                       -590.3301530005273889
  Basis Set: (AUG-CC-PVTZ AUX)
    Blend: AUG-CC-PVTZ-RI
    Molecular point group: c1

    Geometry (in Angstrom), charge = 0, multiplicity = 1:

       Center              X                  Y                   Z               Mass
    ------------   -----------------  -----------------  -----------------  -----------------
         O           -0.443994259053     1.296811556177     0.297043275409    15.994914619570
         N            0.831697740947    -0.573223443823    -0.281077724591    14.003074004430
         C            3.253188740947    -0.443249443823    -0.162437724591    12.000000000000
         C            0.775717740947     0.681205556177     0.147906275409    12.000000000000
         C           -1.587675259053     0.510613556177     0.137492275409    12.000000000000
         C            3.147190740947     0.883372556177     0.287600275409    12.000000000000
         C            1.898651740947     1.463749556177     0.450163275409    12.000000000000
         C            2.072329940947    -1.133028943823    -0.432834624591    12.000000000000
         C            4.588709740947    -1.108985443823    -0.349795724591    12.000000000000
         C           -1.886498259053    -0.507736443823     1.042196275409    12.000000000000
         C           -2.463904259053     0.853163556177    -0.888117724591    12.000000000000
         C           -3.089389259053    -1.199211443823     0.903237275409    12.000000000000
         C           -3.668556259053     0.157650556177    -1.012504724591    12.000000000000
         C           -3.982213259053    -0.870162443823    -0.121210724591    12.000000000000
         H            4.045176740947     1.457287556177     0.511473275409     1.007825032230
         H            1.770691740947     2.484182556177     0.797510275409     1.007825032230
         H            2.074437740947    -2.144292443823    -0.779887724591     1.007825032230
         H            5.148892740947    -1.143623443823     0.589922275409     1.007825032230
         H            4.465018740947    -2.135228443823    -0.706148724591     1.007825032230
         H            5.200062740947    -0.569932443823    -1.080315724591     1.007825032230
         H           -1.185133259053    -0.748757443823     1.835528275409     1.007825032230
         H           -2.195671259053     1.657483556177    -1.567327724591     1.007825032230
         H           -3.331828259053    -1.997050443823     1.601073275409     1.007825032230
         H           -4.360077259053     0.419757556177    -1.809533724591     1.007825032230
         H           -4.919393259053    -1.411569443823    -0.221368724591     1.007825032230

  Basis Set: AUG-CC-PVTZ
    Blend: AUG-CC-PVTZ
  Basis Set: (AUG-CC-PVTZ AUX)
    Blend: AUG-CC-PVTZ-JKFIT
	 Reference Energy          =    -590.3301530005273889 [Eh]
	 Singles Energy            =      -0.0000000000000000 [Eh]
	 Same-Spin Energy          =      -0.6440581215534465 [Eh]
	 Opposite-Spin Energy      =      -1.9819299318542829 [Eh]
	 Correlation Energy        =      -2.6259880534077293 [Eh]
	 Total Energy              =    -592.9561410539350845 [Eh]

	 ================> DF-SCS-MP2 Energies <==================
	-----------------------------------------------------------
	 SCS Same-Spin Scale       =       0.3333333333333333 [-]
	 SCS Opposite-Spin Scale   =       1.2000000000000000 [-]
	 SCS Same-Spin Energy      =      -0.2146860405178155 [Eh]
	 SCS Opposite-Spin Energy  =      -2.3783159182251392 [Eh]
	 SCS Correlation Energy    =      -2.5930019587429549 [Eh]
	 SCS Total Energy          =    -592.9231549592703914 [Eh]
	-----------------------------------------------------------

  Dipole Moment: [D]
     X:     2.0480      Y:    -0.2021      Z:     0.1512     Total:     2.0635

*** Psi4 exiting successfully. Buy a developer a beer!
