                               Psi4 1.4a3.dev225

  ==> Input File <==

--------------------------------------------------------------------------
#psi4
#
memory 32 gb

molecule  {
0 1
  O       -0.4771680     1.3164760     0.3008390
  N        0.7985240    -0.5535590    -0.2772820
  C        3.2200150    -0.4235850    -0.1586420
  C        0.7425440     0.7008700     0.1517020
  C       -1.6208490     0.5302780     0.1412880
  C        3.1140170     0.9030370     0.2913960
  C        1.8654780     1.4834140     0.4539590
  C        2.0264240    -1.0936290    -0.4226860
  C        4.5555360    -1.0893210    -0.3460000
  C       -1.9196720    -0.4880720     1.0459920
  C       -2.4913743     0.8590710    -0.8650263
  C       -3.1225630    -1.1795470     0.9070330
  C       -3.7017300     0.1773150    -1.0087090
  C       -4.0153870    -0.8504980    -0.1174150
  H        4.0120030     1.4769520     0.5152690
  H        1.7375180     2.5038470     0.8013060
  H        2.0412640    -2.1246280    -0.7760920
  H        5.1157190    -1.1239590     0.5937180
  H        4.4318450    -2.1155640    -0.7023530
  H        5.1668890    -0.5502680    -1.0765200
  H       -1.2183070    -0.7290930     1.8393240
  H       -2.2288450     1.6771480    -1.5635320
  H       -3.3650020    -1.9773860     1.6048690
  H       -4.3932510     0.4394220    -1.8057380
  H       -4.9525670    -1.3919050    -0.2175730
units angstrom
no_reorient  #important for SAPT in psi4, default
symmetry c1  #important for SAPT in psi4, default
}

set PROPERTIES_ORIGIN ["COM"]
properties('MP2/aug-cc-pvtz', properties = ['dipole'])
--------------------------------------------------------------------------

    Molecular point group: c1
  Charge       = 0
  Multiplicity = 1
  Basis Set: AUG-CC-PVTZ
    Blend: AUG-CC-PVTZ
  Basis Set: (AUG-CC-PVTZ AUX)
    Blend: AUG-CC-PVTZ-JKFIT

    Orbital Energies [Eh]
    ---------------------

    Doubly Occupied:

       1A    -20.598501     2A    -15.563440     3A    -11.340722
       4A    -11.293044     5A    -11.277308     6A    -11.261427
       7A    -11.243210     8A    -11.241147     9A    -11.236551
      10A    -11.236179    11A    -11.232753    12A    -11.232320
      13A    -11.230647    14A    -11.230501    15A     -1.430741
      16A     -1.253528    17A     -1.148017    18A     -1.102621
      19A     -1.053252    20A     -1.014825    21A     -1.005550
      22A     -0.943005    23A     -0.877589    24A     -0.842873
      25A     -0.830062    26A     -0.801160    27A     -0.737772
      28A     -0.704623    29A     -0.677534    30A     -0.656257
      31A     -0.643058    32A     -0.626008    33A     -0.611143
      34A     -0.595945    35A     -0.591931    36A     -0.584485
      37A     -0.569013    38A     -0.563394    39A     -0.549560
      40A     -0.521197    41A     -0.514362    42A     -0.509586
      43A     -0.493256    44A     -0.478276    45A     -0.428257
      46A     -0.384461    47A     -0.335392    48A     -0.333439
      49A     -0.314287

  @DF-RHF Final Energy:  -590.33111770565893

   => Energetics <=

    Nuclear Repulsion Energy =            802.1843426726803727
    One-Electron Energy =               -2393.1425039228211062
    Two-Electron Energy =                1000.6270435444816940
    Total Energy =                       -590.3311177056589258
  Basis Set: (AUG-CC-PVTZ AUX)
    Blend: AUG-CC-PVTZ-RI
    Molecular point group: c1

    Geometry (in Angstrom), charge = 0, multiplicity = 1:

       Center              X                  Y                   Z               Mass
    ------------   -----------------  -----------------  -----------------  -----------------
         O           -0.443538563418     1.296423937716     0.295380338074    15.994914619570
         N            0.832153436582    -0.573611062284    -0.282740661926    14.003074004430
         C            3.253644436582    -0.443637062284    -0.164100661926    12.000000000000
         C            0.776173436582     0.680817937716     0.146243338074    12.000000000000
         C           -1.587219563418     0.510225937716     0.135829338074    12.000000000000
         C            3.147646436582     0.882984937716     0.285937338074    12.000000000000
         C            1.899107436582     1.463361937716     0.448500338074    12.000000000000
         C            2.060053436582    -1.113681062284    -0.428144661926    12.000000000000
         C            4.589165436582    -1.109373062284    -0.351458661926    12.000000000000
         C           -1.886042563418    -0.508124062284     1.040533338074    12.000000000000
         C           -2.457744863418     0.839018937716    -0.870484961926    12.000000000000
         C           -3.088933563418    -1.199599062284     0.901574338074    12.000000000000
         C           -3.668100563418     0.157262937716    -1.014167661926    12.000000000000
         C           -3.981757563418    -0.870550062284    -0.122873661926    12.000000000000
         H            4.045632436582     1.456899937716     0.509810338074     1.007825032230
         H            1.771147436582     2.483794937716     0.795847338074     1.007825032230
         H            2.074893436582    -2.144680062284    -0.781550661926     1.007825032230
         H            5.149348436582    -1.144011062284     0.588259338074     1.007825032230
         H            4.465474436582    -2.135616062284    -0.707811661926     1.007825032230
         H            5.200518436582    -0.570320062284    -1.081978661926     1.007825032230
         H           -1.184677563418    -0.749145062284     1.833865338074     1.007825032230
         H           -2.195215563418     1.657095937716    -1.568990661926     1.007825032230
         H           -3.331372563418    -1.997438062284     1.599410338074     1.007825032230
         H           -4.359621563418     0.419369937716    -1.811196661926     1.007825032230
         H           -4.918937563418    -1.411957062284    -0.223031661926     1.007825032230

  Basis Set: AUG-CC-PVTZ
    Blend: AUG-CC-PVTZ
  Basis Set: (AUG-CC-PVTZ AUX)
    Blend: AUG-CC-PVTZ-JKFIT
	 Reference Energy          =    -590.3311177056589258 [Eh]
	 Singles Energy            =      -0.0000000000000000 [Eh]
	 Same-Spin Energy          =      -0.6439871945803193 [Eh]
	 Opposite-Spin Energy      =      -1.9813844417202824 [Eh]
	 Correlation Energy        =      -2.6253716363006019 [Eh]
	 Total Energy              =    -592.9564893419595819 [Eh]

	 ================> DF-SCS-MP2 Energies <==================
	-----------------------------------------------------------
	 SCS Same-Spin Scale       =       0.3333333333333333 [-]
	 SCS Opposite-Spin Scale   =       1.2000000000000000 [-]
	 SCS Same-Spin Energy      =      -0.2146623981934397 [Eh]
	 SCS Opposite-Spin Energy  =      -2.3776613300643388 [Eh]
	 SCS Correlation Energy    =      -2.5923237282577785 [Eh]
	 SCS Total Energy          =    -592.9234414339166506 [Eh]
	-----------------------------------------------------------

  Dipole Moment: [D]
     X:     2.0035      Y:    -0.1920      Z:     0.1532     Total:     2.0185

*** Psi4 exiting successfully. Buy a developer a beer!
