                               Psi4 1.4a3.dev225

  ==> Input File <==

--------------------------------------------------------------------------
#psi4
#
memory 32 gb

molecule  {
0 1
  O       -0.4771680     1.3164760     0.3008390
  N        0.7985240    -0.5535590    -0.2772820
  C        3.2200150    -0.4235850    -0.1586420
  C        0.7425440     0.7008700     0.1517020
  C       -1.6208490     0.5302780     0.1412880
  C        3.1140170     0.9030370     0.2913960
  C        1.8654780     1.4834140     0.4539590
  C        2.0264240    -1.0936290    -0.4226860
  C        4.5555360    -1.0893210    -0.3460000
  C       -1.9196720    -0.4880720     1.0459920
  C       -2.4970780     0.8728280    -0.8843220
  C       -3.1225630    -1.1795470     0.9070330
  C       -3.7017300     0.1773150    -1.0087090
  C       -4.0153870    -0.8504980    -0.1174150
  H        4.0944642     1.5296541     0.5358271
  H        1.7375180     2.5038470     0.8013060
  H        2.0412640    -2.1246280    -0.7760920
  H        5.1157190    -1.1239590     0.5937180
  H        4.4318450    -2.1155640    -0.7023530
  H        5.1668890    -0.5502680    -1.0765200
  H       -1.2183070    -0.7290930     1.8393240
  H       -2.2288450     1.6771480    -1.5635320
  H       -3.3650020    -1.9773860     1.6048690
  H       -4.3932510     0.4394220    -1.8057380
  H       -4.9525670    -1.3919050    -0.2175730
units angstrom
no_reorient  #important for SAPT in psi4, default
symmetry c1  #important for SAPT in psi4, default
}

set PROPERTIES_ORIGIN ["COM"]
properties('MP2/aug-cc-pvtz', properties = ['dipole'])
--------------------------------------------------------------------------

    Molecular point group: c1
  Charge       = 0
  Multiplicity = 1
  Basis Set: AUG-CC-PVTZ
    Blend: AUG-CC-PVTZ
  Basis Set: (AUG-CC-PVTZ AUX)
    Blend: AUG-CC-PVTZ-JKFIT

    Orbital Energies [Eh]
    ---------------------

    Doubly Occupied:

       1A    -20.599019     2A    -15.563826     3A    -11.341468
       4A    -11.295913     5A    -11.278112     6A    -11.272528
       7A    -11.244298     8A    -11.242132     9A    -11.236924
      10A    -11.236824    11A    -11.232733    12A    -11.232297
      13A    -11.231556    14A    -11.230635    15A     -1.431158
      16A     -1.254032    17A     -1.146087    18A     -1.101170
      19A     -1.053411    20A     -1.015454    21A     -1.003741
      22A     -0.942893    23A     -0.873855    24A     -0.842564
      25A     -0.830937    26A     -0.797541    27A     -0.732991
      28A     -0.704088    29A     -0.679318    30A     -0.655733
      31A     -0.643715    32A     -0.626636    33A     -0.607471
      34A     -0.593556    35A     -0.589684    36A     -0.586200
      37A     -0.569767    38A     -0.554959    39A     -0.548445
      40A     -0.521608    41A     -0.513877    42A     -0.511906
      43A     -0.492865    44A     -0.477921    45A     -0.427948
      46A     -0.385052    47A     -0.335656    48A     -0.332752
      49A     -0.314027

  @DF-RHF Final Energy:  -590.32422043715155

   => Energetics <=

    Nuclear Repulsion Energy =            801.2021316079699318
    One-Electron Energy =               -2391.1781396549276906
    Two-Electron Energy =                 999.6517876098062061
    Total Energy =                       -590.3242204371515527
  Basis Set: (AUG-CC-PVTZ AUX)
    Blend: AUG-CC-PVTZ-RI
    Molecular point group: c1

    Geometry (in Angstrom), charge = 0, multiplicity = 1:

       Center              X                  Y                   Z               Mass
    ------------   -----------------  -----------------  -----------------  -----------------
         O           -0.443617781808     1.295245022088     0.296519439019    15.994914619570
         N            0.832074218192    -0.574789977912    -0.281601560981    14.003074004430
         C            3.253565218192    -0.444815977912    -0.162961560981    12.000000000000
         C            0.776094218192     0.679639022088     0.147382439019    12.000000000000
         C           -1.587298781808     0.509047022088     0.136968439019    12.000000000000
         C            3.147567218192     0.881806022088     0.287076439019    12.000000000000
         C            1.899028218192     1.462183022088     0.449639439019    12.000000000000
         C            2.059974218192    -1.114859977912    -0.427005560981    12.000000000000
         C            4.589086218192    -1.110551977912    -0.350319560981    12.000000000000
         C           -1.886121781808    -0.509302977912     1.041672439019    12.000000000000
         C           -2.463527781808     0.851597022088    -0.888641560981    12.000000000000
         C           -3.089012781808    -1.200777977912     0.902713439019    12.000000000000
         C           -3.668179781808     0.156084022088    -1.013028560981    12.000000000000
         C           -3.981836781808    -0.871728977912    -0.121734560981    12.000000000000
         H            4.128014418192     1.508423122088     0.531507539019     1.007825032230
         H            1.771068218192     2.482616022088     0.796986439019     1.007825032230
         H            2.074814218192    -2.145858977912    -0.780411560981     1.007825032230
         H            5.149269218192    -1.145189977912     0.589398439019     1.007825032230
         H            4.465395218192    -2.136794977912    -0.706672560981     1.007825032230
         H            5.200439218192    -0.571498977912    -1.080839560981     1.007825032230
         H           -1.184756781808    -0.750323977912     1.835004439019     1.007825032230
         H           -2.195294781808     1.655917022088    -1.567851560981     1.007825032230
         H           -3.331451781808    -1.998616977912     1.600549439019     1.007825032230
         H           -4.359700781808     0.418191022088    -1.810057560981     1.007825032230
         H           -4.919016781808    -1.413135977912    -0.221892560981     1.007825032230

  Basis Set: AUG-CC-PVTZ
    Blend: AUG-CC-PVTZ
  Basis Set: (AUG-CC-PVTZ AUX)
    Blend: AUG-CC-PVTZ-JKFIT
	 Reference Energy          =    -590.3242204371515527 [Eh]
	 Singles Energy            =      -0.0000000000000000 [Eh]
	 Same-Spin Energy          =      -0.6442372119719850 [Eh]
	 Opposite-Spin Energy      =      -1.9823821238468142 [Eh]
	 Correlation Energy        =      -2.6266193358187993 [Eh]
	 Total Energy              =    -592.9508397729703120 [Eh]

	 ================> DF-SCS-MP2 Energies <==================
	-----------------------------------------------------------
	 SCS Same-Spin Scale       =       0.3333333333333333 [-]
	 SCS Opposite-Spin Scale   =       1.2000000000000000 [-]
	 SCS Same-Spin Energy      =      -0.2147457373239950 [Eh]
	 SCS Opposite-Spin Energy  =      -2.3788585486161771 [Eh]
	 SCS Correlation Energy    =      -2.5936042859401720 [Eh]
	 SCS Total Energy          =    -592.9178247230917123 [Eh]
	-----------------------------------------------------------

  Dipole Moment: [D]
     X:     1.9726      Y:    -0.2065      Z:     0.1477     Total:     1.9889

*** Psi4 exiting successfully. Buy a developer a beer!
