                               Psi4 1.4a3.dev225

  ==> Input File <==

--------------------------------------------------------------------------
#psi4
#
memory 32 gb

molecule  {
0 1
  O       -0.4771680     1.3164760     0.3008390
  N        0.7985240    -0.5535590    -0.2772820
  C        3.2200150    -0.4235850    -0.1586420
  C        0.7425440     0.7008700     0.1517020
  C       -1.6208490     0.5302780     0.1412880
  C        3.1140170     0.9030370     0.2913960
  C        1.8654780     1.4834140     0.4539590
  C        2.0446248    -1.1016343    -0.4248413
  C        4.5555360    -1.0893210    -0.3460000
  C       -1.9196720    -0.4880720     1.0459920
  C       -2.4970780     0.8728280    -0.8843220
  C       -3.1225630    -1.1795470     0.9070330
  C       -3.7017300     0.1773150    -1.0087090
  C       -4.0153870    -0.8504980    -0.1174150
  H        4.0120030     1.4769520     0.5152690
  H        1.7375180     2.5038470     0.8013060
  H        2.0412640    -2.1246280    -0.7760920
  H        5.1157190    -1.1239590     0.5937180
  H        4.4318450    -2.1155640    -0.7023530
  H        5.1668890    -0.5502680    -1.0765200
  H       -1.2183070    -0.7290930     1.8393240
  H       -2.2288450     1.6771480    -1.5635320
  H       -3.3650020    -1.9773860     1.6048690
  H       -4.3932510     0.4394220    -1.8057380
  H       -4.9525670    -1.3919050    -0.2175730
units angstrom
no_reorient  #important for SAPT in psi4, default
symmetry c1  #important for SAPT in psi4, default
}

set PROPERTIES_ORIGIN ["COM"]
properties('MP2/aug-cc-pvtz', properties = ['dipole'])
--------------------------------------------------------------------------

    Molecular point group: c1
  Charge       = 0
  Multiplicity = 1
  Basis Set: AUG-CC-PVTZ
    Blend: AUG-CC-PVTZ
  Basis Set: (AUG-CC-PVTZ AUX)
    Blend: AUG-CC-PVTZ-JKFIT

    Orbital Energies [Eh]
    ---------------------

    Doubly Occupied:

       1A    -20.598544     2A    -15.563562     3A    -11.340557
       4A    -11.295491     5A    -11.276477     6A    -11.262175
       7A    -11.242734     8A    -11.242022     9A    -11.236537
      10A    -11.236435    11A    -11.232567    12A    -11.231870
      13A    -11.231167    14A    -11.230262    15A     -1.430549
      16A     -1.248284    17A     -1.145615    18A     -1.102574
      19A     -1.053669    20A     -1.015051    21A     -1.003872
      22A     -0.942733    23A     -0.879275    24A     -0.841491
      25A     -0.830305    26A     -0.799843    27A     -0.736720
      28A     -0.703848    29A     -0.678930    30A     -0.655249
      31A     -0.643634    32A     -0.627562    33A     -0.611790
      34A     -0.595188    35A     -0.591885    36A     -0.586079
      37A     -0.569343    38A     -0.563283    39A     -0.548704
      40A     -0.520678    41A     -0.512676    42A     -0.511320
      43A     -0.492382    44A     -0.476971    45A     -0.428820
      46A     -0.382441    47A     -0.335383    48A     -0.333187
      49A     -0.314727

  @DF-RHF Final Energy:  -590.33072832376718

   => Energetics <=

    Nuclear Repulsion Energy =            801.4623614373016380
    One-Electron Energy =               -2391.7172607327770493
    Two-Electron Energy =                 999.9241709717081221
    Total Energy =                       -590.3307283237671754
  Basis Set: (AUG-CC-PVTZ AUX)
    Blend: AUG-CC-PVTZ-RI
    Molecular point group: c1

    Geometry (in Angstrom), charge = 0, multiplicity = 1:

       Center              X                  Y                   Z               Mass
    ------------   -----------------  -----------------  -----------------  -----------------
         O           -0.444348817941     1.296051023925     0.296771122318    15.994914619570
         N            0.831343182059    -0.573983976075    -0.281349877682    14.003074004430
         C            3.252834182059    -0.444009976075    -0.162709877682    12.000000000000
         C            0.775363182059     0.680445023925     0.147634122318    12.000000000000
         C           -1.588029817941     0.509853023925     0.137220122318    12.000000000000
         C            3.146836182059     0.882612023925     0.287328122318    12.000000000000
         C            1.898297182059     1.462989023925     0.449891122318    12.000000000000
         C            2.077443982059    -1.122059276075    -0.428909177682    12.000000000000
         C            4.588355182059    -1.109745976075    -0.350067877682    12.000000000000
         C           -1.886852817941    -0.508496976075     1.041924122318    12.000000000000
         C           -2.464258817941     0.852403023925    -0.888389877682    12.000000000000
         C           -3.089743817941    -1.199971976075     0.902965122318    12.000000000000
         C           -3.668910817941     0.156890023925    -1.012776877682    12.000000000000
         C           -3.982567817941    -0.870922976075    -0.121482877682    12.000000000000
         H            4.044822182059     1.456527023925     0.511201122318     1.007825032230
         H            1.770337182059     2.483422023925     0.797238122318     1.007825032230
         H            2.074083182059    -2.145052976075    -0.780159877682     1.007825032230
         H            5.148538182059    -1.144383976075     0.589650122318     1.007825032230
         H            4.464664182059    -2.135988976075    -0.706420877682     1.007825032230
         H            5.199708182059    -0.570692976075    -1.080587877682     1.007825032230
         H           -1.185487817941    -0.749517976075     1.835256122318     1.007825032230
         H           -2.196025817941     1.656723023925    -1.567599877682     1.007825032230
         H           -3.332182817941    -1.997810976075     1.600801122318     1.007825032230
         H           -4.360431817941     0.418997023925    -1.809805877682     1.007825032230
         H           -4.919747817941    -1.412329976075    -0.221640877682     1.007825032230

  Basis Set: AUG-CC-PVTZ
    Blend: AUG-CC-PVTZ
  Basis Set: (AUG-CC-PVTZ AUX)
    Blend: AUG-CC-PVTZ-JKFIT
	 Reference Energy          =    -590.3307283237671754 [Eh]
	 Singles Energy            =      -0.0000000000000000 [Eh]
	 Same-Spin Energy          =      -0.6439652261031173 [Eh]
	 Opposite-Spin Energy      =      -1.9817986703436559 [Eh]
	 Correlation Energy        =      -2.6257638964467733 [Eh]
	 Total Energy              =    -592.9564922202139314 [Eh]

	 ================> DF-SCS-MP2 Energies <==================
	-----------------------------------------------------------
	 SCS Same-Spin Scale       =       0.3333333333333333 [-]
	 SCS Opposite-Spin Scale   =       1.2000000000000000 [-]
	 SCS Same-Spin Energy      =      -0.2146550753677058 [Eh]
	 SCS Opposite-Spin Energy  =      -2.3781584044123871 [Eh]
	 SCS Correlation Energy    =      -2.5928134797800930 [Eh]
	 SCS Total Energy          =    -592.9235418035473231 [Eh]
	-----------------------------------------------------------

  Dipole Moment: [D]
     X:     2.0403      Y:    -0.1817      Z:     0.1585     Total:     2.0545

*** Psi4 exiting successfully. Buy a developer a beer!
