                               Psi4 1.4a3.dev225

  ==> Input File <==

--------------------------------------------------------------------------
#psi4
#
memory 32 gb

molecule  {
0 1
  O       -0.4771680     1.3164760     0.3008390
  N        0.7985240    -0.5535590    -0.2772820
  C        3.2200150    -0.4235850    -0.1586420
  C        0.7425440     0.7008700     0.1517020
  C       -1.6208490     0.5302780     0.1412880
  C        3.1140170     0.9030370     0.2913960
  C        1.8654780     1.4834140     0.4539590
  C        2.0020540    -1.0535518    -0.4097408
  C        4.5555360    -1.0893210    -0.3460000
  C       -1.9196720    -0.4880720     1.0459920
  C       -2.4970780     0.8728280    -0.8843220
  C       -3.1225630    -1.1795470     0.9070330
  C       -3.7017300     0.1773150    -1.0087090
  C       -4.0153870    -0.8504980    -0.1174150
  H        4.0120030     1.4769520     0.5152690
  H        1.7375180     2.5038470     0.8013060
  H        2.0412640    -2.1246280    -0.7760920
  H        5.1157190    -1.1239590     0.5937180
  H        4.4318450    -2.1155640    -0.7023530
  H        5.1668890    -0.5502680    -1.0765200
  H       -1.2183070    -0.7290930     1.8393240
  H       -2.2288450     1.6771480    -1.5635320
  H       -3.3650020    -1.9773860     1.6048690
  H       -4.3932510     0.4394220    -1.8057380
  H       -4.9525670    -1.3919050    -0.2175730
units angstrom
no_reorient  #important for SAPT in psi4, default
symmetry c1  #important for SAPT in psi4, default
}

set PROPERTIES_ORIGIN ["COM"]
properties('MP2/aug-cc-pvtz', properties = ['dipole'])
--------------------------------------------------------------------------

    Molecular point group: c1
  Charge       = 0
  Multiplicity = 1
  Basis Set: AUG-CC-PVTZ
    Blend: AUG-CC-PVTZ
  Basis Set: (AUG-CC-PVTZ AUX)
    Blend: AUG-CC-PVTZ-JKFIT

    Orbital Energies [Eh]
    ---------------------

    Doubly Occupied:

       1A    -20.599099     2A    -15.562790     3A    -11.341586
       4A    -11.296217     5A    -11.277453     6A    -11.260775
       7A    -11.241887     8A    -11.239601     9A    -11.237303
      10A    -11.237201    11A    -11.233479    12A    -11.232704
      13A    -11.231899    14A    -11.230972    15A     -1.431630
      16A     -1.266700    17A     -1.146585    18A     -1.104939
      19A     -1.052386    20A     -1.015842    21A     -1.003889
      22A     -0.943752    23A     -0.874483    24A     -0.844452
      25A     -0.831494    26A     -0.804059    27A     -0.737196
      28A     -0.705170    29A     -0.680040    30A     -0.656303
      31A     -0.642860    32A     -0.624429    33A     -0.606952
      34A     -0.593522    35A     -0.592861    36A     -0.586732
      37A     -0.570664    38A     -0.564102    39A     -0.549723
      40A     -0.520448    41A     -0.516711    42A     -0.512030
      43A     -0.493474    44A     -0.479564    45A     -0.427872
      46A     -0.388355    47A     -0.336015    48A     -0.332184
      49A     -0.312800

  @DF-RHF Final Energy:  -590.32957957615417

   => Energetics <=

    Nuclear Repulsion Energy =            802.6703666338912626
    One-Electron Energy =               -2394.0535238711372585
    Two-Electron Energy =                1001.0535776610918219
    Total Energy =                       -590.3295795761541740
  Basis Set: (AUG-CC-PVTZ AUX)
    Blend: AUG-CC-PVTZ-RI
    Molecular point group: c1

    Geometry (in Angstrom), charge = 0, multiplicity = 1:

       Center              X                  Y                   Z               Mass
    ------------   -----------------  -----------------  -----------------  -----------------
         O           -0.441588722939     1.292933575628     0.295792075305    15.994914619570
         N            0.834103277061    -0.577101424372    -0.282328924695    14.003074004430
         C            3.255594277061    -0.447127424372    -0.163688924695    12.000000000000
         C            0.778123277061     0.677327575628     0.146655075305    12.000000000000
         C           -1.585269722939     0.506735575628     0.136241075305    12.000000000000
         C            3.149596277061     0.879494575628     0.286349075305    12.000000000000
         C            1.901057277061     1.459871575628     0.448912075305    12.000000000000
         C            2.037633277061    -1.077094224372    -0.414787724695    12.000000000000
         C            4.591115277061    -1.112863424372    -0.351046924695    12.000000000000
         C           -1.884092722939    -0.511614424372     1.040945075305    12.000000000000
         C           -2.461498722939     0.849285575628    -0.889368924695    12.000000000000
         C           -3.086983722939    -1.203089424372     0.901986075305    12.000000000000
         C           -3.666150722939     0.153772575628    -1.013755924695    12.000000000000
         C           -3.979807722939    -0.874040424372    -0.122461924695    12.000000000000
         H            4.047582277061     1.453409575628     0.510222075305     1.007825032230
         H            1.773097277061     2.480304575628     0.796259075305     1.007825032230
         H            2.076843277061    -2.148170424372    -0.781138924695     1.007825032230
         H            5.151298277061    -1.147501424372     0.588671075305     1.007825032230
         H            4.467424277061    -2.139106424372    -0.707399924695     1.007825032230
         H            5.202468277061    -0.573810424372    -1.081566924695     1.007825032230
         H           -1.182727722939    -0.752635424372     1.834277075305     1.007825032230
         H           -2.193265722939     1.653605575628    -1.568578924695     1.007825032230
         H           -3.329422722939    -2.000928424372     1.599822075305     1.007825032230
         H           -4.357671722939     0.415879575628    -1.810784924695     1.007825032230
         H           -4.916987722939    -1.415447424372    -0.222619924695     1.007825032230

  Basis Set: AUG-CC-PVTZ
    Blend: AUG-CC-PVTZ
  Basis Set: (AUG-CC-PVTZ AUX)
    Blend: AUG-CC-PVTZ-JKFIT
	 Reference Energy          =    -590.3295795761541740 [Eh]
	 Singles Energy            =      -0.0000000000000000 [Eh]
	 Same-Spin Energy          =      -0.6439326427831283 [Eh]
	 Opposite-Spin Energy      =      -1.9808684599551578 [Eh]
	 Correlation Energy        =      -2.6248011027382860 [Eh]
	 Total Energy              =    -592.9543806788924485 [Eh]

	 ================> DF-SCS-MP2 Energies <==================
	-----------------------------------------------------------
	 SCS Same-Spin Scale       =       0.3333333333333333 [-]
	 SCS Opposite-Spin Scale   =       1.2000000000000000 [-]
	 SCS Same-Spin Energy      =      -0.2146442142610428 [Eh]
	 SCS Opposite-Spin Energy  =      -2.3770421519461893 [Eh]
	 SCS Correlation Energy    =      -2.5916863662072323 [Eh]
	 SCS Total Energy          =    -592.9212659423614014 [Eh]
	-----------------------------------------------------------

  Dipole Moment: [D]
     X:     1.9500      Y:    -0.1334      Z:     0.1713     Total:     1.9620

*** Psi4 exiting successfully. Buy a developer a beer!
