                               Psi4 1.4a3.dev225

  ==> Input File <==

--------------------------------------------------------------------------
#psi4
#
memory 32 gb

molecule  {
0 1
  O       -0.4771680     1.3164760     0.3008390
  N        0.7985240    -0.5535590    -0.2772820
  C        3.2200150    -0.4235850    -0.1586420
  C        0.7425440     0.7008700     0.1517020
  C       -1.6208490     0.5302780     0.1412880
  C        3.1140170     0.9030370     0.2913960
  C        1.8654780     1.4834140     0.4539590
  C        2.0264240    -1.0936290    -0.4226860
  C        4.5555360    -1.0893210    -0.3460000
  C       -1.9196720    -0.4880720     1.0459920
  C       -2.4970780     0.8728280    -0.8843220
  C       -3.1225630    -1.1795470     0.9070330
  C       -3.7017300     0.1773150    -1.0087090
  C       -4.0153870    -0.8504980    -0.1174150
  H        4.0120030     1.4769520     0.5152690
  H        1.7375180     2.5038470     0.8013060
  H        2.0412640    -2.1246280    -0.7760920
  H        5.1157190    -1.1239590     0.5937180
  H        4.4318450    -2.1155640    -0.7023530
  H        5.1668890    -0.5502680    -1.0765200
  H       -1.2505984    -0.7179962     1.8027983
  H       -2.2288450     1.6771480    -1.5635320
  H       -3.3650020    -1.9773860     1.6048690
  H       -4.3932510     0.4394220    -1.8057380
  H       -4.9525670    -1.3919050    -0.2175730
units angstrom
no_reorient  #important for SAPT in psi4, default
symmetry c1  #important for SAPT in psi4, default
}

set PROPERTIES_ORIGIN ["COM"]
properties('MP2/aug-cc-pvtz', properties = ['dipole'])
--------------------------------------------------------------------------

    Molecular point group: c1
  Charge       = 0
  Multiplicity = 1
  Basis Set: AUG-CC-PVTZ
    Blend: AUG-CC-PVTZ
  Basis Set: (AUG-CC-PVTZ AUX)
    Blend: AUG-CC-PVTZ-JKFIT

    Orbital Energies [Eh]
    ---------------------

    Doubly Occupied:

       1A    -20.598617     2A    -15.563528     3A    -11.340818
       4A    -11.295222     5A    -11.277392     6A    -11.261512
       7A    -11.243290     8A    -11.241233     9A    -11.236548
      10A    -11.236261    11A    -11.232809    12A    -11.231001
      13A    -11.230128    14A    -11.226305    15A     -1.430797
      16A     -1.253571    17A     -1.145917    18A     -1.102703
      19A     -1.053056    20A     -1.016630    21A     -1.003970
      22A     -0.943039    23A     -0.877859    24A     -0.843569
      25A     -0.831358    26A     -0.801348    27A     -0.737638
      28A     -0.704946    29A     -0.682448    30A     -0.655944
      31A     -0.643577    32A     -0.628107    33A     -0.611319
      34A     -0.595719    35A     -0.592703    36A     -0.587559
      37A     -0.570334    38A     -0.563520    39A     -0.549627
      40A     -0.521214    41A     -0.514705    42A     -0.511568
      43A     -0.492778    44A     -0.477992    45A     -0.428360
      46A     -0.384569    47A     -0.335252    48A     -0.332223
      49A     -0.313520

  @DF-RHF Final Energy:  -590.33080640019966

   => Energetics <=

    Nuclear Repulsion Energy =            801.9650435421492602
    One-Electron Energy =               -2392.6834928321413827
    Two-Electron Energy =                1000.3876428897924598
    Total Energy =                       -590.3308064001996627
  Basis Set: (AUG-CC-PVTZ AUX)
    Blend: AUG-CC-PVTZ-RI
    Molecular point group: c1

    Geometry (in Angstrom), charge = 0, multiplicity = 1:

       Center              X                  Y                   Z               Mass
    ------------   -----------------  -----------------  -----------------  -----------------
         O           -0.442992927673     1.295471572456     0.296830273358    15.994914619570
         N            0.832699072327    -0.574563427544    -0.281290726642    14.003074004430
         C            3.254190072327    -0.444589427544    -0.162650726642    12.000000000000
         C            0.776719072327     0.679865572456     0.147693273358    12.000000000000
         C           -1.586673927673     0.509273572456     0.137279273358    12.000000000000
         C            3.148192072327     0.882032572456     0.287387273358    12.000000000000
         C            1.899653072327     1.462409572456     0.449950273358    12.000000000000
         C            2.060599072327    -1.114633427544    -0.426694726642    12.000000000000
         C            4.589711072327    -1.110325427544    -0.350008726642    12.000000000000
         C           -1.885496927673    -0.509076427544     1.041983273358    12.000000000000
         C           -2.462902927673     0.851823572456    -0.888330726642    12.000000000000
         C           -3.088387927673    -1.200551427544     0.903024273358    12.000000000000
         C           -3.667554927673     0.156310572456    -1.012717726642    12.000000000000
         C           -3.981211927673    -0.871502427544    -0.121423726642    12.000000000000
         H            4.046178072327     1.455947572456     0.511260273358     1.007825032230
         H            1.771693072327     2.482842572456     0.797297273358     1.007825032230
         H            2.075439072327    -2.145632427544    -0.780100726642     1.007825032230
         H            5.149894072327    -1.144963427544     0.589709273358     1.007825032230
         H            4.466020072327    -2.136568427544    -0.706361726642     1.007825032230
         H            5.201064072327    -0.571272427544    -1.080528726642     1.007825032230
         H           -1.216423327673    -0.739000627544     1.798789573358     1.007825032230
         H           -2.194669927673     1.656143572456    -1.567540726642     1.007825032230
         H           -3.330826927673    -1.998390427544     1.600860273358     1.007825032230
         H           -4.359075927673     0.418417572456    -1.809746726642     1.007825032230
         H           -4.918391927673    -1.412909427544    -0.221581726642     1.007825032230

  Basis Set: AUG-CC-PVTZ
    Blend: AUG-CC-PVTZ
  Basis Set: (AUG-CC-PVTZ AUX)
    Blend: AUG-CC-PVTZ-JKFIT
	 Reference Energy          =    -590.3308064001996627 [Eh]
	 Singles Energy            =      -0.0000000000000000 [Eh]
	 Same-Spin Energy          =      -0.6438813419561087 [Eh]
	 Opposite-Spin Energy      =      -1.9811715266671845 [Eh]
	 Correlation Energy        =      -2.6250528686232935 [Eh]
	 Total Energy              =    -592.9558592688229055 [Eh]

	 ================> DF-SCS-MP2 Energies <==================
	-----------------------------------------------------------
	 SCS Same-Spin Scale       =       0.3333333333333333 [-]
	 SCS Opposite-Spin Scale   =       1.2000000000000000 [-]
	 SCS Same-Spin Energy      =      -0.2146271139853695 [Eh]
	 SCS Opposite-Spin Energy  =      -2.3774058320006213 [Eh]
	 SCS Correlation Energy    =      -2.5920329459859910 [Eh]
	 SCS Total Energy          =    -592.9228393461856967 [Eh]
	-----------------------------------------------------------

  Dipole Moment: [D]
     X:     2.0260      Y:    -0.1822      Z:     0.1611     Total:     2.0406

*** Psi4 exiting successfully. Buy a developer a beer!
