                               Psi4 1.4a3.dev225

  ==> Input File <==

--------------------------------------------------------------------------
#psi4
#
memory 32 gb

molecule  {
0 1
  O       -0.4771680     1.3164760     0.3008390
  N        0.7985240    -0.5535590    -0.2772820
  C        3.2200150    -0.4235850    -0.1586420
  C        0.7425440     0.7008700     0.1517020
  C       -1.6208490     0.5302780     0.1412880
  C        3.1140170     0.9030370     0.2913960
  C        1.8654780     1.4834140     0.4539590
  C        2.0264240    -1.0936290    -0.4226860
  C        4.5555360    -1.0893210    -0.3460000
  C       -1.9196720    -0.4880720     1.0459920
  C       -2.4970780     0.8728280    -0.8843220
  C       -3.1225630    -1.1795470     0.9070330
  C       -3.7017300     0.1773150    -1.0087090
  C       -4.0153870    -0.8504980    -0.1174150
  H        4.0120030     1.4769520     0.5152690
  H        1.7375180     2.5038470     0.8013060
  H        2.0412640    -2.1246280    -0.7760920
  H        5.1413083    -1.1255413     0.6366445
  H        4.4318450    -2.1155640    -0.7023530
  H        5.1668890    -0.5502680    -1.0765200
  H       -1.2183070    -0.7290930     1.8393240
  H       -2.2288450     1.6771480    -1.5635320
  H       -3.3650020    -1.9773860     1.6048690
  H       -4.3932510     0.4394220    -1.8057380
  H       -4.9525670    -1.3919050    -0.2175730
units angstrom
no_reorient  #important for SAPT in psi4, default
symmetry c1  #important for SAPT in psi4, default
}

set PROPERTIES_ORIGIN ["COM"]
properties('MP2/aug-cc-pvtz', properties = ['dipole'])
--------------------------------------------------------------------------

    Molecular point group: c1
  Charge       = 0
  Multiplicity = 1
  Basis Set: AUG-CC-PVTZ
    Blend: AUG-CC-PVTZ
  Basis Set: (AUG-CC-PVTZ AUX)
    Blend: AUG-CC-PVTZ-JKFIT

    Orbital Energies [Eh]
    ---------------------

    Doubly Occupied:

       1A    -20.598761     2A    -15.563596     3A    -11.340983
       4A    -11.295761     5A    -11.277649     6A    -11.261616
       7A    -11.243626     8A    -11.241324     9A    -11.238699
      10A    -11.236823    11A    -11.236723    12A    -11.232173
      13A    -11.231435    14A    -11.230528    15A     -1.430907
      16A     -1.253696    17A     -1.145963    18A     -1.102448
      19A     -1.052825    20A     -1.015336    21A     -1.003543
      22A     -0.940163    23A     -0.877827    24A     -0.841626
      25A     -0.830574    26A     -0.800760    27A     -0.736951
      28A     -0.704713    29A     -0.679297    30A     -0.655579
      31A     -0.643221    32A     -0.626609    33A     -0.611201
      34A     -0.594997    35A     -0.590651    36A     -0.583805
      37A     -0.568433    38A     -0.562803    39A     -0.546711
      40A     -0.521568    41A     -0.513321    42A     -0.511562
      43A     -0.492780    44A     -0.477344    45A     -0.428357
      46A     -0.384503    47A     -0.335524    48A     -0.332398
      49A     -0.313626

  @DF-RHF Final Energy:  -590.32951017161042

   => Energetics <=

    Nuclear Repulsion Energy =            801.5019259077904508
    One-Electron Energy =               -2391.7802390493261555
    Two-Electron Energy =                 999.9488029699253957
    Total Energy =                       -590.3295101716104227
  Basis Set: (AUG-CC-PVTZ AUX)
    Blend: AUG-CC-PVTZ-RI
    Molecular point group: c1

    Geometry (in Angstrom), charge = 0, multiplicity = 1:

       Center              X                  Y                   Z               Mass
    ------------   -----------------  -----------------  -----------------  -----------------
         O           -0.443308101314     1.295540613053     0.296397637969    15.994914619570
         N            0.832383898686    -0.574494386947    -0.281723362031    14.003074004430
         C            3.253874898686    -0.444520386947    -0.163083362031    12.000000000000
         C            0.776403898686     0.679934613053     0.147260637969    12.000000000000
         C           -1.586989101314     0.509342613053     0.136846637969    12.000000000000
         C            3.147876898686     0.882101613053     0.286954637969    12.000000000000
         C            1.899337898686     1.462478613053     0.449517637969    12.000000000000
         C            2.060283898686    -1.114564386947    -0.427127362031    12.000000000000
         C            4.589395898686    -1.110256386947    -0.350441362031    12.000000000000
         C           -1.885812101314    -0.509007386947     1.041550637969    12.000000000000
         C           -2.463218101314     0.851892613053    -0.888763362031    12.000000000000
         C           -3.088703101314    -1.200482386947     0.902591637969    12.000000000000
         C           -3.667870101314     0.156379613053    -1.013150362031    12.000000000000
         C           -3.981527101314    -0.871433386947    -0.121856362031    12.000000000000
         H            4.045862898686     1.456016613053     0.510827637969     1.007825032230
         H            1.771377898686     2.482911613053     0.796864637969     1.007825032230
         H            2.075123898686    -2.145563386947    -0.780533362031     1.007825032230
         H            5.175168198686    -1.146476686947     0.632203137969     1.007825032230
         H            4.465704898686    -2.136499386947    -0.706794362031     1.007825032230
         H            5.200748898686    -0.571203386947    -1.080961362031     1.007825032230
         H           -1.184447101314    -0.750028386947     1.834882637969     1.007825032230
         H           -2.194985101314     1.656212613053    -1.567973362031     1.007825032230
         H           -3.331142101314    -1.998321386947     1.600427637969     1.007825032230
         H           -4.359391101314     0.418486613053    -1.810179362031     1.007825032230
         H           -4.918707101314    -1.412840386947    -0.222014362031     1.007825032230

  Basis Set: AUG-CC-PVTZ
    Blend: AUG-CC-PVTZ
  Basis Set: (AUG-CC-PVTZ AUX)
    Blend: AUG-CC-PVTZ-JKFIT
	 Reference Energy          =    -590.3295101716104227 [Eh]
	 Singles Energy            =      -0.0000000000000000 [Eh]
	 Same-Spin Energy          =      -0.6439807908044866 [Eh]
	 Opposite-Spin Energy      =      -1.9817831410700997 [Eh]
	 Correlation Energy        =      -2.6257639318745865 [Eh]
	 Total Energy              =    -592.9552741034849532 [Eh]

	 ================> DF-SCS-MP2 Energies <==================
	-----------------------------------------------------------
	 SCS Same-Spin Scale       =       0.3333333333333333 [-]
	 SCS Opposite-Spin Scale   =       1.2000000000000000 [-]
	 SCS Same-Spin Energy      =      -0.2146602636014955 [Eh]
	 SCS Opposite-Spin Energy  =      -2.3781397692841195 [Eh]
	 SCS Correlation Energy    =      -2.5928000328856151 [Eh]
	 SCS Total Energy          =    -592.9223102044960569 [Eh]
	-----------------------------------------------------------

  Dipole Moment: [D]
     X:     1.9879      Y:    -0.1762      Z:     0.1417     Total:     2.0008

*** Psi4 exiting successfully. Buy a developer a beer!
