                               Psi4 1.4a3.dev225

  ==> Input File <==

--------------------------------------------------------------------------
#psi4
#
memory 32 gb

molecule  {
0 1
  O       -0.4771680     1.3164760     0.3008390
  N        0.7985240    -0.5535590    -0.2772820
  C        3.2200150    -0.4235850    -0.1586420
  C        0.7425440     0.7008700     0.1517020
  C       -1.6208490     0.5302780     0.1412880
  C        3.1140170     0.9030370     0.2913960
  C        1.8654780     1.4834140     0.4539590
  C        2.0264240    -1.0936290    -0.4226860
  C        4.5555360    -1.0893210    -0.3460000
  C       -1.9196720    -0.4880720     1.0459920
  C       -2.4970780     0.8728280    -0.8843220
  C       -3.1225630    -1.1795470     0.9070330
  C       -3.7017300     0.1773150    -1.0087090
  C       -4.0153870    -0.8504980    -0.1174150
  H        4.0120030     1.4769520     0.5152690
  H        1.7375180     2.5038470     0.8013060
  H        2.0412640    -2.1246280    -0.7760920
  H        5.1157190    -1.1239590     0.5937180
  H        4.4318450    -2.1155640    -0.7023530
  H        5.0551781    -0.6487677    -0.9430341
  H       -1.2183070    -0.7290930     1.8393240
  H       -2.2288450     1.6771480    -1.5635320
  H       -3.3650020    -1.9773860     1.6048690
  H       -4.3932510     0.4394220    -1.8057380
  H       -4.9525670    -1.3919050    -0.2175730
units angstrom
no_reorient  #important for SAPT in psi4, default
symmetry c1  #important for SAPT in psi4, default
}

set PROPERTIES_ORIGIN ["COM"]
properties('MP2/aug-cc-pvtz', properties = ['dipole'])
--------------------------------------------------------------------------

    Molecular point group: c1
  Charge       = 0
  Multiplicity = 1
  Basis Set: AUG-CC-PVTZ
    Blend: AUG-CC-PVTZ
  Basis Set: (AUG-CC-PVTZ AUX)
    Blend: AUG-CC-PVTZ-JKFIT

    Orbital Energies [Eh]
    ---------------------

    Doubly Occupied:

       1A    -20.598156     2A    -15.562931     3A    -11.340158
       4A    -11.295408     5A    -11.276505     6A    -11.261087
       7A    -11.242083     8A    -11.240750     9A    -11.236531
      10A    -11.236430    11A    -11.231833    12A    -11.231109
      13A    -11.230231    14A    -11.208155    15A     -1.430333
      16A     -1.252973    17A     -1.145639    18A     -1.105094
      19A     -1.055632    20A     -1.015105    21A     -1.006370
      22A     -0.959177    23A     -0.877435    24A     -0.845355
      25A     -0.831063    26A     -0.801705    27A     -0.736512
      28A     -0.705706    29A     -0.678890    30A     -0.655232
      31A     -0.646517    32A     -0.626819    33A     -0.619191
      34A     -0.605736    35A     -0.593792    36A     -0.589090
      37A     -0.575906    38A     -0.563236    39A     -0.552063
      40A     -0.519946    41A     -0.514752    42A     -0.511473
      43A     -0.492460    44A     -0.477930    45A     -0.427875
      46A     -0.384491    47A     -0.335244    48A     -0.332404
      49A     -0.313573

  @DF-RHF Final Energy:  -590.29767917917150

   => Energetics <=

    Nuclear Repulsion Energy =            802.7357167650811789
    One-Electron Energy =               -2394.1146210495239757
    Two-Electron Energy =                1001.0812251052713009
    Total Energy =                       -590.2976791791714959
  Basis Set: (AUG-CC-PVTZ AUX)
    Blend: AUG-CC-PVTZ-RI
    Molecular point group: c1

    Geometry (in Angstrom), charge = 0, multiplicity = 1:

       Center              X                  Y                   Z               Mass
    ------------   -----------------  -----------------  -----------------  -----------------
         O           -0.442560470343     1.296068350448     0.295904521337    15.994914619570
         N            0.833131529657    -0.573966649552    -0.282216478663    14.003074004430
         C            3.254622529657    -0.443992649552    -0.163576478663    12.000000000000
         C            0.777151529657     0.680462350448     0.146767521337    12.000000000000
         C           -1.586241470343     0.509870350448     0.136353521337    12.000000000000
         C            3.148624529657     0.882629350448     0.286461521337    12.000000000000
         C            1.900085529657     1.463006350448     0.449024521337    12.000000000000
         C            2.061031529657    -1.114036649552    -0.427620478663    12.000000000000
         C            4.590143529657    -1.109728649552    -0.350934478663    12.000000000000
         C           -1.885064470343    -0.508479649552     1.041057521337    12.000000000000
         C           -2.462470470343     0.852420350448    -0.889256478663    12.000000000000
         C           -3.087955470343    -1.199954649552     0.902098521337    12.000000000000
         C           -3.667122470343     0.156907350448    -1.013643478663    12.000000000000
         C           -3.980779470343    -0.870905649552    -0.122349478663    12.000000000000
         H            4.046610529657     1.456544350448     0.510334521337     1.007825032230
         H            1.772125529657     2.483439350448     0.796371521337     1.007825032230
         H            2.075871529657    -2.145035649552    -0.781026478663     1.007825032230
         H            5.150326529657    -1.144366649552     0.588783521337     1.007825032230
         H            4.466452529657    -2.135971649552    -0.707287478663     1.007825032230
         H            5.089785629657    -0.669175349552    -0.947968578663     1.007825032230
         H           -1.183699470343    -0.749500649552     1.834389521337     1.007825032230
         H           -2.194237470343     1.656740350448    -1.568466478663     1.007825032230
         H           -3.330394470343    -1.997793649552     1.599934521337     1.007825032230
         H           -4.358643470343     0.419014350448    -1.810672478663     1.007825032230
         H           -4.917959470343    -1.412312649552    -0.222507478663     1.007825032230

  Basis Set: AUG-CC-PVTZ
    Blend: AUG-CC-PVTZ
  Basis Set: (AUG-CC-PVTZ AUX)
    Blend: AUG-CC-PVTZ-JKFIT
	 Reference Energy          =    -590.2976791791714959 [Eh]
	 Singles Energy            =      -0.0000000000000000 [Eh]
	 Same-Spin Energy          =      -0.6441539158766121 [Eh]
	 Opposite-Spin Energy      =      -1.9809048289292110 [Eh]
	 Correlation Energy        =      -2.6250587448058234 [Eh]
	 Total Energy              =    -592.9227379239773654 [Eh]

	 ================> DF-SCS-MP2 Energies <==================
	-----------------------------------------------------------
	 SCS Same-Spin Scale       =       0.3333333333333333 [-]
	 SCS Opposite-Spin Scale   =       1.2000000000000000 [-]
	 SCS Same-Spin Energy      =      -0.2147179719588707 [Eh]
	 SCS Opposite-Spin Energy  =      -2.3770857947150530 [Eh]
	 SCS Correlation Energy    =      -2.5918037666739235 [Eh]
	 SCS Total Energy          =    -592.8894829458454296 [Eh]
	-----------------------------------------------------------

  Dipole Moment: [D]
     X:     2.0855      Y:    -0.1797      Z:     0.1242     Total:     2.0969

*** Psi4 exiting successfully. Buy a developer a beer!
