                               Psi4 1.4a3.dev225

  ==> Input File <==

--------------------------------------------------------------------------
#psi4
#
memory 32 gb

molecule  {
0 1
  O       -0.4771680     1.3164760     0.3008390
  N        0.7985240    -0.5535590    -0.2772820
  C        3.2148482    -0.4273006    -0.1841077
  C        0.7425440     0.7008700     0.1517020
  C       -1.6208490     0.5302780     0.1412880
  C        3.1140170     0.9030370     0.2913960
  C        1.8654780     1.4834140     0.4539590
  C        2.0264240    -1.0936290    -0.4226860
  C        4.5555360    -1.0893210    -0.3460000
  C       -1.9196720    -0.4880720     1.0459920
  C       -2.4970780     0.8728280    -0.8843220
  C       -3.1225630    -1.1795470     0.9070330
  C       -3.7017300     0.1773150    -1.0087090
  C       -4.0153870    -0.8504980    -0.1174150
  H        4.0120030     1.4769520     0.5152690
  H        1.7375180     2.5038470     0.8013060
  H        2.0412640    -2.1246280    -0.7760920
  H        5.1157190    -1.1239590     0.5937180
  H        4.4318450    -2.1155640    -0.7023530
  H        5.1668890    -0.5502680    -1.0765200
  H       -1.2183070    -0.7290930     1.8393240
  H       -2.2288450     1.6771480    -1.5635320
  H       -3.3650020    -1.9773860     1.6048690
  H       -4.3932510     0.4394220    -1.8057380
  H       -4.9525670    -1.3919050    -0.2175730
units angstrom
no_reorient  #important for SAPT in psi4, default
symmetry c1  #important for SAPT in psi4, default
}

set PROPERTIES_ORIGIN ["COM"]
properties('MP2/aug-cc-pvtz', properties = ['dipole'])
--------------------------------------------------------------------------

    Molecular point group: c1
  Charge       = 0
  Multiplicity = 1
  Basis Set: AUG-CC-PVTZ
    Blend: AUG-CC-PVTZ
  Basis Set: (AUG-CC-PVTZ AUX)
    Blend: AUG-CC-PVTZ-JKFIT

    Orbital Energies [Eh]
    ---------------------

    Doubly Occupied:

       1A    -20.598908     2A    -15.562739     3A    -11.341187
       4A    -11.295726     5A    -11.275327     6A    -11.262990
       7A    -11.242968     8A    -11.241632     9A    -11.236752
      10A    -11.236651    11A    -11.232673    12A    -11.232119
      13A    -11.231401    14A    -11.230475    15A     -1.430987
      16A     -1.253391    17A     -1.145917    18A     -1.101404
      19A     -1.053839    20A     -1.015281    21A     -1.003914
      22A     -0.943122    23A     -0.877933    24A     -0.841654
      25A     -0.830414    26A     -0.801351    27A     -0.736832
      28A     -0.704909    29A     -0.679117    30A     -0.655589
      31A     -0.642993    32A     -0.626429    33A     -0.611241
      34A     -0.595060    35A     -0.592076    36A     -0.586108
      37A     -0.569531    38A     -0.564624    39A     -0.549919
      40A     -0.518462    41A     -0.513513    42A     -0.511473
      43A     -0.492763    44A     -0.477708    45A     -0.428608
      46A     -0.383487    47A     -0.335529    48A     -0.332777
      49A     -0.314355

  @DF-RHF Final Energy:  -590.33136759604906

   => Energetics <=

    Nuclear Repulsion Energy =            801.7281086229675111
    One-Electron Energy =               -2392.2312282264006171
    Two-Electron Energy =                1000.1717520073840433
    Total Energy =                       -590.3313675960490627
  Basis Set: (AUG-CC-PVTZ AUX)
    Blend: AUG-CC-PVTZ-RI
    Molecular point group: c1

    Geometry (in Angstrom), charge = 0, multiplicity = 1:

       Center              X                  Y                   Z               Mass
    ------------   -----------------  -----------------  -----------------  -----------------
         O           -0.442833770163     1.295772899494     0.298282461512    15.994914619570
         N            0.832858229837    -0.574262100506    -0.279838538488    14.003074004430
         C            3.249182429837    -0.448003700506    -0.186664238488    12.000000000000
         C            0.776878229837     0.680166899494     0.149145461512    12.000000000000
         C           -1.586514770163     0.509574899494     0.138731461512    12.000000000000
         C            3.148351229837     0.882333899494     0.288839461512    12.000000000000
         C            1.899812229837     1.462710899494     0.451402461512    12.000000000000
         C            2.060758229837    -1.114332100506    -0.425242538488    12.000000000000
         C            4.589870229837    -1.110024100506    -0.348556538488    12.000000000000
         C           -1.885337770163    -0.508775100506     1.043435461512    12.000000000000
         C           -2.462743770163     0.852124899494    -0.886878538488    12.000000000000
         C           -3.088228770163    -1.200250100506     0.904476461512    12.000000000000
         C           -3.667395770163     0.156611899494    -1.011265538488    12.000000000000
         C           -3.981052770163    -0.871201100506    -0.119971538488    12.000000000000
         H            4.046337229837     1.456248899494     0.512712461512     1.007825032230
         H            1.771852229837     2.483143899494     0.798749461512     1.007825032230
         H            2.075598229837    -2.145331100506    -0.778648538488     1.007825032230
         H            5.150053229837    -1.144662100506     0.591161461512     1.007825032230
         H            4.466179229837    -2.136267100506    -0.704909538488     1.007825032230
         H            5.201223229837    -0.570971100506    -1.079076538488     1.007825032230
         H           -1.183972770163    -0.749796100506     1.836767461512     1.007825032230
         H           -2.194510770163     1.656444899494    -1.566088538488     1.007825032230
         H           -3.330667770163    -1.998089100506     1.602312461512     1.007825032230
         H           -4.358916770163     0.418718899494    -1.808294538488     1.007825032230
         H           -4.918232770163    -1.412608100506    -0.220129538488     1.007825032230

  Basis Set: AUG-CC-PVTZ
    Blend: AUG-CC-PVTZ
  Basis Set: (AUG-CC-PVTZ AUX)
    Blend: AUG-CC-PVTZ-JKFIT
	 Reference Energy          =    -590.3313675960490627 [Eh]
	 Singles Energy            =      -0.0000000000000000 [Eh]
	 Same-Spin Energy          =      -0.6438733494867943 [Eh]
	 Opposite-Spin Energy      =      -1.9814082258825021 [Eh]
	 Correlation Energy        =      -2.6252815753692964 [Eh]
	 Total Energy              =    -592.9566491714183485 [Eh]

	 ================> DF-SCS-MP2 Energies <==================
	-----------------------------------------------------------
	 SCS Same-Spin Scale       =       0.3333333333333333 [-]
	 SCS Opposite-Spin Scale   =       1.2000000000000000 [-]
	 SCS Same-Spin Energy      =      -0.2146244498289314 [Eh]
	 SCS Opposite-Spin Energy  =      -2.3776898710590024 [Eh]
	 SCS Correlation Energy    =      -2.5923143208879340 [Eh]
	 SCS Total Energy          =    -592.9236819169369710 [Eh]
	-----------------------------------------------------------

  Dipole Moment: [D]
     X:     2.0111      Y:    -0.1678      Z:     0.1697     Total:     2.0252

*** Psi4 exiting successfully. Buy a developer a beer!
