                               Psi4 1.4a3.dev225

  ==> Input File <==

--------------------------------------------------------------------------
#psi4
#
memory 32 gb

molecule  {
0 1
  O       -0.4771680     1.3164760     0.3008390
  N        0.7985240    -0.5535590    -0.2772820
  C        3.2200150    -0.4235850    -0.1586420
  C        0.7425440     0.7008700     0.1517020
  C       -1.6208490     0.5302780     0.1412880
  C        3.1140170     0.9030370     0.2913960
  C        1.8654780     1.4834140     0.4539590
  C        2.0264240    -1.0936290    -0.4226860
  C        4.5111361    -1.0671884    -0.3397712
  C       -1.9196720    -0.4880720     1.0459920
  C       -2.4970780     0.8728280    -0.8843220
  C       -3.1225630    -1.1795470     0.9070330
  C       -3.7017300     0.1773150    -1.0087090
  C       -4.0153870    -0.8504980    -0.1174150
  H        4.0120030     1.4769520     0.5152690
  H        1.7375180     2.5038470     0.8013060
  H        2.0412640    -2.1246280    -0.7760920
  H        5.1157190    -1.1239590     0.5937180
  H        4.4318450    -2.1155640    -0.7023530
  H        5.1668890    -0.5502680    -1.0765200
  H       -1.2183070    -0.7290930     1.8393240
  H       -2.2288450     1.6771480    -1.5635320
  H       -3.3650020    -1.9773860     1.6048690
  H       -4.3932510     0.4394220    -1.8057380
  H       -4.9525670    -1.3919050    -0.2175730
units angstrom
no_reorient  #important for SAPT in psi4, default
symmetry c1  #important for SAPT in psi4, default
}

set PROPERTIES_ORIGIN ["COM"]
properties('MP2/aug-cc-pvtz', properties = ['dipole'])
--------------------------------------------------------------------------

    Molecular point group: c1
  Charge       = 0
  Multiplicity = 1
  Basis Set: AUG-CC-PVTZ
    Blend: AUG-CC-PVTZ
  Basis Set: (AUG-CC-PVTZ AUX)
    Blend: AUG-CC-PVTZ-JKFIT

    Orbital Energies [Eh]
    ---------------------

    Doubly Occupied:

       1A    -20.598853     2A    -15.563623     3A    -11.341099
       4A    -11.295807     5A    -11.277514     6A    -11.261661
       7A    -11.241528     8A    -11.240914     9A    -11.236855
      10A    -11.236755    11A    -11.234439    12A    -11.232216
      13A    -11.231474    14A    -11.230561    15A     -1.430992
      16A     -1.254012    17A     -1.146025    18A     -1.107067
      19A     -1.055626    20A     -1.015399    21A     -1.004644
      22A     -0.941628    23A     -0.878522    24A     -0.841339
      25A     -0.830544    26A     -0.801091    27A     -0.737092
      28A     -0.705638    29A     -0.679646    30A     -0.655761
      31A     -0.648931    32A     -0.626792    33A     -0.611737
      34A     -0.595282    35A     -0.591492    36A     -0.584764
      37A     -0.567393    38A     -0.565911    39A     -0.544000
      40A     -0.524282    41A     -0.512527    42A     -0.511335
      43A     -0.492887    44A     -0.476840    45A     -0.428603
      46A     -0.384332    47A     -0.335526    48A     -0.332001
      49A     -0.313168

  @DF-RHF Final Energy:  -590.32824248218674

   => Energetics <=

    Nuclear Repulsion Energy =            802.6449793759885551
    One-Electron Energy =               -2394.0341897057405731
    Two-Electron Energy =                1001.0609678475653936
    Total Energy =                       -590.3282424821867380
  Basis Set: (AUG-CC-PVTZ AUX)
    Blend: AUG-CC-PVTZ-RI
    Molecular point group: c1

    Geometry (in Angstrom), charge = 0, multiplicity = 1:

       Center              X                  Y                   Z               Mass
    ------------   -----------------  -----------------  -----------------  -----------------
         O           -0.440290076287     1.294097021013     0.296227535810    15.994914619570
         N            0.835401923713    -0.575937978987    -0.281893464190    14.003074004430
         C            3.256892923713    -0.445963978987    -0.163253464190    12.000000000000
         C            0.779421923713     0.678491021013     0.147090535810    12.000000000000
         C           -1.583971076287     0.507899021013     0.136676535810    12.000000000000
         C            3.150894923713     0.880658021013     0.286784535810    12.000000000000
         C            1.902355923713     1.461035021013     0.449347535810    12.000000000000
         C            2.063301923713    -1.116007978987    -0.427297464190    12.000000000000
         C            4.548014023713    -1.089567378987    -0.344382664190    12.000000000000
         C           -1.882794076287    -0.510450978987     1.041380535810    12.000000000000
         C           -2.460200076287     0.850449021013    -0.888933464190    12.000000000000
         C           -3.085685076287    -1.201925978987     0.902421535810    12.000000000000
         C           -3.664852076287     0.154936021013    -1.013320464190    12.000000000000
         C           -3.978509076287    -0.872876978987    -0.122026464190    12.000000000000
         H            4.048880923713     1.454573021013     0.510657535810     1.007825032230
         H            1.774395923713     2.481468021013     0.796694535810     1.007825032230
         H            2.078141923713    -2.147006978987    -0.780703464190     1.007825032230
         H            5.152596923713    -1.146337978987     0.589106535810     1.007825032230
         H            4.468722923713    -2.137942978987    -0.706964464190     1.007825032230
         H            5.203766923713    -0.572646978987    -1.081131464190     1.007825032230
         H           -1.181429076287    -0.751471978987     1.834712535810     1.007825032230
         H           -2.191967076287     1.654769021013    -1.568143464190     1.007825032230
         H           -3.328124076287    -1.999764978987     1.600257535810     1.007825032230
         H           -4.356373076287     0.417043021013    -1.810349464190     1.007825032230
         H           -4.915689076287    -1.414283978987    -0.222184464190     1.007825032230

  Basis Set: AUG-CC-PVTZ
    Blend: AUG-CC-PVTZ
  Basis Set: (AUG-CC-PVTZ AUX)
    Blend: AUG-CC-PVTZ-JKFIT
	 Reference Energy          =    -590.3282424821867380 [Eh]
	 Singles Energy            =      -0.0000000000000000 [Eh]
	 Same-Spin Energy          =      -0.6445225749255242 [Eh]
	 Opposite-Spin Energy      =      -1.9820506301468368 [Eh]
	 Correlation Energy        =      -2.6265732050723609 [Eh]
	 Total Energy              =    -592.9548156872590425 [Eh]

	 ================> DF-SCS-MP2 Energies <==================
	-----------------------------------------------------------
	 SCS Same-Spin Scale       =       0.3333333333333333 [-]
	 SCS Opposite-Spin Scale   =       1.2000000000000000 [-]
	 SCS Same-Spin Energy      =      -0.2148408583085081 [Eh]
	 SCS Opposite-Spin Energy  =      -2.3784607561762039 [Eh]
	 SCS Correlation Energy    =      -2.5933016144847119 [Eh]
	 SCS Total Energy          =    -592.9215440966714823 [Eh]
	-----------------------------------------------------------

  Dipole Moment: [D]
     X:     2.0066      Y:    -0.1782      Z:     0.1580     Total:     2.0207

*** Psi4 exiting successfully. Buy a developer a beer!
