                               Psi4 1.4a3.dev225

  ==> Input File <==

--------------------------------------------------------------------------
#psi4
#
memory 32 gb

molecule  {
0 1
  O       -0.4771680     1.3164760     0.3008390
  N        0.7985240    -0.5535590    -0.2772820
  C        3.2200150    -0.4235850    -0.1586420
  C        0.7425440     0.7008700     0.1517020
  C       -1.6208490     0.5302780     0.1412880
  C        3.1140170     0.9030370     0.2913960
  C        1.8654780     1.4834140     0.4539590
  C        2.0264240    -1.0936290    -0.4226860
  C        4.5555360    -1.0893210    -0.3460000
  C       -1.9196720    -0.4880720     1.0459920
  C       -2.4970780     0.8728280    -0.8843220
  C       -3.1225630    -1.1795470     0.9070330
  C       -3.7017300     0.1773150    -1.0087090
  C       -4.0153870    -0.8504980    -0.1174150
  H        4.0120030     1.4769520     0.5152690
  H        1.7375180     2.5038470     0.8013060
  H        2.0412640    -2.1246280    -0.7760920
  H        5.1157190    -1.1239590     0.5937180
  H        4.4375014    -2.0686338    -0.6860569
  H        5.1668890    -0.5502680    -1.0765200
  H       -1.2183070    -0.7290930     1.8393240
  H       -2.2288450     1.6771480    -1.5635320
  H       -3.3650020    -1.9773860     1.6048690
  H       -4.3932510     0.4394220    -1.8057380
  H       -4.9525670    -1.3919050    -0.2175730
units angstrom
no_reorient  #important for SAPT in psi4, default
symmetry c1  #important for SAPT in psi4, default
}

set PROPERTIES_ORIGIN ["COM"]
properties('MP2/aug-cc-pvtz', properties = ['dipole'])
--------------------------------------------------------------------------

    Molecular point group: c1
  Charge       = 0
  Multiplicity = 1
  Basis Set: AUG-CC-PVTZ
    Blend: AUG-CC-PVTZ
  Basis Set: (AUG-CC-PVTZ AUX)
    Blend: AUG-CC-PVTZ-JKFIT

    Orbital Energies [Eh]
    ---------------------

    Doubly Occupied:

       1A    -20.598472     2A    -15.563296     3A    -11.340570
       4A    -11.295600     5A    -11.277193     6A    -11.261072
       7A    -11.242811     8A    -11.240974     9A    -11.236693
      10A    -11.236593    11A    -11.232024    12A    -11.231284
      13A    -11.230396    14A    -11.226657    15A     -1.430629
      16A     -1.253343    17A     -1.145816    18A     -1.102797
      19A     -1.053552    20A     -1.015214    21A     -1.004242
      22A     -0.945991    23A     -0.877547    24A     -0.842944
      25A     -0.830825    26A     -0.800838    27A     -0.736784
      28A     -0.704735    29A     -0.679414    30A     -0.655422
      31A     -0.644651    32A     -0.626600    33A     -0.610911
      34A     -0.595782    35A     -0.591921    36A     -0.585921
      37A     -0.569444    38A     -0.563124    39A     -0.555852
      40A     -0.522492    41A     -0.513461    42A     -0.511730
      43A     -0.492637    44A     -0.477478    45A     -0.428086
      46A     -0.384234    47A     -0.335386    48A     -0.332252
      49A     -0.313467

  @DF-RHF Final Energy:  -590.33062838687033

   => Energetics <=

    Nuclear Repulsion Energy =            801.9365875169609126
    One-Electron Energy =               -2392.6361212916322074
    Two-Electron Energy =                1000.3689053878008508
    Total Energy =                       -590.3306283868703304
  Basis Set: (AUG-CC-PVTZ AUX)
    Blend: AUG-CC-PVTZ-RI
    Molecular point group: c1

    Geometry (in Angstrom), charge = 0, multiplicity = 1:

       Center              X                  Y                   Z               Mass
    ------------   -----------------  -----------------  -----------------  -----------------
         O           -0.443199562117     1.295276451402     0.296542646583    15.994914619570
         N            0.832492437883    -0.574758548598    -0.281578353417    14.003074004430
         C            3.253983437883    -0.444784548598    -0.162938353417    12.000000000000
         C            0.776512437883     0.679670451402     0.147405646583    12.000000000000
         C           -1.586880562117     0.509078451402     0.136991646583    12.000000000000
         C            3.147985437883     0.881837451402     0.287099646583    12.000000000000
         C            1.899446437883     1.462214451402     0.449662646583    12.000000000000
         C            2.060392437883    -1.114828548598    -0.426982353417    12.000000000000
         C            4.589504437883    -1.110520548598    -0.350296353417    12.000000000000
         C           -1.885703562117    -0.509271548598     1.041695646583    12.000000000000
         C           -2.463109562117     0.851628451402    -0.888618353417    12.000000000000
         C           -3.088594562117    -1.200746548598     0.902736646583    12.000000000000
         C           -3.667761562117     0.156115451402    -1.013005353417    12.000000000000
         C           -3.981418562117    -0.871697548598    -0.121711353417    12.000000000000
         H            4.045971437883     1.455752451402     0.510972646583     1.007825032230
         H            1.771486437883     2.482647451402     0.797009646583     1.007825032230
         H            2.075232437883    -2.145827548598    -0.780388353417     1.007825032230
         H            5.149687437883    -1.145158548598     0.589421646583     1.007825032230
         H            4.471469837883    -2.089833348598    -0.690353253417     1.007825032230
         H            5.200857437883    -0.571467548598    -1.080816353417     1.007825032230
         H           -1.184338562117    -0.750292548598     1.835027646583     1.007825032230
         H           -2.194876562117     1.655948451402    -1.567828353417     1.007825032230
         H           -3.331033562117    -1.998585548598     1.600572646583     1.007825032230
         H           -4.359282562117     0.418222451402    -1.810034353417     1.007825032230
         H           -4.918598562117    -1.413104548598    -0.221869353417     1.007825032230

  Basis Set: AUG-CC-PVTZ
    Blend: AUG-CC-PVTZ
  Basis Set: (AUG-CC-PVTZ AUX)
    Blend: AUG-CC-PVTZ-JKFIT
	 Reference Energy          =    -590.3306283868703304 [Eh]
	 Singles Energy            =      -0.0000000000000000 [Eh]
	 Same-Spin Energy          =      -0.6439890811709816 [Eh]
	 Opposite-Spin Energy      =      -1.9811654951807869 [Eh]
	 Correlation Energy        =      -2.6251545763517683 [Eh]
	 Total Energy              =    -592.9557829632220773 [Eh]

	 ================> DF-SCS-MP2 Energies <==================
	-----------------------------------------------------------
	 SCS Same-Spin Scale       =       0.3333333333333333 [-]
	 SCS Opposite-Spin Scale   =       1.2000000000000000 [-]
	 SCS Same-Spin Energy      =      -0.2146630270569939 [Eh]
	 SCS Opposite-Spin Energy  =      -2.3773985942169440 [Eh]
	 SCS Correlation Energy    =      -2.5920616212739378 [Eh]
	 SCS Total Energy          =    -592.9226900081442864 [Eh]
	-----------------------------------------------------------

  Dipole Moment: [D]
     X:     2.0285      Y:    -0.2064      Z:     0.1488     Total:     2.0444

*** Psi4 exiting successfully. Buy a developer a beer!
