                               Psi4 1.4a3.dev225

  ==> Input File <==

--------------------------------------------------------------------------
#psi4
#
memory 32 gb

molecule  {
0 1
  O       -0.4771680     1.3164760     0.3008390
  N        0.7985240    -0.5535590    -0.2772820
  C        3.2200150    -0.4235850    -0.1586420
  C        0.7425440     0.7008700     0.1517020
  C       -1.6208490     0.5302780     0.1412880
  C        3.1140170     0.9030370     0.2913960
  C        1.8654780     1.4834140     0.4539590
  C        2.0264240    -1.0936290    -0.4226860
  C        4.5555360    -1.0893210    -0.3460000
  C       -1.9196720    -0.4880720     1.0459920
  C       -2.4970780     0.8728280    -0.8843220
  C       -3.1225630    -1.1795470     0.9070330
  C       -3.7448591     0.1524142    -1.0131623
  C       -4.0153870    -0.8504980    -0.1174150
  H        4.0120030     1.4769520     0.5152690
  H        1.7375180     2.5038470     0.8013060
  H        2.0412640    -2.1246280    -0.7760920
  H        5.1157190    -1.1239590     0.5937180
  H        4.4318450    -2.1155640    -0.7023530
  H        5.1668890    -0.5502680    -1.0765200
  H       -1.2183070    -0.7290930     1.8393240
  H       -2.2288450     1.6771480    -1.5635320
  H       -3.3650020    -1.9773860     1.6048690
  H       -4.3932510     0.4394220    -1.8057380
  H       -4.9525670    -1.3919050    -0.2175730
units angstrom
no_reorient  #important for SAPT in psi4, default
symmetry c1  #important for SAPT in psi4, default
}

set PROPERTIES_ORIGIN ["COM"]
properties('MP2/aug-cc-pvtz', properties = ['dipole'])
--------------------------------------------------------------------------

    Molecular point group: c1
  Charge       = 0
  Multiplicity = 1
  Basis Set: AUG-CC-PVTZ
    Blend: AUG-CC-PVTZ
  Basis Set: (AUG-CC-PVTZ AUX)
    Blend: AUG-CC-PVTZ-JKFIT

    Orbital Energies [Eh]
    ---------------------

    Doubly Occupied:

       1A    -20.598378     2A    -15.563417     3A    -11.340601
       4A    -11.295266     5A    -11.277268     6A    -11.261388
       7A    -11.243187     8A    -11.241106     9A    -11.237249
      10A    -11.237019    11A    -11.235482    12A    -11.233315
      13A    -11.232735    14A    -11.228623    15A     -1.430525
      16A     -1.253414    17A     -1.143731    18A     -1.102587
      19A     -1.053490    20A     -1.011814    21A     -1.005174
      22A     -0.942702    23A     -0.877239    24A     -0.842471
      25A     -0.832952    26A     -0.799417    27A     -0.737613
      28A     -0.704634    29A     -0.678306    30A     -0.654297
      31A     -0.643441    32A     -0.629767    33A     -0.611824
      34A     -0.596660    35A     -0.592914    36A     -0.584649
      37A     -0.567895    38A     -0.563361    39A     -0.549334
      40A     -0.521010    41A     -0.517262    42A     -0.504247
      43A     -0.493161    44A     -0.479184    45A     -0.428122
      46A     -0.384414    47A     -0.335607    48A     -0.329091
      49A     -0.315425

  @DF-RHF Final Energy:  -590.32853806001651

   => Energetics <=

    Nuclear Repulsion Energy =            801.0765328280382391
    One-Electron Energy =               -2390.9246075713945174
    Two-Electron Energy =                 999.5195366833398793
    Total Energy =                       -590.3285380600165126
  Basis Set: (AUG-CC-PVTZ AUX)
    Blend: AUG-CC-PVTZ-RI
    Molecular point group: c1

    Geometry (in Angstrom), charge = 0, multiplicity = 1:

       Center              X                  Y                   Z               Mass
    ------------   -----------------  -----------------  -----------------  -----------------
         O           -0.440372469118     1.297146450487     0.296920114076    15.994914619570
         N            0.835319530882    -0.572888549513    -0.281200885924    14.003074004430
         C            3.256810530882    -0.442914549513    -0.162560885924    12.000000000000
         C            0.779339530882     0.681540450487     0.147783114076    12.000000000000
         C           -1.584053469118     0.510948450487     0.137369114076    12.000000000000
         C            3.150812530882     0.883707450487     0.287477114076    12.000000000000
         C            1.902273530882     1.464084450487     0.450040114076    12.000000000000
         C            2.063219530882    -1.112958549513    -0.426604885924    12.000000000000
         C            4.592331530882    -1.108650549513    -0.349918885924    12.000000000000
         C           -1.882876469118    -0.507401549513     1.042073114076    12.000000000000
         C           -2.460282469118     0.853498450487    -0.888240885924    12.000000000000
         C           -3.085767469118    -1.198876549513     0.903114114076    12.000000000000
         C           -3.708063569118     0.133084650487    -1.017081185924    12.000000000000
         C           -3.978591469118    -0.869827549513    -0.121333885924    12.000000000000
         H            4.048798530882     1.457622450487     0.511350114076     1.007825032230
         H            1.774313530882     2.484517450487     0.797387114076     1.007825032230
         H            2.078059530882    -2.143957549513    -0.780010885924     1.007825032230
         H            5.152514530882    -1.143288549513     0.589799114076     1.007825032230
         H            4.468640530882    -2.134893549513    -0.706271885924     1.007825032230
         H            5.203684530882    -0.569597549513    -1.080438885924     1.007825032230
         H           -1.181511469118    -0.748422549513     1.835405114076     1.007825032230
         H           -2.192049469118     1.657818450487    -1.567450885924     1.007825032230
         H           -3.328206469118    -1.996715549513     1.600950114076     1.007825032230
         H           -4.356455469118     0.420092450487    -1.809656885924     1.007825032230
         H           -4.915771469118    -1.411234549513    -0.221491885924     1.007825032230

  Basis Set: AUG-CC-PVTZ
    Blend: AUG-CC-PVTZ
  Basis Set: (AUG-CC-PVTZ AUX)
    Blend: AUG-CC-PVTZ-JKFIT
	 Reference Energy          =    -590.3285380600165126 [Eh]
	 Singles Energy            =      -0.0000000000000000 [Eh]
	 Same-Spin Energy          =      -0.6438586892508535 [Eh]
	 Opposite-Spin Energy      =      -1.9817164356589905 [Eh]
	 Correlation Energy        =      -2.6255751249098438 [Eh]
	 Total Energy              =    -592.9541131849263138 [Eh]

	 ================> DF-SCS-MP2 Energies <==================
	-----------------------------------------------------------
	 SCS Same-Spin Scale       =       0.3333333333333333 [-]
	 SCS Opposite-Spin Scale   =       1.2000000000000000 [-]
	 SCS Same-Spin Energy      =      -0.2146195630836178 [Eh]
	 SCS Opposite-Spin Energy  =      -2.3780597227907885 [Eh]
	 SCS Correlation Energy    =      -2.5926792858744063 [Eh]
	 SCS Total Energy          =    -592.9212173458909092 [Eh]
	-----------------------------------------------------------

  Dipole Moment: [D]
     X:     2.0104      Y:    -0.1859      Z:     0.1512     Total:     2.0247

*** Psi4 exiting successfully. Buy a developer a beer!
