                               Psi4 1.4a3.dev225

  ==> Input File <==

--------------------------------------------------------------------------
#psi4
#
memory 32 gb

molecule  {
0 1
  O       -0.4771680     1.3164760     0.3008390
  N        0.7985240    -0.5535590    -0.2772820
  C        3.2200150    -0.4235850    -0.1586420
  C        0.7425440     0.7008700     0.1517020
  C       -1.6632170     0.5216741     0.1189187
  C        3.1140170     0.9030370     0.2913960
  C        1.8654780     1.4834140     0.4539590
  C        2.0264240    -1.0936290    -0.4226860
  C        4.5555360    -1.0893210    -0.3460000
  C       -1.9196720    -0.4880720     1.0459920
  C       -2.4970780     0.8728280    -0.8843220
  C       -3.1225630    -1.1795470     0.9070330
  C       -3.7017300     0.1773150    -1.0087090
  C       -4.0153870    -0.8504980    -0.1174150
  H        4.0120030     1.4769520     0.5152690
  H        1.7375180     2.5038470     0.8013060
  H        2.0412640    -2.1246280    -0.7760920
  H        5.1157190    -1.1239590     0.5937180
  H        4.4318450    -2.1155640    -0.7023530
  H        5.1668890    -0.5502680    -1.0765200
  H       -1.2183070    -0.7290930     1.8393240
  H       -2.2288450     1.6771480    -1.5635320
  H       -3.3650020    -1.9773860     1.6048690
  H       -4.3932510     0.4394220    -1.8057380
  H       -4.9525670    -1.3919050    -0.2175730
units angstrom
no_reorient  #important for SAPT in psi4, default
symmetry c1  #important for SAPT in psi4, default
}

set PROPERTIES_ORIGIN ["COM"]
properties('MP2/aug-cc-pvtz', properties = ['dipole'])
--------------------------------------------------------------------------

    Molecular point group: c1
  Charge       = 0
  Multiplicity = 1
  Basis Set: AUG-CC-PVTZ
    Blend: AUG-CC-PVTZ
  Basis Set: (AUG-CC-PVTZ AUX)
    Blend: AUG-CC-PVTZ-JKFIT

    Orbital Energies [Eh]
    ---------------------

    Doubly Occupied:

       1A    -20.592529     2A    -15.560753     3A    -11.337749
       4A    -11.294402     5A    -11.275387     6A    -11.259536
       7A    -11.240959     8A    -11.238944     9A    -11.238682
      10A    -11.238341    11A    -11.234931    12A    -11.232494
      13A    -11.231350    14A    -11.229801    15A     -1.415200
      16A     -1.249964    17A     -1.152911    18A     -1.100521
      19A     -1.050133    20A     -1.020831    21A     -1.006045
      22A     -0.940498    23A     -0.874101    24A     -0.842054
      25A     -0.830660    26A     -0.801039    27A     -0.733250
      28A     -0.701600    29A     -0.679470    30A     -0.653005
      31A     -0.640804    32A     -0.626094    33A     -0.607598
      34A     -0.597849    35A     -0.590413    36A     -0.586777
      37A     -0.568285    38A     -0.559929    39A     -0.547685
      40A     -0.519201    41A     -0.513377    42A     -0.509939
      43A     -0.496917    44A     -0.480640    45A     -0.425913
      46A     -0.382574    47A     -0.340078    48A     -0.333563
      49A     -0.314015

  @DF-RHF Final Energy:  -590.32865939289388

   => Energetics <=

    Nuclear Repulsion Energy =            801.5340913335071491
    One-Electron Energy =               -2391.9279283996711456
    Two-Electron Energy =                1000.0651776732701137
    Total Energy =                       -590.3286593928938828
  Basis Set: (AUG-CC-PVTZ AUX)
    Blend: AUG-CC-PVTZ-RI
    Molecular point group: c1

    Geometry (in Angstrom), charge = 0, multiplicity = 1:

       Center              X                  Y                   Z               Mass
    ------------   -----------------  -----------------  -----------------  -----------------
         O           -0.440421815344     1.296089834397     0.298081705168    15.994914619570
         N            0.835270184656    -0.573945165603    -0.280039294832    14.003074004430
         C            3.256761184656    -0.443971165603    -0.161399294832    12.000000000000
         C            0.779290184656     0.680483834397     0.148944705168    12.000000000000
         C           -1.626470815344     0.501287934397     0.116161405168    12.000000000000
         C            3.150763184656     0.882650834397     0.288638705168    12.000000000000
         C            1.902224184656     1.463027834397     0.451201705168    12.000000000000
         C            2.063170184656    -1.114015165603    -0.425443294832    12.000000000000
         C            4.592282184656    -1.109707165603    -0.348757294832    12.000000000000
         C           -1.882925815344    -0.508458165603     1.043234705168    12.000000000000
         C           -2.460331815344     0.852441834397    -0.887079294832    12.000000000000
         C           -3.085816815344    -1.199933165603     0.904275705168    12.000000000000
         C           -3.664983815344     0.156928834397    -1.011466294832    12.000000000000
         C           -3.978640815344    -0.870884165603    -0.120172294832    12.000000000000
         H            4.048749184656     1.456565834397     0.512511705168     1.007825032230
         H            1.774264184656     2.483460834397     0.798548705168     1.007825032230
         H            2.078010184656    -2.145014165603    -0.778849294832     1.007825032230
         H            5.152465184656    -1.144345165603     0.590960705168     1.007825032230
         H            4.468591184656    -2.135950165603    -0.705110294832     1.007825032230
         H            5.203635184656    -0.570654165603    -1.079277294832     1.007825032230
         H           -1.181560815344    -0.749479165603     1.836566705168     1.007825032230
         H           -2.192098815344     1.656761834397    -1.566289294832     1.007825032230
         H           -3.328255815344    -1.997772165603     1.602111705168     1.007825032230
         H           -4.356504815344     0.419035834397    -1.808495294832     1.007825032230
         H           -4.915820815344    -1.412291165603    -0.220330294832     1.007825032230

  Basis Set: AUG-CC-PVTZ
    Blend: AUG-CC-PVTZ
  Basis Set: (AUG-CC-PVTZ AUX)
    Blend: AUG-CC-PVTZ-JKFIT
	 Reference Energy          =    -590.3286593928938828 [Eh]
	 Singles Energy            =      -0.0000000000000000 [Eh]
	 Same-Spin Energy          =      -0.6438774488326553 [Eh]
	 Opposite-Spin Energy      =      -1.9816614914811586 [Eh]
	 Correlation Energy        =      -2.6255389403138141 [Eh]
	 Total Energy              =    -592.9541983332077280 [Eh]

	 ================> DF-SCS-MP2 Energies <==================
	-----------------------------------------------------------
	 SCS Same-Spin Scale       =       0.3333333333333333 [-]
	 SCS Opposite-Spin Scale   =       1.2000000000000000 [-]
	 SCS Same-Spin Energy      =      -0.2146258162775518 [Eh]
	 SCS Opposite-Spin Energy  =      -2.3779937897773902 [Eh]
	 SCS Correlation Energy    =      -2.5926196060549418 [Eh]
	 SCS Total Energy          =    -592.9212789989488783 [Eh]
	-----------------------------------------------------------

  Dipole Moment: [D]
     X:     1.6832      Y:    -0.2438      Z:     0.1286     Total:     1.7056

*** Psi4 exiting successfully. Buy a developer a beer!
