                               Psi4 1.4a3.dev225

  ==> Input File <==

--------------------------------------------------------------------------
#psi4
#
memory 32 gb

molecule  {
0 1
  O       -0.4771680     1.3164760     0.3008390
  N        0.7985240    -0.5535590    -0.2772820
  C        3.2200150    -0.4235850    -0.1586420
  C        0.7425440     0.7008700     0.1517020
  C       -1.6208490     0.5302780     0.1412880
  C        3.1140170     0.9030370     0.2913960
  C        1.8654780     1.4834140     0.4539590
  C        2.0264240    -1.0936290    -0.4226860
  C        4.5555360    -1.0893210    -0.3460000
  C       -1.9196720    -0.4880720     1.0459920
  C       -2.4970780     0.8728280    -0.8843220
  C       -3.1225630    -1.1795470     0.9070330
  C       -3.7017300     0.1773150    -1.0087090
  C       -4.0041539    -0.8136887    -0.1493351
  H        4.0120030     1.4769520     0.5152690
  H        1.7375180     2.5038470     0.8013060
  H        2.0412640    -2.1246280    -0.7760920
  H        5.1157190    -1.1239590     0.5937180
  H        4.4318450    -2.1155640    -0.7023530
  H        5.1668890    -0.5502680    -1.0765200
  H       -1.2183070    -0.7290930     1.8393240
  H       -2.2288450     1.6771480    -1.5635320
  H       -3.3650020    -1.9773860     1.6048690
  H       -4.3932510     0.4394220    -1.8057380
  H       -4.9525670    -1.3919050    -0.2175730
units angstrom
no_reorient  #important for SAPT in psi4, default
symmetry c1  #important for SAPT in psi4, default
}

set PROPERTIES_ORIGIN ["COM"]
properties('MP2/aug-cc-pvtz', properties = ['dipole'])
--------------------------------------------------------------------------

    Molecular point group: c1
  Charge       = 0
  Multiplicity = 1
  Basis Set: AUG-CC-PVTZ
    Blend: AUG-CC-PVTZ
  Basis Set: (AUG-CC-PVTZ AUX)
    Blend: AUG-CC-PVTZ-JKFIT

    Orbital Energies [Eh]
    ---------------------

    Doubly Occupied:

       1A    -20.598373     2A    -15.563439     3A    -11.340618
       4A    -11.295133     5A    -11.277298     6A    -11.261411
       7A    -11.243206     8A    -11.241121     9A    -11.239089
      10A    -11.232757    11A    -11.232601    12A    -11.231394
      13A    -11.230420    14A    -11.229107    15A     -1.430516
      16A     -1.253456    17A     -1.148679    18A     -1.102612
      19A     -1.053347    20A     -1.017947    21A     -1.003195
      22A     -0.942631    23A     -0.877512    24A     -0.840372
      25A     -0.833627    26A     -0.799665    27A     -0.737090
      28A     -0.704705    29A     -0.676073    30A     -0.656093
      31A     -0.642964    32A     -0.626784    33A     -0.611445
      34A     -0.595457    35A     -0.593117    36A     -0.586339
      37A     -0.569979    38A     -0.562933    39A     -0.549378
      40A     -0.521015    41A     -0.516520    42A     -0.503727
      43A     -0.494529    44A     -0.477937    45A     -0.428352
      46A     -0.384479    47A     -0.339017    48A     -0.329811
      49A     -0.314678

  @DF-RHF Final Energy:  -590.32861924076758

   => Energetics <=

    Nuclear Repulsion Energy =            802.2287097207052966
    One-Electron Energy =               -2393.2307577440656132
    Two-Electron Energy =                1000.6734287825926231
    Total Energy =                       -590.3286192407675799
  Basis Set: (AUG-CC-PVTZ AUX)
    Blend: AUG-CC-PVTZ-RI
    Molecular point group: c1

    Geometry (in Angstrom), charge = 0, multiplicity = 1:

       Center              X                  Y                   Z               Mass
    ------------   -----------------  -----------------  -----------------  -----------------
         O           -0.443897064299     1.293145451244     0.298700935141    15.994914619570
         N            0.831794935701    -0.576889548756    -0.279420064859    14.003074004430
         C            3.253285935701    -0.446915548756    -0.160780064859    12.000000000000
         C            0.775814935701     0.677539451244     0.149563935141    12.000000000000
         C           -1.587578064299     0.506947451244     0.139149935141    12.000000000000
         C            3.147287935701     0.879706451244     0.289257935141    12.000000000000
         C            1.898748935701     1.460083451244     0.451820935141    12.000000000000
         C            2.059694935701    -1.116959548756    -0.424824064859    12.000000000000
         C            4.588806935701    -1.112651548756    -0.348138064859    12.000000000000
         C           -1.886401064299    -0.511402548756     1.043853935141    12.000000000000
         C           -2.463807064299     0.849497451244    -0.886460064859    12.000000000000
         C           -3.089292064299    -1.202877548756     0.904894935141    12.000000000000
         C           -3.668459064299     0.153984451244    -1.010847064859    12.000000000000
         C           -3.970882964299    -0.837019248756    -0.151473164859    12.000000000000
         H            4.045273935701     1.453621451244     0.513130935141     1.007825032230
         H            1.770788935701     2.480516451244     0.799167935141     1.007825032230
         H            2.074534935701    -2.147958548756    -0.778230064859     1.007825032230
         H            5.148989935701    -1.147289548756     0.591579935141     1.007825032230
         H            4.465115935701    -2.138894548756    -0.704491064859     1.007825032230
         H            5.200159935701    -0.573598548756    -1.078658064859     1.007825032230
         H           -1.185036064299    -0.752423548756     1.837185935141     1.007825032230
         H           -2.195574064299     1.653817451244    -1.565670064859     1.007825032230
         H           -3.331731064299    -2.000716548756     1.602730935141     1.007825032230
         H           -4.359980064299     0.416091451244    -1.807876064859     1.007825032230
         H           -4.919296064299    -1.415235548756    -0.219711064859     1.007825032230

  Basis Set: AUG-CC-PVTZ
    Blend: AUG-CC-PVTZ
  Basis Set: (AUG-CC-PVTZ AUX)
    Blend: AUG-CC-PVTZ-JKFIT
	 Reference Energy          =    -590.3286192407675799 [Eh]
	 Singles Energy            =      -0.0000000000000000 [Eh]
	 Same-Spin Energy          =      -0.6439140465582930 [Eh]
	 Opposite-Spin Energy      =      -1.9814446011691107 [Eh]
	 Correlation Energy        =      -2.6253586477274036 [Eh]
	 Total Energy              =    -592.9539778884949328 [Eh]

	 ================> DF-SCS-MP2 Energies <==================
	-----------------------------------------------------------
	 SCS Same-Spin Scale       =       0.3333333333333333 [-]
	 SCS Opposite-Spin Scale   =       1.2000000000000000 [-]
	 SCS Same-Spin Energy      =      -0.2146380155194310 [Eh]
	 SCS Opposite-Spin Energy  =      -2.3777335214029329 [Eh]
	 SCS Correlation Energy    =      -2.5923715369223639 [Eh]
	 SCS Total Energy          =    -592.9209907776898945 [Eh]
	-----------------------------------------------------------

  Dipole Moment: [D]
     X:     2.0253      Y:    -0.1888      Z:     0.1708     Total:     2.0412

*** Psi4 exiting successfully. Buy a developer a beer!
