                               Psi4 1.4a3.dev225

  ==> Input File <==

--------------------------------------------------------------------------
#psi4
#
memory 32 gb

molecule  {
0 1
  O       -0.4771680     1.3164760     0.3008390
  N        0.7985240    -0.5535590    -0.2772820
  C        3.2200150    -0.4235850    -0.1586420
  C        0.7425440     0.7008700     0.1517020
  C       -1.6208490     0.5302780     0.1412880
  C        3.1140170     0.9030370     0.2913960
  C        1.8654780     1.4834140     0.4539590
  C        2.0264240    -1.0936290    -0.4226860
  C        4.5555360    -1.0893210    -0.3460000
  C       -1.9196720    -0.4880720     1.0459920
  C       -2.4970780     0.8728280    -0.8843220
  C       -3.1225630    -1.1795470     0.9070330
  C       -3.7017300     0.1773150    -1.0087090
  C       -4.0153870    -0.8504980    -0.1174150
  H        4.0120030     1.4769520     0.5152690
  H        1.7375180     2.5038470     0.8013060
  H        2.0412640    -2.1246280    -0.7760920
  H        5.1157190    -1.1239590     0.5937180
  H        4.4318450    -2.1155640    -0.7023530
  H        5.1668890    -0.5502680    -1.0765200
  H       -1.2312236    -0.7246543     1.8247137
  H       -2.2288450     1.6771480    -1.5635320
  H       -3.3650020    -1.9773860     1.6048690
  H       -4.3932510     0.4394220    -1.8057380
  H       -4.9525670    -1.3919050    -0.2175730
units angstrom
no_reorient  #important for SAPT in psi4, default
symmetry c1  #important for SAPT in psi4, default
}

set PROPERTIES_ORIGIN ["COM"]
properties('MP2/aug-cc-pvtz', properties = ['dipole'])
--------------------------------------------------------------------------

    Molecular point group: c1
  Charge       = 0
  Multiplicity = 1
  Basis Set: AUG-CC-PVTZ
    Blend: AUG-CC-PVTZ
  Basis Set: (AUG-CC-PVTZ AUX)
    Blend: AUG-CC-PVTZ-JKFIT

    Orbital Energies [Eh]
    ---------------------

    Doubly Occupied:

       1A    -20.598588     2A    -15.563449     3A    -11.340759
       4A    -11.295472     5A    -11.277336     6A    -11.261462
       7A    -11.243244     8A    -11.241188     9A    -11.236640
      10A    -11.236484    11A    -11.232778    12A    -11.231196
      13A    -11.230318    14A    -11.229786    15A     -1.430754
      16A     -1.253509    17A     -1.145870    18A     -1.102653
      19A     -1.053034    20A     -1.015747    21A     -1.003853
      22A     -0.942957    23A     -0.877743    24A     -0.842646
      25A     -0.830918    26A     -0.801050    27A     -0.737115
      28A     -0.704804    29A     -0.680401    30A     -0.655665
      31A     -0.643375    32A     -0.627110    33A     -0.611158
      34A     -0.595086    35A     -0.592378    36A     -0.586805
      37A     -0.569960    38A     -0.563417    39A     -0.549594
      40A     -0.521165    41A     -0.514021    42A     -0.511648
      43A     -0.492730    44A     -0.477756    45A     -0.428269
      46A     -0.384501    47A     -0.335354    48A     -0.332296
      49A     -0.313554

  @DF-RHF Final Energy:  -590.33170581142679

   => Energetics <=

    Nuclear Repulsion Energy =            801.8148660624402737
    One-Electron Energy =               -2392.3979479947083746
    Two-Electron Energy =                1000.2513761208414280
    Total Energy =                       -590.3317058114267866
  Basis Set: (AUG-CC-PVTZ AUX)
    Blend: AUG-CC-PVTZ-RI
    Molecular point group: c1

    Geometry (in Angstrom), charge = 0, multiplicity = 1:

       Center              X                  Y                   Z               Mass
    ------------   -----------------  -----------------  -----------------  -----------------
         O           -0.443098427887     1.295507827332     0.296710938996    15.994914619570
         N            0.832593572113    -0.574527172668    -0.281410061004    14.003074004430
         C            3.254084572113    -0.444553172668    -0.162770061004    12.000000000000
         C            0.776613572113     0.679901827332     0.147573938996    12.000000000000
         C           -1.586779427887     0.509309827332     0.137159938996    12.000000000000
         C            3.148086572113     0.882068827332     0.287267938996    12.000000000000
         C            1.899547572113     1.462445827332     0.449830938996    12.000000000000
         C            2.060493572113    -1.114597172668    -0.426814061004    12.000000000000
         C            4.589605572113    -1.110289172668    -0.350128061004    12.000000000000
         C           -1.885602427887    -0.509040172668     1.041863938996    12.000000000000
         C           -2.463008427887     0.851859827332    -0.888450061004    12.000000000000
         C           -3.088493427887    -1.200515172668     0.902904938996    12.000000000000
         C           -3.667660427887     0.156346827332    -1.012837061004    12.000000000000
         C           -3.981317427887    -0.871466172668    -0.121543061004    12.000000000000
         H            4.046072572113     1.455983827332     0.511140938996     1.007825032230
         H            1.771587572113     2.482878827332     0.797177938996     1.007825032230
         H            2.075333572113    -2.145596172668    -0.780220061004     1.007825032230
         H            5.149788572113    -1.144927172668     0.589589938996     1.007825032230
         H            4.465914572113    -2.136532172668    -0.706481061004     1.007825032230
         H            5.200958572113    -0.571236172668    -1.080648061004     1.007825032230
         H           -1.197154027887    -0.745622472668     1.820585638996     1.007825032230
         H           -2.194775427887     1.656179827332    -1.567660061004     1.007825032230
         H           -3.330932427887    -1.998354172668     1.600740938996     1.007825032230
         H           -4.359181427887     0.418453827332    -1.809866061004     1.007825032230
         H           -4.918497427887    -1.412873172668    -0.221701061004     1.007825032230

  Basis Set: AUG-CC-PVTZ
    Blend: AUG-CC-PVTZ
  Basis Set: (AUG-CC-PVTZ AUX)
    Blend: AUG-CC-PVTZ-JKFIT
	 Reference Energy          =    -590.3317058114267866 [Eh]
	 Singles Energy            =      -0.0000000000000000 [Eh]
	 Same-Spin Energy          =      -0.6439498597324257 [Eh]
	 Opposite-Spin Energy      =      -1.9813437510297629 [Eh]
	 Correlation Energy        =      -2.6252936107621885 [Eh]
	 Total Energy              =    -592.9569994221890283 [Eh]

	 ================> DF-SCS-MP2 Energies <==================
	-----------------------------------------------------------
	 SCS Same-Spin Scale       =       0.3333333333333333 [-]
	 SCS Opposite-Spin Scale   =       1.2000000000000000 [-]
	 SCS Same-Spin Energy      =      -0.2146499532441419 [Eh]
	 SCS Opposite-Spin Energy  =      -2.3776125012357152 [Eh]
	 SCS Correlation Energy    =      -2.5922624544798571 [Eh]
	 SCS Total Energy          =    -592.9239682659066375 [Eh]
	-----------------------------------------------------------

  Dipole Moment: [D]
     X:     2.0207      Y:    -0.1832      Z:     0.1585     Total:     2.0352

*** Psi4 exiting successfully. Buy a developer a beer!
