                               Psi4 1.4a3.dev225

  ==> Input File <==

--------------------------------------------------------------------------
#psi4
#
memory 32 gb

molecule  {
0 1
  O       -0.4771680     1.3164760     0.3008390
  N        0.7985240    -0.5535590    -0.2772820
  C        3.2200150    -0.4235850    -0.1586420
  C        0.7425440     0.7008700     0.1517020
  C       -1.6208490     0.5302780     0.1412880
  C        3.1140170     0.9030370     0.2913960
  C        1.8654780     1.4834140     0.4539590
  C        2.0264240    -1.0936290    -0.4226860
  C        4.5555360    -1.0893210    -0.3460000
  C       -1.9196720    -0.4880720     1.0459920
  C       -2.4970780     0.8728280    -0.8843220
  C       -3.1225630    -1.1795470     0.9070330
  C       -3.7017300     0.1773150    -1.0087090
  C       -4.0153870    -0.8504980    -0.1174150
  H        4.0120030     1.4769520     0.5152690
  H        1.7375180     2.5038470     0.8013060
  H        2.0412640    -2.1246280    -0.7760920
  H        5.1157190    -1.1239590     0.5937180
  H        4.4318450    -2.1155640    -0.7023530
  H        5.1668890    -0.5502680    -1.0765200
  H       -1.2053904    -0.7335317     1.8539343
  H       -2.2288450     1.6771480    -1.5635320
  H       -3.3650020    -1.9773860     1.6048690
  H       -4.3932510     0.4394220    -1.8057380
  H       -4.9525670    -1.3919050    -0.2175730
units angstrom
no_reorient  #important for SAPT in psi4, default
symmetry c1  #important for SAPT in psi4, default
}

set PROPERTIES_ORIGIN ["COM"]
properties('MP2/aug-cc-pvtz', properties = ['dipole'])
--------------------------------------------------------------------------

    Molecular point group: c1
  Charge       = 0
  Multiplicity = 1
  Basis Set: AUG-CC-PVTZ
    Blend: AUG-CC-PVTZ
  Basis Set: (AUG-CC-PVTZ AUX)
    Blend: AUG-CC-PVTZ-JKFIT

    Orbital Energies [Eh]
    ---------------------

    Doubly Occupied:

       1A    -20.598557     2A    -15.563342     3A    -11.340679
       4A    -11.295848     5A    -11.277257     6A    -11.261392
       7A    -11.243178     8A    -11.241124     9A    -11.236931
      10A    -11.236744    11A    -11.234279    12A    -11.232734
      13A    -11.231477    14A    -11.230577    15A     -1.430703
      16A     -1.253423    17A     -1.145874    18A     -1.102583
      19A     -1.053007    20A     -1.014819    21A     -1.003695
      22A     -0.942855    23A     -0.877610    24A     -0.841673
      25A     -0.830358    26A     -0.800684    27A     -0.736533
      28A     -0.704646    29A     -0.678055    30A     -0.655321
      31A     -0.643121    32A     -0.625848    33A     -0.610952
      34A     -0.594624    35A     -0.591849    36A     -0.585353
      37A     -0.569323    38A     -0.563230    39A     -0.549547
      40A     -0.521099    41A     -0.513062    42A     -0.511711
      43A     -0.492644    44A     -0.477366    45A     -0.428141
      46A     -0.384405    47A     -0.335521    48A     -0.332405
      49A     -0.313608

  @DF-RHF Final Energy:  -590.33089368625724

   => Energetics <=

    Nuclear Repulsion Energy =            801.6226544644225669
    One-Electron Energy =               -2392.0275616523490498
    Two-Electron Energy =                1000.0740135016692420
    Total Energy =                       -590.3308936862572409
  Basis Set: (AUG-CC-PVTZ AUX)
    Blend: AUG-CC-PVTZ-RI
    Molecular point group: c1

    Geometry (in Angstrom), charge = 0, multiplicity = 1:

       Center              X                  Y                   Z               Mass
    ------------   -----------------  -----------------  -----------------  -----------------
         O           -0.443239095566     1.295556166804     0.296551826150    15.994914619570
         N            0.832452904434    -0.574478833196    -0.281569173850    14.003074004430
         C            3.253943904434    -0.444504833196    -0.162929173850    12.000000000000
         C            0.776472904434     0.679950166804     0.147414826150    12.000000000000
         C           -1.586920095566     0.509358166804     0.137000826150    12.000000000000
         C            3.147945904434     0.882117166804     0.287108826150    12.000000000000
         C            1.899406904434     1.462494166804     0.449671826150    12.000000000000
         C            2.060352904434    -1.114548833196    -0.426973173850    12.000000000000
         C            4.589464904434    -1.110240833196    -0.350287173850    12.000000000000
         C           -1.885743095566    -0.508991833196     1.041704826150    12.000000000000
         C           -2.463149095566     0.851908166804    -0.888609173850    12.000000000000
         C           -3.088634095566    -1.200466833196     0.902745826150    12.000000000000
         C           -3.667801095566     0.156395166804    -1.012996173850    12.000000000000
         C           -3.981458095566    -0.871417833196    -0.121702173850    12.000000000000
         H            4.045931904434     1.456032166804     0.510981826150     1.007825032230
         H            1.771446904434     2.482927166804     0.797018826150     1.007825032230
         H            2.075192904434    -2.145547833196    -0.780379173850     1.007825032230
         H            5.149647904434    -1.144878833196     0.589430826150     1.007825032230
         H            4.465773904434    -2.136483833196    -0.706640173850     1.007825032230
         H            5.200817904434    -0.571187833196    -1.080807173850     1.007825032230
         H           -1.171461495566    -0.754451533196     1.849647126150     1.007825032230
         H           -2.194916095566     1.656228166804    -1.567819173850     1.007825032230
         H           -3.331073095566    -1.998305833196     1.600581826150     1.007825032230
         H           -4.359322095566     0.418502166804    -1.810025173850     1.007825032230
         H           -4.918638095566    -1.412824833196    -0.221860173850     1.007825032230

  Basis Set: AUG-CC-PVTZ
    Blend: AUG-CC-PVTZ
  Basis Set: (AUG-CC-PVTZ AUX)
    Blend: AUG-CC-PVTZ-JKFIT
	 Reference Energy          =    -590.3308936862572409 [Eh]
	 Singles Energy            =      -0.0000000000000000 [Eh]
	 Same-Spin Energy          =      -0.6440532183936190 [Eh]
	 Opposite-Spin Energy      =      -1.9816397617137986 [Eh]
	 Correlation Energy        =      -2.6256929801074174 [Eh]
	 Total Energy              =    -592.9565866663646148 [Eh]

	 ================> DF-SCS-MP2 Energies <==================
	-----------------------------------------------------------
	 SCS Same-Spin Scale       =       0.3333333333333333 [-]
	 SCS Opposite-Spin Scale   =       1.2000000000000000 [-]
	 SCS Same-Spin Energy      =      -0.2146844061312063 [Eh]
	 SCS Opposite-Spin Energy  =      -2.3779677140565583 [Eh]
	 SCS Correlation Energy    =      -2.5926521201877644 [Eh]
	 SCS Total Energy          =    -592.9235458064449631 [Eh]
	-----------------------------------------------------------

  Dipole Moment: [D]
     X:     2.0124      Y:    -0.1843      Z:     0.1537     Total:     2.0266

*** Psi4 exiting successfully. Buy a developer a beer!
