                               Psi4 1.4a3.dev225

  ==> Input File <==

--------------------------------------------------------------------------
#psi4
#
memory 32 gb

molecule  {
0 1
  O       -0.4771680     1.3164760     0.3008390
  N        0.7985240    -0.5535590    -0.2772820
  C        3.2200150    -0.4235850    -0.1586420
  C        0.7425440     0.7008700     0.1517020
  C       -1.6208490     0.5302780     0.1412880
  C        3.1140170     0.9030370     0.2913960
  C        1.8654780     1.4834140     0.4539590
  C        2.0794951    -1.1712866    -0.4475960
  C        4.5555360    -1.0893210    -0.3460000
  C       -1.9196720    -0.4880720     1.0459920
  C       -2.4970780     0.8728280    -0.8843220
  C       -3.1225630    -1.1795470     0.9070330
  C       -3.7017300     0.1773150    -1.0087090
  C       -4.0153870    -0.8504980    -0.1174150
  H        4.0120030     1.4769520     0.5152690
  H        1.7375180     2.5038470     0.8013060
  H        2.0412640    -2.1246280    -0.7760920
  H        5.1157190    -1.1239590     0.5937180
  H        4.4318450    -2.1155640    -0.7023530
  H        5.1668890    -0.5502680    -1.0765200
  H       -1.2183070    -0.7290930     1.8393240
  H       -2.2288450     1.6771480    -1.5635320
  H       -3.3650020    -1.9773860     1.6048690
  H       -4.3932510     0.4394220    -1.8057380
  H       -4.9525670    -1.3919050    -0.2175730
units angstrom
no_reorient  #important for SAPT in psi4, default
symmetry c1  #important for SAPT in psi4, default
}

set PROPERTIES_ORIGIN ["COM"]
properties('MP2/aug-cc-pvtz', properties = ['dipole'])
--------------------------------------------------------------------------

    Molecular point group: c1
  Charge       = 0
  Multiplicity = 1
  Basis Set: AUG-CC-PVTZ
    Blend: AUG-CC-PVTZ
  Basis Set: (AUG-CC-PVTZ AUX)
    Blend: AUG-CC-PVTZ-JKFIT

    Orbital Energies [Eh]
    ---------------------

    Doubly Occupied:

       1A    -20.597712     2A    -15.564337     3A    -11.339354
       4A    -11.294688     5A    -11.277747     6A    -11.263117
       7A    -11.247468     8A    -11.244981     9A    -11.235733
      10A    -11.235618    11A    -11.231574    12A    -11.230967
      13A    -11.230347    14A    -11.229492    15A     -1.429334
      16A     -1.231365    17A     -1.144547    18A     -1.099057
      19A     -1.054513    20A     -1.014200    21A     -1.003695
      22A     -0.941502    23A     -0.885110    24A     -0.839280
      25A     -0.829555    26A     -0.795465    27A     -0.738285
      28A     -0.701183    29A     -0.677485    30A     -0.654143
      31A     -0.648810    32A     -0.635481    33A     -0.614600
      34A     -0.596810    35A     -0.590336    36A     -0.585289
      37A     -0.567999    38A     -0.563039    39A     -0.547036
      40A     -0.523216    41A     -0.511136    42A     -0.507805
      43A     -0.491200    44A     -0.473754    45A     -0.422943
      46A     -0.377017    47A     -0.334702    48A     -0.333200
      49A     -0.315111

  @DF-RHF Final Energy:  -590.31657210700405

   => Energetics <=

    Nuclear Repulsion Energy =            799.9187654943681309
    One-Electron Energy =               -2388.6680001661611641
    Two-Electron Energy =                 998.4326625647890978
    Total Energy =                       -590.3165721070040490
  Basis Set: (AUG-CC-PVTZ AUX)
    Blend: AUG-CC-PVTZ-RI
    Molecular point group: c1

    Geometry (in Angstrom), charge = 0, multiplicity = 1:

       Center              X                  Y                   Z               Mass
    ------------   -----------------  -----------------  -----------------  -----------------
         O           -0.446609647918     1.300566958912     0.298246432478    15.994914619570
         N            0.829082352082    -0.569468041088    -0.279874567522    14.003074004430
         C            3.250573352082    -0.439494041088    -0.161234567522    12.000000000000
         C            0.773102352082     0.684960958912     0.149109432478    12.000000000000
         C           -1.590290647918     0.514368958912     0.138695432478    12.000000000000
         C            3.144575352082     0.887127958912     0.288803432478    12.000000000000
         C            1.896036352082     1.467504958912     0.451366432478    12.000000000000
         C            2.110053452082    -1.187195641088    -0.450188567522    12.000000000000
         C            4.586094352082    -1.105230041088    -0.348592567522    12.000000000000
         C           -1.889113647918    -0.503981041088     1.043399432478    12.000000000000
         C           -2.466519647918     0.856918958912    -0.886914567522    12.000000000000
         C           -3.092004647918    -1.195456041088     0.904440432478    12.000000000000
         C           -3.671171647918     0.161405958912    -1.011301567522    12.000000000000
         C           -3.984828647918    -0.866407041088    -0.120007567522    12.000000000000
         H            4.042561352082     1.461042958912     0.512676432478     1.007825032230
         H            1.768076352082     2.487937958912     0.798713432478     1.007825032230
         H            2.071822352082    -2.140537041088    -0.778684567522     1.007825032230
         H            5.146277352082    -1.139868041088     0.591125432478     1.007825032230
         H            4.462403352082    -2.131473041088    -0.704945567522     1.007825032230
         H            5.197447352082    -0.566177041088    -1.079112567522     1.007825032230
         H           -1.187748647918    -0.745002041088     1.836731432478     1.007825032230
         H           -2.198286647918     1.661238958912    -1.566124567522     1.007825032230
         H           -3.334443647918    -1.993295041088     1.602276432478     1.007825032230
         H           -4.362692647918     0.423512958912    -1.808330567522     1.007825032230
         H           -4.922008647918    -1.407814041088    -0.220165567522     1.007825032230

  Basis Set: AUG-CC-PVTZ
    Blend: AUG-CC-PVTZ
  Basis Set: (AUG-CC-PVTZ AUX)
    Blend: AUG-CC-PVTZ-JKFIT
	 Reference Energy          =    -590.3165721070040490 [Eh]
	 Singles Energy            =      -0.0000000000000000 [Eh]
	 Same-Spin Energy          =      -0.6443341047342872 [Eh]
	 Opposite-Spin Energy      =      -1.9838260775353911 [Eh]
	 Correlation Energy        =      -2.6281601822696783 [Eh]
	 Total Energy              =    -592.9447322892737020 [Eh]

	 ================> DF-SCS-MP2 Energies <==================
	-----------------------------------------------------------
	 SCS Same-Spin Scale       =       0.3333333333333333 [-]
	 SCS Opposite-Spin Scale   =       1.2000000000000000 [-]
	 SCS Same-Spin Energy      =      -0.2147780349114290 [Eh]
	 SCS Opposite-Spin Energy  =      -2.3805912930424693 [Eh]
	 SCS Correlation Energy    =      -2.5953693279538985 [Eh]
	 SCS Total Energy          =    -592.9119414349579529 [Eh]
	-----------------------------------------------------------

  Dipole Moment: [D]
     X:     2.1357      Y:    -0.2360      Z:     0.1430     Total:     2.1534

*** Psi4 exiting successfully. Buy a developer a beer!
