                               Psi4 1.4a3.dev225

  ==> Input File <==

--------------------------------------------------------------------------
#psi4
#
memory 32 gb

molecule  {
0 1
  O       -0.4771680     1.3164760     0.3008390
  N        0.7985240    -0.5535590    -0.2772820
  C        3.2200150    -0.4235850    -0.1586420
  C        0.7425440     0.7008700     0.1517020
  C       -1.6208490     0.5302780     0.1412880
  C        3.1140170     0.9030370     0.2913960
  C        1.8654780     1.4834140     0.4539590
  C        2.0264240    -1.0936290    -0.4226860
  C        4.5555360    -1.0893210    -0.3460000
  C       -1.9196720    -0.4880720     1.0459920
  C       -2.4970780     0.8728280    -0.8843220
  C       -3.1225630    -1.1795470     0.9070330
  C       -3.6154719     0.2271167    -0.9998024
  C       -4.0153870    -0.8504980    -0.1174150
  H        4.0120030     1.4769520     0.5152690
  H        1.7375180     2.5038470     0.8013060
  H        2.0412640    -2.1246280    -0.7760920
  H        5.1157190    -1.1239590     0.5937180
  H        4.4318450    -2.1155640    -0.7023530
  H        5.1668890    -0.5502680    -1.0765200
  H       -1.2183070    -0.7290930     1.8393240
  H       -2.2288450     1.6771480    -1.5635320
  H       -3.3650020    -1.9773860     1.6048690
  H       -4.3932510     0.4394220    -1.8057380
  H       -4.9525670    -1.3919050    -0.2175730
units angstrom
no_reorient  #important for SAPT in psi4, default
symmetry c1  #important for SAPT in psi4, default
}

set PROPERTIES_ORIGIN ["COM"]
properties('MP2/aug-cc-pvtz', properties = ['dipole'])
--------------------------------------------------------------------------

    Molecular point group: c1
  Charge       = 0
  Multiplicity = 1
  Basis Set: AUG-CC-PVTZ
    Blend: AUG-CC-PVTZ
  Basis Set: (AUG-CC-PVTZ AUX)
    Blend: AUG-CC-PVTZ-JKFIT

    Orbital Energies [Eh]
    ---------------------

    Doubly Occupied:

       1A    -20.598989     2A    -15.563392     3A    -11.340985
       4A    -11.296470     5A    -11.277389     6A    -11.261536
       7A    -11.243288     8A    -11.241284     9A    -11.236175
      10A    -11.234894    11A    -11.233899    12A    -11.232822
      13A    -11.229801    14A    -11.220641    15A     -1.431157
      16A     -1.253618    17A     -1.152634    18A     -1.102712
      19A     -1.052291    20A     -1.028461    21A     -0.997047
      22A     -0.943034    23A     -0.878617    24A     -0.843849
      25A     -0.822869    26A     -0.804121    27A     -0.735743
      28A     -0.705063    29A     -0.680866    30A     -0.658933
      31A     -0.643147    32A     -0.622119    33A     -0.609957
      34A     -0.594759    35A     -0.591142    36A     -0.586751
      37A     -0.571218    38A     -0.562770    39A     -0.549958
      40A     -0.523553    41A     -0.520278    42A     -0.508150
      43A     -0.492540    44A     -0.467216    45A     -0.428473
      46A     -0.384606    47A     -0.348972    48A     -0.329201
      49A     -0.308699

  @DF-RHF Final Energy:  -590.31776339610042

   => Energetics <=

    Nuclear Repulsion Energy =            803.1132360143396909
    One-Electron Energy =               -2394.9698212456041801
    Two-Electron Energy =                1001.5388218351640717
    Total Energy =                       -590.3177633961004176
  Basis Set: (AUG-CC-PVTZ AUX)
    Blend: AUG-CC-PVTZ-RI
    Molecular point group: c1

    Geometry (in Angstrom), charge = 0, multiplicity = 1:

       Center              X                  Y                   Z               Mass
    ------------   -----------------  -----------------  -----------------  -----------------
         O           -0.448761340459     1.292303083745     0.296053919566    15.994914619570
         N            0.826930659541    -0.577731916255    -0.282067080434    14.003074004430
         C            3.248421659541    -0.447757916255    -0.163427080434    12.000000000000
         C            0.770950659541     0.676697083745     0.146916919566    12.000000000000
         C           -1.592442340459     0.506105083745     0.136502919566    12.000000000000
         C            3.142423659541     0.878864083745     0.286610919566    12.000000000000
         C            1.893884659541     1.459241083745     0.449173919566    12.000000000000
         C            2.054830659541    -1.117801916255    -0.427471080434    12.000000000000
         C            4.583942659541    -1.113493916255    -0.350785080434    12.000000000000
         C           -1.891265340459    -0.512244916255     1.041206919566    12.000000000000
         C           -2.468671340459     0.848655083745    -0.889107080434    12.000000000000
         C           -3.094156340459    -1.203719916255     0.902247919566    12.000000000000
         C           -3.587065240459     0.202943783745    -1.004587480434    12.000000000000
         C           -3.986980340459    -0.874670916255    -0.122200080434    12.000000000000
         H            4.040409659541     1.452779083745     0.510483919566     1.007825032230
         H            1.765924659541     2.479674083745     0.796520919566     1.007825032230
         H            2.069670659541    -2.148800916255    -0.780877080434     1.007825032230
         H            5.144125659541    -1.148131916255     0.588932919566     1.007825032230
         H            4.460251659541    -2.139736916255    -0.707138080434     1.007825032230
         H            5.195295659541    -0.574440916255    -1.081305080434     1.007825032230
         H           -1.189900340459    -0.753265916255     1.834538919566     1.007825032230
         H           -2.200438340459     1.652975083745    -1.568317080434     1.007825032230
         H           -3.336595340459    -2.001558916255     1.600083919566     1.007825032230
         H           -4.364844340459     0.415249083745    -1.810523080434     1.007825032230
         H           -4.924160340459    -1.416077916255    -0.222358080434     1.007825032230

  Basis Set: AUG-CC-PVTZ
    Blend: AUG-CC-PVTZ
  Basis Set: (AUG-CC-PVTZ AUX)
    Blend: AUG-CC-PVTZ-JKFIT
	 Reference Energy          =    -590.3177633961004176 [Eh]
	 Singles Energy            =      -0.0000000000000000 [Eh]
	 Same-Spin Energy          =      -0.6440507606108169 [Eh]
	 Opposite-Spin Energy      =      -1.9818919572029861 [Eh]
	 Correlation Energy        =      -2.6259427178138028 [Eh]
	 Total Energy              =    -592.9437061139142315 [Eh]

	 ================> DF-SCS-MP2 Energies <==================
	-----------------------------------------------------------
	 SCS Same-Spin Scale       =       0.3333333333333333 [-]
	 SCS Opposite-Spin Scale   =       1.2000000000000000 [-]
	 SCS Same-Spin Energy      =      -0.2146835868702723 [Eh]
	 SCS Opposite-Spin Energy  =      -2.3782703486435830 [Eh]
	 SCS Correlation Energy    =      -2.5929539355138553 [Eh]
	 SCS Total Energy          =    -592.9107173316142507 [Eh]
	-----------------------------------------------------------

  Dipole Moment: [D]
     X:     2.0325      Y:    -0.1833      Z:     0.1739     Total:     2.0482

*** Psi4 exiting successfully. Buy a developer a beer!
