                               Psi4 1.4a3.dev225

  ==> Input File <==

--------------------------------------------------------------------------
#psi4
#
memory 32 gb

molecule  {
0 1
  O       -0.4771680     1.3164760     0.3008390
  N        0.7985240    -0.5535590    -0.2772820
  C        3.2200150    -0.4235850    -0.1586420
  C        0.7425440     0.7008700     0.1517020
  C       -1.6419907     0.5261305     0.1299638
  C        3.1140170     0.9030370     0.2913960
  C        1.8654780     1.4834140     0.4539590
  C        2.0264240    -1.0936290    -0.4226860
  C        4.5555360    -1.0893210    -0.3460000
  C       -1.9196720    -0.4880720     1.0459920
  C       -2.4970780     0.8728280    -0.8843220
  C       -3.1225630    -1.1795470     0.9070330
  C       -3.7017300     0.1773150    -1.0087090
  C       -4.0153870    -0.8504980    -0.1174150
  H        4.0120030     1.4769520     0.5152690
  H        1.7375180     2.5038470     0.8013060
  H        2.0412640    -2.1246280    -0.7760920
  H        5.1157190    -1.1239590     0.5937180
  H        4.4318450    -2.1155640    -0.7023530
  H        5.1668890    -0.5502680    -1.0765200
  H       -1.2183070    -0.7290930     1.8393240
  H       -2.2288450     1.6771480    -1.5635320
  H       -3.3650020    -1.9773860     1.6048690
  H       -4.3932510     0.4394220    -1.8057380
  H       -4.9525670    -1.3919050    -0.2175730
units angstrom
no_reorient  #important for SAPT in psi4, default
symmetry c1  #important for SAPT in psi4, default
}

set PROPERTIES_ORIGIN ["COM"]
properties('MP2/aug-cc-pvtz', properties = ['dipole'])
--------------------------------------------------------------------------

    Molecular point group: c1
  Charge       = 0
  Multiplicity = 1
  Basis Set: AUG-CC-PVTZ
    Blend: AUG-CC-PVTZ
  Basis Set: (AUG-CC-PVTZ AUX)
    Blend: AUG-CC-PVTZ-JKFIT

    Orbital Energies [Eh]
    ---------------------

    Doubly Occupied:

       1A    -20.595594     2A    -15.562074     3A    -11.339244
       4A    -11.294967     5A    -11.276343     6A    -11.260486
       7A    -11.242086     8A    -11.239923     9A    -11.237804
      10A    -11.237490    11A    -11.233490    12A    -11.232054
      13A    -11.231480    14A    -11.230596    15A     -1.422801
      16A     -1.251715    17A     -1.149300    18A     -1.101571
      19A     -1.051533    20A     -1.017870    21A     -1.005023
      22A     -0.941711    23A     -0.875867    24A     -0.841684
      25A     -0.830963    26A     -0.800964    27A     -0.735008
      28A     -0.703113    29A     -0.679379    30A     -0.654082
      31A     -0.642015    32A     -0.626178    33A     -0.609317
      34A     -0.595304    35A     -0.591963    36A     -0.586852
      37A     -0.569028    38A     -0.561609    39A     -0.548611
      40A     -0.520139    41A     -0.513250    42A     -0.510807
      43A     -0.495057    44A     -0.479440    45A     -0.427071
      46A     -0.383515    47A     -0.337208    48A     -0.333243
      49A     -0.314042

  @DF-RHF Final Energy:  -590.33084485000302

   => Energetics <=

    Nuclear Repulsion Energy =            801.6199369209872430
    One-Electron Energy =               -2392.0598401912402551
    Two-Electron Energy =                1000.1090584202501077
    Total Energy =                       -590.3308448500030181
  Basis Set: (AUG-CC-PVTZ AUX)
    Blend: AUG-CC-PVTZ-RI
    Molecular point group: c1

    Geometry (in Angstrom), charge = 0, multiplicity = 1:

       Center              X                  Y                   Z               Mass
    ------------   -----------------  -----------------  -----------------  -----------------
         O           -0.441798031073     1.295800901905     0.297365591651    15.994914619570
         N            0.833893968927    -0.574234098095    -0.280755408349    14.003074004430
         C            3.255384968927    -0.444260098095    -0.162115408349    12.000000000000
         C            0.777913968927     0.680194901905     0.148228591651    12.000000000000
         C           -1.606620731073     0.505455401905     0.126490391651    12.000000000000
         C            3.149386968927     0.882361901905     0.287922591651    12.000000000000
         C            1.900847968927     1.462738901905     0.450485591651    12.000000000000
         C            2.061793968927    -1.114304098095    -0.426159408349    12.000000000000
         C            4.590905968927    -1.109996098095    -0.349473408349    12.000000000000
         C           -1.884302031073    -0.508747098095     1.042518591651    12.000000000000
         C           -2.461708031073     0.852152901905    -0.887795408349    12.000000000000
         C           -3.087193031073    -1.200222098095     0.903559591651    12.000000000000
         C           -3.666360031073     0.156639901905    -1.012182408349    12.000000000000
         C           -3.980017031073    -0.871173098095    -0.120888408349    12.000000000000
         H            4.047372968927     1.456276901905     0.511795591651     1.007825032230
         H            1.772887968927     2.483171901905     0.797832591651     1.007825032230
         H            2.076633968927    -2.145303098095    -0.779565408349     1.007825032230
         H            5.151088968927    -1.144634098095     0.590244591651     1.007825032230
         H            4.467214968927    -2.136239098095    -0.705826408349     1.007825032230
         H            5.202258968927    -0.570943098095    -1.079993408349     1.007825032230
         H           -1.182937031073    -0.749768098095     1.835850591651     1.007825032230
         H           -2.193475031073     1.656472901905    -1.567005408349     1.007825032230
         H           -3.329632031073    -1.998061098095     1.601395591651     1.007825032230
         H           -4.357881031073     0.418746901905    -1.809211408349     1.007825032230
         H           -4.917197031073    -1.412580098095    -0.221046408349     1.007825032230

  Basis Set: AUG-CC-PVTZ
    Blend: AUG-CC-PVTZ
  Basis Set: (AUG-CC-PVTZ AUX)
    Blend: AUG-CC-PVTZ-JKFIT
	 Reference Energy          =    -590.3308448500030181 [Eh]
	 Singles Energy            =      -0.0000000000000000 [Eh]
	 Same-Spin Energy          =      -0.6439200586608792 [Eh]
	 Opposite-Spin Energy      =      -1.9815275703954869 [Eh]
	 Correlation Energy        =      -2.6254476290563660 [Eh]
	 Total Energy              =    -592.9562924790593570 [Eh]

	 ================> DF-SCS-MP2 Energies <==================
	-----------------------------------------------------------
	 SCS Same-Spin Scale       =       0.3333333333333333 [-]
	 SCS Opposite-Spin Scale   =       1.2000000000000000 [-]
	 SCS Same-Spin Energy      =      -0.2146400195536264 [Eh]
	 SCS Opposite-Spin Energy  =      -2.3778330844745841 [Eh]
	 SCS Correlation Energy    =      -2.5924731040282105 [Eh]
	 SCS Total Energy          =    -592.9233179540311767 [Eh]
	-----------------------------------------------------------

  Dipole Moment: [D]
     X:     1.8497      Y:    -0.2142      Z:     0.1427     Total:     1.8675

*** Psi4 exiting successfully. Buy a developer a beer!
