                               Psi4 1.4a3.dev225

  ==> Input File <==

--------------------------------------------------------------------------
#psi4
#
memory 32 gb

molecule  {
0 1
  O       -0.4771680     1.3164760     0.3008390
  N        0.7985240    -0.5535590    -0.2772820
  C        3.2200150    -0.4235850    -0.1586420
  C        0.7425440     0.7008700     0.1517020
  C       -1.6208490     0.5302780     0.1412880
  C        3.1140170     0.9030370     0.2913960
  C        1.8654780     1.4834140     0.4539590
  C        2.0264240    -1.0936290    -0.4226860
  C        4.5555360    -1.0893210    -0.3460000
  C       -1.9196720    -0.4880720     1.0459920
  C       -2.4970780     0.8728280    -0.8843220
  C       -3.1225630    -1.1795470     0.9070330
  C       -3.7017300     0.1773150    -1.0087090
  C       -4.0153870    -0.8504980    -0.1174150
  H        4.0120030     1.4769520     0.5152690
  H        1.7375180     2.5038470     0.8013060
  H        2.0412640    -2.1246280    -0.7760920
  H        5.1157190    -1.1239590     0.5937180
  H        4.4318450    -2.1155640    -0.7023530
  H        5.2227444    -0.5010182    -1.1432630
  H       -1.2183070    -0.7290930     1.8393240
  H       -2.2288450     1.6771480    -1.5635320
  H       -3.3650020    -1.9773860     1.6048690
  H       -4.3932510     0.4394220    -1.8057380
  H       -4.9525670    -1.3919050    -0.2175730
units angstrom
no_reorient  #important for SAPT in psi4, default
symmetry c1  #important for SAPT in psi4, default
}

set PROPERTIES_ORIGIN ["COM"]
properties('MP2/aug-cc-pvtz', properties = ['dipole'])
--------------------------------------------------------------------------

    Molecular point group: c1
  Charge       = 0
  Multiplicity = 1
  Basis Set: AUG-CC-PVTZ
    Blend: AUG-CC-PVTZ
  Basis Set: (AUG-CC-PVTZ AUX)
    Blend: AUG-CC-PVTZ-JKFIT

    Orbital Energies [Eh]
    ---------------------

    Doubly Occupied:

       1A    -20.598986     2A    -15.563831     3A    -11.341298
       4A    -11.295894     5A    -11.278066     6A    -11.261848
       7A    -11.244660     8A    -11.243869     9A    -11.241520
      10A    -11.236933    11A    -11.236833    12A    -11.232307
      13A    -11.231552    14A    -11.230639    15A     -1.431121
      16A     -1.253970    17A     -1.146086    18A     -1.102399
      19A     -1.052759    20A     -1.015449    21A     -1.003422
      22A     -0.937921    23A     -0.878021    24A     -0.841250
      25A     -0.830555    26A     -0.800713    27A     -0.737126
      28A     -0.704776    29A     -0.679452    30A     -0.655764
      31A     -0.643307    32A     -0.626743    33A     -0.610937
      34A     -0.594931    35A     -0.591105    36A     -0.583430
      37A     -0.565861    38A     -0.561758    39A     -0.543466
      40A     -0.522136    41A     -0.512380    42A     -0.511354
      43A     -0.492912    44A     -0.477209    45A     -0.428546
      46A     -0.384565    47A     -0.335630    48A     -0.332435
      49A     -0.313726

  @DF-RHF Final Energy:  -590.32516937453408

   => Energetics <=

    Nuclear Repulsion Energy =            801.2962578523181492
    One-Electron Energy =               -2391.3599500947370871
    Two-Electron Energy =                 999.7385228678848534
    Total Energy =                       -590.3251693745340845
  Basis Set: (AUG-CC-PVTZ AUX)
    Blend: AUG-CC-PVTZ-RI
    Molecular point group: c1

    Geometry (in Angstrom), charge = 0, multiplicity = 1:

       Center              X                  Y                   Z               Mass
    ------------   -----------------  -----------------  -----------------  -----------------
         O           -0.443472907146     1.295263820650     0.296994813463    15.994914619570
         N            0.832219092854    -0.574771179350    -0.281126186537    14.003074004430
         C            3.253710092854    -0.444797179350    -0.162486186537    12.000000000000
         C            0.776239092854     0.679657820650     0.147857813463    12.000000000000
         C           -1.587153907146     0.509065820650     0.137443813463    12.000000000000
         C            3.147712092854     0.881824820650     0.287551813463    12.000000000000
         C            1.899173092854     1.462201820650     0.450114813463    12.000000000000
         C            2.060119092854    -1.114841179350    -0.426530186537    12.000000000000
         C            4.589231092854    -1.110533179350    -0.349844186537    12.000000000000
         C           -1.885976907146    -0.509284179350     1.042147813463    12.000000000000
         C           -2.463382907146     0.851615820650    -0.888166186537    12.000000000000
         C           -3.088867907146    -1.200759179350     0.903188813463    12.000000000000
         C           -3.668034907146     0.156102820650    -1.012553186537    12.000000000000
         C           -3.981691907146    -0.871710179350    -0.121259186537    12.000000000000
         H            4.045698092854     1.455739820650     0.511424813463     1.007825032230
         H            1.771213092854     2.482634820650     0.797461813463     1.007825032230
         H            2.074959092854    -2.145840179350    -0.779936186537     1.007825032230
         H            5.149414092854    -1.145171179350     0.589873813463     1.007825032230
         H            4.465540092854    -2.136776179350    -0.706197186537     1.007825032230
         H            5.256439492854    -0.522230379350    -1.147107186537     1.007825032230
         H           -1.184611907146    -0.750305179350     1.835479813463     1.007825032230
         H           -2.195149907146     1.655935820650    -1.567376186537     1.007825032230
         H           -3.331306907146    -1.998598179350     1.601024813463     1.007825032230
         H           -4.359555907146     0.418209820650    -1.809582186537     1.007825032230
         H           -4.918871907146    -1.413117179350    -0.221417186537     1.007825032230

  Basis Set: AUG-CC-PVTZ
    Blend: AUG-CC-PVTZ
  Basis Set: (AUG-CC-PVTZ AUX)
    Blend: AUG-CC-PVTZ-JKFIT
	 Reference Energy          =    -590.3251693745340845 [Eh]
	 Singles Energy            =      -0.0000000000000000 [Eh]
	 Same-Spin Energy          =      -0.6439617424726920 [Eh]
	 Opposite-Spin Energy      =      -1.9821231542773057 [Eh]
	 Correlation Energy        =      -2.6260848967499975 [Eh]
	 Total Energy              =    -592.9512542712840286 [Eh]

	 ================> DF-SCS-MP2 Energies <==================
	-----------------------------------------------------------
	 SCS Same-Spin Scale       =       0.3333333333333333 [-]
	 SCS Opposite-Spin Scale   =       1.2000000000000000 [-]
	 SCS Same-Spin Energy      =      -0.2146539141575640 [Eh]
	 SCS Opposite-Spin Energy  =      -2.3785477851327665 [Eh]
	 SCS Correlation Energy    =      -2.5932016992903306 [Eh]
	 SCS Total Energy          =    -592.9183710738244599 [Eh]
	-----------------------------------------------------------

  Dipole Moment: [D]
     X:     1.9527      Y:    -0.1888      Z:     0.1884     Total:     1.9708

*** Psi4 exiting successfully. Buy a developer a beer!
