                               Psi4 1.3.2 release

  ==> Input File <==

--------------------------------------------------------------------------
#psi4
#
memory 32 gb

molecule  {
0 1
  O        1.5353870    -1.6551020    -0.6345320
  N        1.0046660     0.4022290     0.2352610
  C       -0.3967540     0.1698250     0.1061120
  C       -0.9676930    -1.0124890     0.5938810
  C       -1.1900226     1.0857683    -0.6085269
  C        1.4334500     1.7470840     0.6117170
  C        1.9002030    -0.5546920    -0.2186930
  C       -2.3437090    -1.2082300     0.4876030
  C       -2.5901160     0.9502090    -0.5611550
  C       -3.1615570    -0.2292440    -0.0824530
  C        3.3698180    -0.1837380    -0.1580780
  H       -0.3333780    -1.7703900     1.0389010
  H       -0.7697760     2.0586490    -0.8748040
  H        2.3549360     1.7005960     1.1924500
  H        0.6579290     2.1862960     1.2404600
  H        1.5971270     2.4005710    -0.2540720
  H       -2.7807830    -2.1295030     0.8652160
  H       -3.2150400     1.7168070    -1.0131720
  H       -4.2346400    -0.3865090    -0.1557870
  H        3.7069390    -0.0577910     0.8753960
  H        3.5849000     0.7417310    -0.6992960
  H        3.9227600    -1.0051460    -0.6125730
units angstrom
no_reorient  #important for SAPT in psi4, default
symmetry c1  #important for SAPT in psi4, default
}

set PROPERTIES_ORIGIN ["COM"]
properties('MP2/aug-cc-pvtz', properties = ['dipole'])
--------------------------------------------------------------------------

    Molecular point group: c1
  Charge       = 0
  Multiplicity = 1
  Basis Set: AUG-CC-PVTZ
    Blend: AUG-CC-PVTZ
  Basis Set: (AUG-CC-PVTZ AUX)
    Blend: AUG-CC-PVTZ-JKFIT

    Orbital Energies [Eh]
    ---------------------

    Doubly Occupied:

       1A    -20.519047     2A    -15.597548     3A    -11.356346
       4A    -11.279010     5A    -11.276746     6A    -11.240927
       7A    -11.239851     8A    -11.238507     9A    -11.235890
      10A    -11.232471    11A    -11.230898    12A     -1.376309
      13A     -1.258348    14A     -1.141294    15A     -1.029957
      16A     -1.014660    17A     -0.993608    18A     -0.952210
      19A     -0.840097    20A     -0.826908    21A     -0.754740
      22A     -0.694519    23A     -0.679463    24A     -0.661367
      25A     -0.656984    26A     -0.618246    27A     -0.611682
      28A     -0.587380    29A     -0.583267    30A     -0.576798
      31A     -0.564618    32A     -0.558764    33A     -0.522865
      34A     -0.509681    35A     -0.498896    36A     -0.492001
      37A     -0.423300    38A     -0.401686    39A     -0.335182
      40A     -0.317883

  @DF-RHF Final Energy:  -476.69421941818251

   => Energetics <=

    Nuclear Repulsion Energy =            588.8171777956202959
    One-Electron Energy =               -1815.1628861758777020
    Two-Electron Energy =                 749.6514889620748363
    Total Energy =                       -476.6942194181824561
  Basis Set: (AUG-CC-PVTZ AUX)
    Blend: AUG-CC-PVTZ-RI
    Molecular point group: c1

    Geometry (in Angstrom), charge = 0, multiplicity = 1:

       Center              X                  Y                   Z               Mass
    ------------   -----------------  -----------------  -----------------  -----------------
         O            1.563583540601    -1.613723639537    -0.613102731459    15.994914619570
         N            1.032862540601     0.443607360463     0.256690268541    14.003074004430
         C           -0.368557459399     0.211203360463     0.127541268541    12.000000000000
         C           -0.939496459399    -0.971110639537     0.615310268541    12.000000000000
         C           -1.161826059399     1.127146660463    -0.587097631459    12.000000000000
         C            1.461646540601     1.788462360463     0.633146268541    12.000000000000
         C            1.928399540601    -0.513313639537    -0.197263731459    12.000000000000
         C           -2.315512459399    -1.166851639537     0.509032268541    12.000000000000
         C           -2.561919459399     0.991587360463    -0.539725731459    12.000000000000
         C           -3.133360459399    -0.187865639537    -0.061023731459    12.000000000000
         C            3.398014540601    -0.142359639537    -0.136648731459    12.000000000000
         H           -0.305181459399    -1.729011639537     1.060330268541     1.007825032230
         H           -0.741579459399     2.100027360463    -0.853374731459     1.007825032230
         H            2.383132540601     1.741974360463     1.213879268541     1.007825032230
         H            0.686125540601     2.227674360463     1.261889268541     1.007825032230
         H            1.625323540601     2.441949360463    -0.232642731459     1.007825032230
         H           -2.752586459399    -2.088124639537     0.886645268541     1.007825032230
         H           -3.186843459399     1.758185360463    -0.991742731459     1.007825032230
         H           -4.206443459399    -0.345130639537    -0.134357731459     1.007825032230
         H            3.735135540601    -0.016412639537     0.896825268541     1.007825032230
         H            3.613096540601     0.783109360463    -0.677866731459     1.007825032230
         H            3.950956540601    -0.963767639537    -0.591143731459     1.007825032230

  Basis Set: AUG-CC-PVTZ
    Blend: AUG-CC-PVTZ
  Basis Set: (AUG-CC-PVTZ AUX)
    Blend: AUG-CC-PVTZ-JKFIT
	 Reference Energy          =    -476.6942194181825130 [Eh]
	 Singles Energy            =      -0.0000000000000000 [Eh]
	 Same-Spin Energy          =      -0.5118203695147587 [Eh]
	 Opposite-Spin Energy      =      -1.6163254004661327 [Eh]
	 Correlation Energy        =      -2.1281457699808914 [Eh]
	 Total Energy              =    -478.8223651881634169 [Eh]

	 ================> DF-SCS-MP2 Energies <==================
	-----------------------------------------------------------
	 SCS Same-Spin Scale       =       0.3333333333333333 [-]
	 SCS Opposite-Spin Scale   =       1.2000000000000000 [-]
	 SCS Same-Spin Energy      =      -0.1706067898382529 [Eh]
	 SCS Opposite-Spin Energy  =      -1.9395904805593591 [Eh]
	 SCS Correlation Energy    =      -2.1101972703976122 [Eh]
	 SCS Total Energy          =    -478.8044166885801474 [Eh]
	-----------------------------------------------------------

  Dipole Moment: [D]
     X:     0.6453      Y:     3.3255      Z:     1.3603     Total:     3.6505

*** Psi4 exiting successfully. Buy a developer a beer!
