                               Psi4 1.3.2 release

  ==> Input File <==

--------------------------------------------------------------------------
#psi4
#
memory 32 gb

molecule  {
0 1
  O        1.5353870    -1.6551020    -0.6345320
  N        1.0046660     0.4022290     0.2352610
  C       -0.3967540     0.1698250     0.1061120
  C       -0.9676930    -1.0124890     0.5938810
  C       -1.2042935     1.1283174    -0.5191630
  C        1.4334500     1.7470840     0.6117170
  C        1.9002030    -0.5546920    -0.2186930
  C       -2.3437090    -1.2082300     0.4876030
  C       -2.5901160     0.9502090    -0.5611550
  C       -3.1615570    -0.2292440    -0.0824530
  C        3.3698180    -0.1837380    -0.1580780
  H       -0.3333780    -1.7703900     1.0389010
  H       -0.7697760     2.0586490    -0.8748040
  H        2.3549360     1.7005960     1.1924500
  H        0.6579290     2.1862960     1.2404600
  H        1.5971270     2.4005710    -0.2540720
  H       -2.7807830    -2.1295030     0.8652160
  H       -3.2150400     1.7168070    -1.0131720
  H       -4.2346400    -0.3865090    -0.1557870
  H        3.7069390    -0.0577910     0.8753960
  H        3.5849000     0.7417310    -0.6992960
  H        3.9227600    -1.0051460    -0.6125730
units angstrom
no_reorient  #important for SAPT in psi4, default
symmetry c1  #important for SAPT in psi4, default
}

set PROPERTIES_ORIGIN ["COM"]
properties('MP2/aug-cc-pvtz', properties = ['dipole'])
--------------------------------------------------------------------------

    Molecular point group: c1
  Charge       = 0
  Multiplicity = 1
  Basis Set: AUG-CC-PVTZ
    Blend: AUG-CC-PVTZ
  Basis Set: (AUG-CC-PVTZ AUX)
    Blend: AUG-CC-PVTZ-JKFIT

    Orbital Energies [Eh]
    ---------------------

    Doubly Occupied:

       1A    -20.519102     2A    -15.598044     3A    -11.356466
       4A    -11.278143     5A    -11.276728     6A    -11.241004
       7A    -11.238210     8A    -11.236718     9A    -11.235001
      10A    -11.232110    11A    -11.230640    12A     -1.376442
      13A     -1.258733    14A     -1.141971    15A     -1.030135
      16A     -1.015639    17A     -0.993613    18A     -0.952661
      19A     -0.841281    20A     -0.826729    21A     -0.754973
      22A     -0.695432    23A     -0.679561    24A     -0.661945
      25A     -0.657006    26A     -0.618590    27A     -0.612576
      28A     -0.587855    29A     -0.584160    30A     -0.576895
      31A     -0.564686    32A     -0.558999    33A     -0.523126
      34A     -0.510498    35A     -0.497808    36A     -0.494798
      37A     -0.423466    38A     -0.404076    39A     -0.335509
      40A     -0.316169

  @DF-RHF Final Energy:  -476.69999642682069

   => Energetics <=

    Nuclear Repulsion Energy =            589.0303694223651974
    One-Electron Energy =               -1815.5857262623555926
    Two-Electron Energy =                 749.8553604131698194
    Total Energy =                       -476.6999964268206895
  Basis Set: (AUG-CC-PVTZ AUX)
    Blend: AUG-CC-PVTZ-RI
    Molecular point group: c1

    Geometry (in Angstrom), charge = 0, multiplicity = 1:

       Center              X                  Y                   Z               Mass
    ------------   -----------------  -----------------  -----------------  -----------------
         O            1.564732226755    -1.617148480438    -0.620295765854    15.994914619570
         N            1.034011226755     0.440182519562     0.249497234146    14.003074004430
         C           -0.367408773245     0.207778519562     0.120348234146    12.000000000000
         C           -0.938347773245    -0.974535480438     0.608117234146    12.000000000000
         C           -1.174948273245     1.166270919562    -0.504926765854    12.000000000000
         C            1.462795226755     1.785037519562     0.625953234146    12.000000000000
         C            1.929548226755    -0.516738480438    -0.204456765854    12.000000000000
         C           -2.314363773245    -1.170276480438     0.501839234146    12.000000000000
         C           -2.560770773245     0.988162519562    -0.546918765854    12.000000000000
         C           -3.132211773245    -0.191290480438    -0.068216765854    12.000000000000
         C            3.399163226755    -0.145784480438    -0.143841765854    12.000000000000
         H           -0.304032773245    -1.732436480438     1.053137234146     1.007825032230
         H           -0.740430773245     2.096602519562    -0.860567765854     1.007825032230
         H            2.384281226755     1.738549519562     1.206686234146     1.007825032230
         H            0.687274226755     2.224249519562     1.254696234146     1.007825032230
         H            1.626472226755     2.438524519562    -0.239835765854     1.007825032230
         H           -2.751437773245    -2.091549480438     0.879452234146     1.007825032230
         H           -3.185694773245     1.754760519562    -0.998935765854     1.007825032230
         H           -4.205294773245    -0.348555480438    -0.141550765854     1.007825032230
         H            3.736284226755    -0.019837480438     0.889632234146     1.007825032230
         H            3.614245226755     0.779684519562    -0.685059765854     1.007825032230
         H            3.952105226755    -0.967192480438    -0.598336765854     1.007825032230

  Basis Set: AUG-CC-PVTZ
    Blend: AUG-CC-PVTZ
  Basis Set: (AUG-CC-PVTZ AUX)
    Blend: AUG-CC-PVTZ-JKFIT
	 Reference Energy          =    -476.6999964268206895 [Eh]
	 Singles Energy            =      -0.0000000000000000 [Eh]
	 Same-Spin Energy          =      -0.5116040594855796 [Eh]
	 Opposite-Spin Energy      =      -1.6154947503726456 [Eh]
	 Correlation Energy        =      -2.1270988098582251 [Eh]
	 Total Energy              =    -478.8270952366789288 [Eh]

	 ================> DF-SCS-MP2 Energies <==================
	-----------------------------------------------------------
	 SCS Same-Spin Scale       =       0.3333333333333333 [-]
	 SCS Opposite-Spin Scale   =       1.2000000000000000 [-]
	 SCS Same-Spin Energy      =      -0.1705346864951932 [Eh]
	 SCS Opposite-Spin Energy  =      -1.9385937004471745 [Eh]
	 SCS Correlation Energy    =      -2.1091283869423676 [Eh]
	 SCS Total Energy          =    -478.8091248137630487 [Eh]
	-----------------------------------------------------------

  Dipole Moment: [D]
     X:     0.6840      Y:     3.3376      Z:     1.2969     Total:     3.6455

*** Psi4 exiting successfully. Buy a developer a beer!
