                               Psi4 1.3.2 release

  ==> Input File <==

--------------------------------------------------------------------------
#psi4
#
memory 32 gb

molecule  {
0 1
  O        1.5353870    -1.6551020    -0.6345320
  N        1.0046660     0.4022290     0.2352610
  C       -0.3967540     0.1698250     0.1061120
  C       -0.9676930    -1.0124890     0.5938810
  C       -1.1828872     1.0644937    -0.6532089
  C        1.4334500     1.7470840     0.6117170
  C        1.9002030    -0.5546920    -0.2186930
  C       -2.3437090    -1.2082300     0.4876030
  C       -2.5901160     0.9502090    -0.5611550
  C       -3.1615570    -0.2292440    -0.0824530
  C        3.3698180    -0.1837380    -0.1580780
  H       -0.3333780    -1.7703900     1.0389010
  H       -0.7697760     2.0586490    -0.8748040
  H        2.3549360     1.7005960     1.1924500
  H        0.6579290     2.1862960     1.2404600
  H        1.5971270     2.4005710    -0.2540720
  H       -2.7807830    -2.1295030     0.8652160
  H       -3.2150400     1.7168070    -1.0131720
  H       -4.2346400    -0.3865090    -0.1557870
  H        3.7069390    -0.0577910     0.8753960
  H        3.5849000     0.7417310    -0.6992960
  H        3.9227600    -1.0051460    -0.6125730
units angstrom
no_reorient  #important for SAPT in psi4, default
symmetry c1  #important for SAPT in psi4, default
}

set PROPERTIES_ORIGIN ["COM"]
properties('MP2/aug-cc-pvtz', properties = ['dipole'])
--------------------------------------------------------------------------

    Molecular point group: c1
  Charge       = 0
  Multiplicity = 1
  Basis Set: AUG-CC-PVTZ
    Blend: AUG-CC-PVTZ
  Basis Set: (AUG-CC-PVTZ AUX)
    Blend: AUG-CC-PVTZ-JKFIT

    Orbital Energies [Eh]
    ---------------------

    Doubly Occupied:

       1A    -20.519081     2A    -15.597397     3A    -11.356352
       4A    -11.280082     5A    -11.276746     6A    -11.241241
       7A    -11.240916     8A    -11.239955     9A    -11.236730
      10A    -11.232606    11A    -11.230994    12A     -1.376304
      13A     -1.258196    14A     -1.140771    15A     -1.029856
      16A     -1.013893    17A     -0.993536    18A     -0.951978
      19A     -0.839298    20A     -0.826880    21A     -0.754455
      22A     -0.693796    23A     -0.679456    24A     -0.660860
      25A     -0.656895    26A     -0.617901    27A     -0.610877
      28A     -0.587151    29A     -0.582399    30A     -0.576772
      31A     -0.564516    32A     -0.558563    33A     -0.522661
      34A     -0.509166    35A     -0.499215    36A     -0.490084
      37A     -0.423275    38A     -0.400408    39A     -0.335080
      40A     -0.318618

  @DF-RHF Final Energy:  -476.68898665140068

   => Energetics <=

    Nuclear Repulsion Energy =            588.6260273418371298
    One-Electron Energy =               -1814.7801140121755452
    Two-Electron Energy =                 749.4651000189378465
    Total Energy =                       -476.6889866514006826
  Basis Set: (AUG-CC-PVTZ AUX)
    Blend: AUG-CC-PVTZ-RI
    Molecular point group: c1

    Geometry (in Angstrom), charge = 0, multiplicity = 1:

       Center              X                  Y                   Z               Mass
    ------------   -----------------  -----------------  -----------------  -----------------
         O            1.563009201549    -1.612011215062    -0.609506210237    15.994914619570
         N            1.032288201549     0.445319784938     0.260286789763    14.003074004430
         C           -0.369131798451     0.212915784938     0.131137789763    12.000000000000
         C           -0.940070798451    -0.969398215062     0.618906789763    12.000000000000
         C           -1.155264998451     1.107584484938    -0.628183110237    12.000000000000
         C            1.461072201549     1.790174784938     0.636742789763    12.000000000000
         C            1.927825201549    -0.511601215062    -0.193667210237    12.000000000000
         C           -2.316086798451    -1.165139215062     0.512628789763    12.000000000000
         C           -2.562493798451     0.993299784938    -0.536129210237    12.000000000000
         C           -3.133934798451    -0.186153215062    -0.057427210237    12.000000000000
         C            3.397440201549    -0.140647215062    -0.133052210237    12.000000000000
         H           -0.305755798451    -1.727299215062     1.063926789763     1.007825032230
         H           -0.742153798451     2.101739784938    -0.849778210237     1.007825032230
         H            2.382558201549     1.743686784938     1.217475789763     1.007825032230
         H            0.685551201549     2.229386784938     1.265485789763     1.007825032230
         H            1.624749201549     2.443661784938    -0.229046210237     1.007825032230
         H           -2.753160798451    -2.086412215062     0.890241789763     1.007825032230
         H           -3.187417798451     1.759897784938    -0.988146210237     1.007825032230
         H           -4.207017798451    -0.343418215062    -0.130761210237     1.007825032230
         H            3.734561201549    -0.014700215062     0.900421789763     1.007825032230
         H            3.612522201549     0.784821784938    -0.674270210237     1.007825032230
         H            3.950382201549    -0.962055215062    -0.587547210237     1.007825032230

  Basis Set: AUG-CC-PVTZ
    Blend: AUG-CC-PVTZ
  Basis Set: (AUG-CC-PVTZ AUX)
    Blend: AUG-CC-PVTZ-JKFIT
	 Reference Energy          =    -476.6889866514006826 [Eh]
	 Singles Energy            =      -0.0000000000000000 [Eh]
	 Same-Spin Energy          =      -0.5120486001214941 [Eh]
	 Opposite-Spin Energy      =      -1.6171095507688296 [Eh]
	 Correlation Energy        =      -2.1291581508903237 [Eh]
	 Total Energy              =    -478.8181448022909876 [Eh]

	 ================> DF-SCS-MP2 Energies <==================
	-----------------------------------------------------------
	 SCS Same-Spin Scale       =       0.3333333333333333 [-]
	 SCS Opposite-Spin Scale   =       1.2000000000000000 [-]
	 SCS Same-Spin Energy      =      -0.1706828667071647 [Eh]
	 SCS Opposite-Spin Energy  =      -1.9405314609225954 [Eh]
	 SCS Correlation Energy    =      -2.1112143276297601 [Eh]
	 SCS Total Energy          =    -478.8002009790304214 [Eh]
	-----------------------------------------------------------

  Dipole Moment: [D]
     X:     0.6229      Y:     3.3054      Z:     1.3985     Total:     3.6427

*** Psi4 exiting successfully. Buy a developer a beer!
