                               Psi4 1.3.2 release

  ==> Input File <==

--------------------------------------------------------------------------
#psi4
#
memory 32 gb

molecule  {
0 1
  O        1.5353870    -1.6551020    -0.6345320
  N        1.0046660     0.4022290     0.2352610
  C       -0.3967540     0.1698250     0.1061120
  C       -0.9676930    -1.0124890     0.5938810
  C       -1.1757517     1.0432191    -0.6978908
  C        1.4334500     1.7470840     0.6117170
  C        1.9002030    -0.5546920    -0.2186930
  C       -2.3437090    -1.2082300     0.4876030
  C       -2.5901160     0.9502090    -0.5611550
  C       -3.1615570    -0.2292440    -0.0824530
  C        3.3698180    -0.1837380    -0.1580780
  H       -0.3333780    -1.7703900     1.0389010
  H       -0.7697760     2.0586490    -0.8748040
  H        2.3549360     1.7005960     1.1924500
  H        0.6579290     2.1862960     1.2404600
  H        1.5971270     2.4005710    -0.2540720
  H       -2.7807830    -2.1295030     0.8652160
  H       -3.2150400     1.7168070    -1.0131720
  H       -4.2346400    -0.3865090    -0.1557870
  H        3.7069390    -0.0577910     0.8753960
  H        3.5849000     0.7417310    -0.6992960
  H        3.9227600    -1.0051460    -0.6125730
units angstrom
no_reorient  #important for SAPT in psi4, default
symmetry c1  #important for SAPT in psi4, default
}

set PROPERTIES_ORIGIN ["COM"]
properties('MP2/aug-cc-pvtz', properties = ['dipole'])
--------------------------------------------------------------------------

    Molecular point group: c1
  Charge       = 0
  Multiplicity = 1
  Basis Set: AUG-CC-PVTZ
    Blend: AUG-CC-PVTZ
  Basis Set: (AUG-CC-PVTZ AUX)
    Blend: AUG-CC-PVTZ-JKFIT

    Orbital Energies [Eh]
    ---------------------

    Doubly Occupied:

       1A    -20.519152     2A    -15.597310     3A    -11.356399
       4A    -11.281554     5A    -11.276746     6A    -11.242979
       7A    -11.241738     8A    -11.240922     9A    -11.237852
      10A    -11.232713    11A    -11.231073    12A     -1.376338
      13A     -1.258074    14A     -1.140145    15A     -1.029753
      16A     -1.012948    17A     -0.993403    18A     -0.951740
      19A     -0.838400    20A     -0.826772    21A     -0.754085
      22A     -0.692977    23A     -0.679479    24A     -0.660239
      25A     -0.656750    26A     -0.617533    27A     -0.609774
      28A     -0.586960    29A     -0.581275    30A     -0.576748
      31A     -0.564359    32A     -0.558280    33A     -0.522420
      34A     -0.508546    35A     -0.499389    36A     -0.487787
      37A     -0.423285    38A     -0.399079    39A     -0.335054
      40A     -0.319264

  @DF-RHF Final Energy:  -476.68215302727208

   => Energetics <=

    Nuclear Repulsion Energy =            588.3808716787724507
    One-Electron Energy =               -1814.2874576893625544
    Two-Electron Energy =                 749.2244329833181382
    Total Energy =                       -476.6821530272720793
  Basis Set: (AUG-CC-PVTZ AUX)
    Blend: AUG-CC-PVTZ-RI
    Molecular point group: c1

    Geometry (in Angstrom), charge = 0, multiplicity = 1:

       Center              X                  Y                   Z               Mass
    ------------   -----------------  -----------------  -----------------  -----------------
         O            1.562434854448    -1.610298790587    -0.605909697063    15.994914619570
         N            1.031713854448     0.447032209413     0.263883302937    14.003074004430
         C           -0.369706145552     0.214628209413     0.134734302937    12.000000000000
         C           -0.940645145552    -0.967685790587     0.622503302937    12.000000000000
         C           -1.148703845552     1.088022309413    -0.669268497063    12.000000000000
         C            1.460497854448     1.791887209413     0.640339302937    12.000000000000
         C            1.927250854448    -0.509888790587    -0.190070697063    12.000000000000
         C           -2.316661145552    -1.163426790587     0.516225302937    12.000000000000
         C           -2.563068145552     0.995012209413    -0.532532697063    12.000000000000
         C           -3.134509145552    -0.184440790587    -0.053830697063    12.000000000000
         C            3.396865854448    -0.138934790587    -0.129455697063    12.000000000000
         H           -0.306330145552    -1.725586790587     1.067523302937     1.007825032230
         H           -0.742728145552     2.103452209413    -0.846181697063     1.007825032230
         H            2.381983854448     1.745399209413     1.221072302937     1.007825032230
         H            0.684976854448     2.231099209413     1.269082302937     1.007825032230
         H            1.624174854448     2.445374209413    -0.225449697063     1.007825032230
         H           -2.753735145552    -2.084699790587     0.893838302937     1.007825032230
         H           -3.187992145552     1.761610209413    -0.984549697063     1.007825032230
         H           -4.207592145552    -0.341705790587    -0.127164697063     1.007825032230
         H            3.733986854448    -0.012987790587     0.904018302937     1.007825032230
         H            3.611947854448     0.786534209413    -0.670673697063     1.007825032230
         H            3.949807854448    -0.960342790587    -0.583950697063     1.007825032230

  Basis Set: AUG-CC-PVTZ
    Blend: AUG-CC-PVTZ
  Basis Set: (AUG-CC-PVTZ AUX)
    Blend: AUG-CC-PVTZ-JKFIT
	 Reference Energy          =    -476.6821530272720793 [Eh]
	 Singles Energy            =      -0.0000000000000000 [Eh]
	 Same-Spin Energy          =      -0.5123521248311715 [Eh]
	 Opposite-Spin Energy      =      -1.6181294682878873 [Eh]
	 Correlation Energy        =      -2.1304815931190588 [Eh]
	 Total Energy              =    -478.8126346203911226 [Eh]

	 ================> DF-SCS-MP2 Energies <==================
	-----------------------------------------------------------
	 SCS Same-Spin Scale       =       0.3333333333333333 [-]
	 SCS Opposite-Spin Scale   =       1.2000000000000000 [-]
	 SCS Same-Spin Energy      =      -0.1707840416103905 [Eh]
	 SCS Opposite-Spin Energy  =      -1.9417553619454646 [Eh]
	 SCS Correlation Energy    =      -2.1125394035558553 [Eh]
	 SCS Total Energy          =    -478.7946924308279222 [Eh]
	-----------------------------------------------------------

  Dipole Moment: [D]
     X:     0.5987      Y:     3.2763      Z:     1.4411     Total:     3.6290

*** Psi4 exiting successfully. Buy a developer a beer!
