                               Psi4 1.3.2 release

  ==> Input File <==

--------------------------------------------------------------------------
#psi4
#
memory 32 gb

molecule  {
0 1
  O        1.5353870    -1.6551020    -0.6345320
  N        1.0046660     0.4022290     0.2352610
  C       -0.3967540     0.1698250     0.1061120
  C       -0.9676930    -1.0124890     0.5938810
  C       -1.1686163     1.0219446    -0.7425728
  C        1.4334500     1.7470840     0.6117170
  C        1.9002030    -0.5546920    -0.2186930
  C       -2.3437090    -1.2082300     0.4876030
  C       -2.5901160     0.9502090    -0.5611550
  C       -3.1615570    -0.2292440    -0.0824530
  C        3.3698180    -0.1837380    -0.1580780
  H       -0.3333780    -1.7703900     1.0389010
  H       -0.7697760     2.0586490    -0.8748040
  H        2.3549360     1.7005960     1.1924500
  H        0.6579290     2.1862960     1.2404600
  H        1.5971270     2.4005710    -0.2540720
  H       -2.7807830    -2.1295030     0.8652160
  H       -3.2150400     1.7168070    -1.0131720
  H       -4.2346400    -0.3865090    -0.1557870
  H        3.7069390    -0.0577910     0.8753960
  H        3.5849000     0.7417310    -0.6992960
  H        3.9227600    -1.0051460    -0.6125730
units angstrom
no_reorient  #important for SAPT in psi4, default
symmetry c1  #important for SAPT in psi4, default
}

set PROPERTIES_ORIGIN ["COM"]
properties('MP2/aug-cc-pvtz', properties = ['dipole'])
--------------------------------------------------------------------------

    Molecular point group: c1
  Charge       = 0
  Multiplicity = 1
  Basis Set: AUG-CC-PVTZ
    Blend: AUG-CC-PVTZ
  Basis Set: (AUG-CC-PVTZ AUX)
    Blend: AUG-CC-PVTZ-JKFIT

    Orbital Energies [Eh]
    ---------------------

    Doubly Occupied:

       1A    -20.519259     2A    -15.597290     3A    -11.356487
       4A    -11.283397     5A    -11.276747     6A    -11.245034
       7A    -11.243823     8A    -11.240944     9A    -11.239264
      10A    -11.232801    11A    -11.231144    12A     -1.376409
      13A     -1.257983    14A     -1.139440    15A     -1.029657
      16A     -1.011840    17A     -0.993190    18A     -0.951496
      19A     -0.837438    20A     -0.826585    21A     -0.753659
      22A     -0.692134    23A     -0.679534    24A     -0.659536
      25A     -0.656553    26A     -0.617214    27A     -0.608335
      28A     -0.586809    29A     -0.579996    30A     -0.576702
      31A     -0.564137    32A     -0.557881    33A     -0.522152
      34A     -0.507784    35A     -0.499412    36A     -0.485079
      37A     -0.423326    38A     -0.397703    39A     -0.335138
      40A     -0.319814

  @DF-RHF Final Energy:  -476.67369137807486

   => Energetics <=

    Nuclear Repulsion Energy =            588.0840292893323067
    One-Electron Energy =               -1813.6891888091699911
    Two-Electron Energy =                 748.9314681417629345
    Total Energy =                       -476.6736913780748637
  Basis Set: (AUG-CC-PVTZ AUX)
    Blend: AUG-CC-PVTZ-RI
    Molecular point group: c1

    Geometry (in Angstrom), charge = 0, multiplicity = 1:

       Center              X                  Y                   Z               Mass
    ------------   -----------------  -----------------  -----------------  -----------------
         O            1.561860515396    -1.608586374161    -0.602313175841    15.994914619570
         N            1.031139515396     0.448744625839     0.267479824159    14.003074004430
         C           -0.370280484604     0.216340625839     0.138330824159    12.000000000000
         C           -0.941219484604    -0.965973374161     0.626099824159    12.000000000000
         C           -1.142142784604     1.068460225839    -0.710353975841    12.000000000000
         C            1.459923515396     1.793599625839     0.643935824159    12.000000000000
         C            1.926676515396    -0.508176374161    -0.186474175841    12.000000000000
         C           -2.317235484604    -1.161714374161     0.519821824159    12.000000000000
         C           -2.563642484604     0.996724625839    -0.528936175841    12.000000000000
         C           -3.135083484604    -0.182728374161    -0.050234175841    12.000000000000
         C            3.396291515396    -0.137222374161    -0.125859175841    12.000000000000
         H           -0.306904484604    -1.723874374161     1.071119824159     1.007825032230
         H           -0.743302484604     2.105164625839    -0.842585175841     1.007825032230
         H            2.381409515396     1.747111625839     1.224668824159     1.007825032230
         H            0.684402515396     2.232811625839     1.272678824159     1.007825032230
         H            1.623600515396     2.447086625839    -0.221853175841     1.007825032230
         H           -2.754309484604    -2.082987374161     0.897434824159     1.007825032230
         H           -3.188566484604     1.763322625839    -0.980953175841     1.007825032230
         H           -4.208166484604    -0.339993374161    -0.123568175841     1.007825032230
         H            3.733412515396    -0.011275374161     0.907614824159     1.007825032230
         H            3.611373515396     0.788246625839    -0.667077175841     1.007825032230
         H            3.949233515396    -0.958630374161    -0.580354175841     1.007825032230

  Basis Set: AUG-CC-PVTZ
    Blend: AUG-CC-PVTZ
  Basis Set: (AUG-CC-PVTZ AUX)
    Blend: AUG-CC-PVTZ-JKFIT
	 Reference Energy          =    -476.6736913780748637 [Eh]
	 Singles Energy            =      -0.0000000000000000 [Eh]
	 Same-Spin Energy          =      -0.5127254430821566 [Eh]
	 Opposite-Spin Energy      =      -1.6193732108375452 [Eh]
	 Correlation Energy        =      -2.1320986539197015 [Eh]
	 Total Energy              =    -478.8057900319945475 [Eh]

	 ================> DF-SCS-MP2 Energies <==================
	-----------------------------------------------------------
	 SCS Same-Spin Scale       =       0.3333333333333333 [-]
	 SCS Opposite-Spin Scale   =       1.2000000000000000 [-]
	 SCS Same-Spin Energy      =      -0.1709084810273855 [Eh]
	 SCS Opposite-Spin Energy  =      -1.9432478530050541 [Eh]
	 SCS Correlation Energy    =      -2.1141563340324394 [Eh]
	 SCS Total Energy          =    -478.7878477121072933 [Eh]
	-----------------------------------------------------------

  Dipole Moment: [D]
     X:     0.5727      Y:     3.2388      Z:     1.4878     Total:     3.6099

*** Psi4 exiting successfully. Buy a developer a beer!
