                               Psi4 1.3.2 release

  ==> Input File <==

--------------------------------------------------------------------------
#psi4
#
memory 32 gb

molecule  {
0 1
  O        1.5353870    -1.6551020    -0.6345320
  N        1.0046660     0.4022290     0.2352610
  C       -0.3967540     0.1698250     0.1061120
  C       -0.9676930    -1.0124890     0.5938810
  C       -1.1971581     1.1070429    -0.5638449
  C        1.4334500     1.7470840     0.6117170
  C        1.9002030    -0.5546920    -0.2186930
  C       -2.3437090    -1.2082300     0.4876030
  C       -2.5901160     0.9502090    -0.5611550
  C       -3.1615570    -0.2292440    -0.0824530
  C        3.3698180    -0.1837380    -0.1580780
  H       -0.3333780    -1.7703900     1.0389010
  H       -0.7697760     2.0586490    -0.8748040
  H        2.3549360     1.7005960     1.1924500
  H        0.6579290     2.1862960     1.2404600
  H        1.5971270     2.4005710    -0.2540720
  H       -2.7807830    -2.1295030     0.8652160
  H       -3.2150400     1.7168070    -1.0131720
  H       -4.2346400    -0.3865090    -0.1557870
  H        3.7069390    -0.0577910     0.8753960
  H        3.5849000     0.7417310    -0.6992960
  H        3.9227600    -1.0051460    -0.6125730
units angstrom
no_reorient  #important for SAPT in psi4, default
symmetry c1  #important for SAPT in psi4, default
}

set PROPERTIES_ORIGIN ["COM"]
properties('MP2/aug-cc-pvtz', properties = ['dipole'])
--------------------------------------------------------------------------

    Molecular point group: c1
  Charge       = 0
  Multiplicity = 1
  Basis Set: AUG-CC-PVTZ
    Blend: AUG-CC-PVTZ
  Basis Set: (AUG-CC-PVTZ AUX)
    Blend: AUG-CC-PVTZ-JKFIT

    Orbital Energies [Eh]
    ---------------------

    Doubly Occupied:

       1A    -20.519053     2A    -15.597764     3A    -11.356383
       4A    -11.278360     5A    -11.276741     6A    -11.240956
       7A    -11.238835     8A    -11.237422     9A    -11.235318
      10A    -11.232305    11A    -11.230781    12A     -1.376354
      13A     -1.258528    14A     -1.141698    15A     -1.030052
      16A     -1.015242    17A     -0.993632    18A     -0.952438
      19A     -0.840766    20A     -0.826858    21A     -0.754918
      22A     -0.695080    23A     -0.679499    24A     -0.661735
      25A     -0.657019    26A     -0.618494    27A     -0.612236
      28A     -0.587628    29A     -0.583849    30A     -0.576839
      31A     -0.564674    32A     -0.558905    33A     -0.523023
      34A     -0.510119    35A     -0.498431    36A     -0.493565
      37A     -0.423363    38A     -0.402910    39A     -0.335332
      40A     -0.317064

  @DF-RHF Final Energy:  -476.69788072126340

   => Energetics <=

    Nuclear Repulsion Energy =            588.9524273624757598
    One-Electron Energy =               -1815.4322849443669838
    Two-Electron Energy =                 749.7819768606278785
    Total Energy =                       -476.6978807212634592
  Basis Set: (AUG-CC-PVTZ AUX)
    Blend: AUG-CC-PVTZ-RI
    Molecular point group: c1

    Geometry (in Angstrom), charge = 0, multiplicity = 1:

       Center              X                  Y                   Z               Mass
    ------------   -----------------  -----------------  -----------------  -----------------
         O            1.564157887703    -1.615436064012    -0.616699252681    15.994914619570
         N            1.033436887703     0.441894935988     0.253093747319    14.003074004430
         C           -0.367983112297     0.209490935988     0.123944747319    12.000000000000
         C           -0.938922112297    -0.972823064012     0.611713747319    12.000000000000
         C           -1.168387212297     1.146708835988    -0.546012152681    12.000000000000
         C            1.462220887703     1.786749935988     0.629549747319    12.000000000000
         C            1.928973887703    -0.515026064012    -0.200860252681    12.000000000000
         C           -2.314938112297    -1.168564064012     0.505435747319    12.000000000000
         C           -2.561345112297     0.989874935988    -0.543322252681    12.000000000000
         C           -3.132786112297    -0.189578064012    -0.064620252681    12.000000000000
         C            3.398588887703    -0.144072064012    -0.140245252681    12.000000000000
         H           -0.304607112297    -1.730724064012     1.056733747319     1.007825032230
         H           -0.741005112297     2.098314935988    -0.856971252681     1.007825032230
         H            2.383706887703     1.740261935988     1.210282747319     1.007825032230
         H            0.686699887703     2.225961935988     1.258292747319     1.007825032230
         H            1.625897887703     2.440236935988    -0.236239252681     1.007825032230
         H           -2.752012112297    -2.089837064012     0.883048747319     1.007825032230
         H           -3.186269112297     1.756472935988    -0.995339252681     1.007825032230
         H           -4.205869112297    -0.346843064012    -0.137954252681     1.007825032230
         H            3.735709887703    -0.018125064012     0.893228747319     1.007825032230
         H            3.613670887703     0.781396935988    -0.681463252681     1.007825032230
         H            3.951530887703    -0.965480064012    -0.594740252681     1.007825032230

  Basis Set: AUG-CC-PVTZ
    Blend: AUG-CC-PVTZ
  Basis Set: (AUG-CC-PVTZ AUX)
    Blend: AUG-CC-PVTZ-JKFIT
	 Reference Energy          =    -476.6978807212634024 [Eh]
	 Singles Energy            =      -0.0000000000000000 [Eh]
	 Same-Spin Energy          =      -0.5116715736498714 [Eh]
	 Opposite-Spin Energy      =      -1.6157871617448589 [Eh]
	 Correlation Energy        =      -2.1274587353947303 [Eh]
	 Total Energy              =    -478.8253394566581278 [Eh]

	 ================> DF-SCS-MP2 Energies <==================
	-----------------------------------------------------------
	 SCS Same-Spin Scale       =       0.3333333333333333 [-]
	 SCS Opposite-Spin Scale   =       1.2000000000000000 [-]
	 SCS Same-Spin Energy      =      -0.1705571912166238 [Eh]
	 SCS Opposite-Spin Energy  =      -1.9389445940938306 [Eh]
	 SCS Correlation Energy    =      -2.1095017853104543 [Eh]
	 SCS Total Energy          =    -478.8073825065738447 [Eh]
	-----------------------------------------------------------

  Dipole Moment: [D]
     X:     0.6657      Y:     3.3363      Z:     1.3265     Total:     3.6516

*** Psi4 exiting successfully. Buy a developer a beer!
