                               Psi4 1.3.2 release

  ==> Input File <==

--------------------------------------------------------------------------
#psi4
#
memory 32 gb

molecule  {
0 1
  O        1.7330970     0.1672710     0.0000140
  O       -1.7330910    -0.1672830     0.0000460
  C        0.6456620    -0.3952850     0.0000220
  C       -0.6456700     0.3952990    -0.0001290
  H        0.5273430    -1.4940472     0.2499470
  H       -0.5273580     1.4940580     0.0002160
units angstrom
no_reorient  #important for SAPT in psi4, default
symmetry c1  #important for SAPT in psi4, default
}

set PROPERTIES_ORIGIN ["COM"]
properties('MP2/aug-cc-pvtz', properties = ['dipole'])
--------------------------------------------------------------------------

    Molecular point group: c1
  Charge       = 0
  Multiplicity = 1
  Basis Set: AUG-CC-PVTZ
    Blend: AUG-CC-PVTZ
  Basis Set: (AUG-CC-PVTZ AUX)
    Blend: AUG-CC-PVTZ-JKFIT

    Orbital Energies [Eh]
    ---------------------

    Doubly Occupied:

       1A    -20.611848     2A    -20.611097     3A    -11.374459
       4A    -11.372464     5A     -1.436279     6A     -1.419025
       7A     -0.973146     8A     -0.824374     9A     -0.707582
      10A     -0.704374    11A     -0.656357    12A     -0.591153
      13A     -0.528758    14A     -0.524984    15A     -0.446915

  @DF-RHF Final Energy:  -226.67115021742606

   => Energetics <=

    Nuclear Repulsion Energy =            101.0798087670941072
    One-Electron Energy =                -509.9362863739837053
    Two-Electron Energy =                 182.1853273894635379
    Total Energy =                       -226.6711502174260602
  Basis Set: (AUG-CC-PVTZ AUX)
    Blend: AUG-CC-PVTZ-RI
    Molecular point group: c1

    Geometry (in Angstrom), charge = 0, multiplicity = 1:

       Center              X                  Y                   Z               Mass
    ------------   -----------------  -----------------  -----------------  -----------------
         O            1.733097261146     0.167271225056    -0.004326904195    15.994914619570
         O           -1.733090738854    -0.167282774944    -0.004294904195    15.994914619570
         C            0.645662261146    -0.395284774944    -0.004318904195    12.000000000000
         C           -0.645669738854     0.395299225056    -0.004469904195    12.000000000000
         H            0.527343261146    -1.494046974944     0.245606095805     1.007825032230
         H           -0.527357738854     1.494058225056    -0.004124904195     1.007825032230

  Basis Set: AUG-CC-PVTZ
    Blend: AUG-CC-PVTZ
  Basis Set: (AUG-CC-PVTZ AUX)
    Blend: AUG-CC-PVTZ-JKFIT
	 Reference Energy          =    -226.6711502174260602 [Eh]
	 Singles Energy            =      -0.0000000000000000 [Eh]
	 Same-Spin Energy          =      -0.2082625402333894 [Eh]
	 Opposite-Spin Energy      =      -0.6421950446874343 [Eh]
	 Correlation Energy        =      -0.8504575849208236 [Eh]
	 Total Energy              =    -227.5216078023468924 [Eh]

	 ================> DF-SCS-MP2 Energies <==================
	-----------------------------------------------------------
	 SCS Same-Spin Scale       =       0.3333333333333333 [-]
	 SCS Opposite-Spin Scale   =       1.2000000000000000 [-]
	 SCS Same-Spin Energy      =      -0.0694208467444631 [Eh]
	 SCS Opposite-Spin Energy  =      -0.7706340536249211 [Eh]
	 SCS Correlation Energy    =      -0.8400549003693842 [Eh]
	 SCS Total Energy          =    -227.5112051177954413 [Eh]
	-----------------------------------------------------------

  Dipole Moment: [D]
     X:     0.0053      Y:     0.0452      Z:     0.1029     Total:     0.1125

*** Psi4 exiting successfully. Buy a developer a beer!
