                               Psi4 1.3.2 release

  ==> Input File <==

--------------------------------------------------------------------------
#psi4
#
memory 32 gb

molecule  {
0 1
  O        1.7330970     0.1672710     0.0000140
  O       -1.7330910    -0.1672830     0.0000460
  C        0.6456620    -0.3952850     0.0000220
  C       -0.6456700     0.3952990    -0.0001290
  H        0.5273520    -1.4940477     0.0999470
  H       -0.5273580     1.4940580     0.0002160
units angstrom
no_reorient  #important for SAPT in psi4, default
symmetry c1  #important for SAPT in psi4, default
}

set PROPERTIES_ORIGIN ["COM"]
properties('MP2/aug-cc-pvtz', properties = ['dipole'])
--------------------------------------------------------------------------

    Molecular point group: c1
  Charge       = 0
  Multiplicity = 1
  Basis Set: AUG-CC-PVTZ
    Blend: AUG-CC-PVTZ
  Basis Set: (AUG-CC-PVTZ AUX)
    Blend: AUG-CC-PVTZ-JKFIT

    Orbital Energies [Eh]
    ---------------------

    Doubly Occupied:

       1A    -20.611169     2A    -20.611051     3A    -11.372431
       4A    -11.371720     5A     -1.436038     6A     -1.418734
       7A     -0.973987     8A     -0.828170     9A     -0.707404
      10A     -0.706039    11A     -0.657084    12A     -0.591664
      13A     -0.528059    14A     -0.526091    15A     -0.447736

  @DF-RHF Final Energy:  -226.67428918226051

   => Energetics <=

    Nuclear Repulsion Energy =            101.1656321715533124
    One-Electron Energy =                -510.1050861629041719
    Two-Electron Energy =                 182.2651648090903791
    Total Energy =                       -226.6742891822605088
  Basis Set: (AUG-CC-PVTZ AUX)
    Blend: AUG-CC-PVTZ-RI
    Molecular point group: c1

    Geometry (in Angstrom), charge = 0, multiplicity = 1:

       Center              X                  Y                   Z               Mass
    ------------   -----------------  -----------------  -----------------  -----------------
         O            1.733097104774     0.167271233743    -0.001720706355    15.994914619570
         O           -1.733090895226    -0.167282766257    -0.001688706355    15.994914619570
         C            0.645662104774    -0.395284766257    -0.001712706355    12.000000000000
         C           -0.645669895226     0.395299233743    -0.001863706355    12.000000000000
         H            0.527352104774    -1.494047466257     0.098212293645     1.007825032230
         H           -0.527357895226     1.494058233743    -0.001518706355     1.007825032230

  Basis Set: AUG-CC-PVTZ
    Blend: AUG-CC-PVTZ
  Basis Set: (AUG-CC-PVTZ AUX)
    Blend: AUG-CC-PVTZ-JKFIT
	 Reference Energy          =    -226.6742891822605088 [Eh]
	 Singles Energy            =      -0.0000000000000000 [Eh]
	 Same-Spin Energy          =      -0.2080883466142754 [Eh]
	 Opposite-Spin Energy      =      -0.6418313285001112 [Eh]
	 Correlation Energy        =      -0.8499196751143866 [Eh]
	 Total Energy              =    -227.5242088573749015 [Eh]

	 ================> DF-SCS-MP2 Energies <==================
	-----------------------------------------------------------
	 SCS Same-Spin Scale       =       0.3333333333333333 [-]
	 SCS Opposite-Spin Scale   =       1.2000000000000000 [-]
	 SCS Same-Spin Energy      =      -0.0693627822047585 [Eh]
	 SCS Opposite-Spin Energy  =      -0.7701975942001333 [Eh]
	 SCS Correlation Energy    =      -0.8395603764048918 [Eh]
	 SCS Total Energy          =    -227.5138495586654130 [Eh]
	-----------------------------------------------------------

  Dipole Moment: [D]
     X:     0.0008      Y:     0.0072      Z:     0.0426     Total:     0.0432

*** Psi4 exiting successfully. Buy a developer a beer!
