                               Psi4 1.3.2 release

  ==> Input File <==

--------------------------------------------------------------------------
#psi4
#
memory 32 gb

molecule  {
0 1
  O        1.7330970     0.1672710     0.0000140
  O       -1.7330910    -0.1672830     0.0000460
  C        0.6456620    -0.3952850     0.0000220
  C       -0.6456700     0.3952990    -0.0001290
  H        0.5273401    -1.4940471     0.2999470
  H       -0.5273580     1.4940580     0.0002160
units angstrom
no_reorient  #important for SAPT in psi4, default
symmetry c1  #important for SAPT in psi4, default
}

set PROPERTIES_ORIGIN ["COM"]
properties('MP2/aug-cc-pvtz', properties = ['dipole'])
--------------------------------------------------------------------------

    Molecular point group: c1
  Charge       = 0
  Multiplicity = 1
  Basis Set: AUG-CC-PVTZ
    Blend: AUG-CC-PVTZ
  Basis Set: (AUG-CC-PVTZ AUX)
    Blend: AUG-CC-PVTZ-JKFIT

    Orbital Energies [Eh]
    ---------------------

    Doubly Occupied:

       1A    -20.612210     2A    -20.611126     3A    -11.375558
       4A    -11.372792     5A     -1.436412     6A     -1.419179
       7A     -0.972768     8A     -0.822544     9A     -0.707734
      10A     -0.703485    11A     -0.655953    12A     -0.590906
      13A     -0.529048    14A     -0.524478    15A     -0.446471

  @DF-RHF Final Energy:  -226.66935400269404

   => Energetics <=

    Nuclear Repulsion Energy =            101.0364417168514422
    One-Electron Energy =                -509.8502608366446225
    Two-Electron Energy =                 182.1444651170991165
    Total Energy =                       -226.6693540026940354
  Basis Set: (AUG-CC-PVTZ AUX)
    Blend: AUG-CC-PVTZ-RI
    Molecular point group: c1

    Geometry (in Angstrom), charge = 0, multiplicity = 1:

       Center              X                  Y                   Z               Mass
    ------------   -----------------  -----------------  -----------------  -----------------
         O            1.733097311532     0.167271223318    -0.005195636808    15.994914619570
         O           -1.733090688468    -0.167282776682    -0.005163636808    15.994914619570
         C            0.645662311532    -0.395284776682    -0.005187636808    12.000000000000
         C           -0.645669688468     0.395299223318    -0.005338636808    12.000000000000
         H            0.527340411532    -1.494046876682     0.294737363192     1.007825032230
         H           -0.527357688468     1.494058223318    -0.004993636808     1.007825032230

  Basis Set: AUG-CC-PVTZ
    Blend: AUG-CC-PVTZ
  Basis Set: (AUG-CC-PVTZ AUX)
    Blend: AUG-CC-PVTZ-JKFIT
	 Reference Energy          =    -226.6693540026940354 [Eh]
	 Singles Energy            =      -0.0000000000000000 [Eh]
	 Same-Spin Energy          =      -0.2083541778775596 [Eh]
	 Opposite-Spin Energy      =      -0.6423990431731159 [Eh]
	 Correlation Energy        =      -0.8507532210506755 [Eh]
	 Total Energy              =    -227.5201072237447022 [Eh]

	 ================> DF-SCS-MP2 Energies <==================
	-----------------------------------------------------------
	 SCS Same-Spin Scale       =       0.3333333333333333 [-]
	 SCS Opposite-Spin Scale   =       1.2000000000000000 [-]
	 SCS Same-Spin Energy      =      -0.0694513926258532 [Eh]
	 SCS Opposite-Spin Energy  =      -0.7708788518077391 [Eh]
	 SCS Correlation Energy    =      -0.8403302444335923 [Eh]
	 SCS Total Energy          =    -227.5096842471276375 [Eh]
	-----------------------------------------------------------

  Dipole Moment: [D]
     X:     0.0076      Y:     0.0652      Z:     0.1211     Total:     0.1378

*** Psi4 exiting successfully. Buy a developer a beer!
