                               Psi4 1.3.2 release

  ==> Input File <==

--------------------------------------------------------------------------
#psi4
#
memory 32 gb

molecule  {
0 1
  O        1.7330970     0.1672710     0.0000140
  O       -1.7330910    -0.1672830     0.0000460
  C        0.6456620    -0.3952850     0.0000220
  C       -0.6456700     0.3952990    -0.0001290
  H        0.5273490    -1.4940475     0.1499470
  H       -0.5273580     1.4940580     0.0002160
units angstrom
no_reorient  #important for SAPT in psi4, default
symmetry c1  #important for SAPT in psi4, default
}

set PROPERTIES_ORIGIN ["COM"]
properties('MP2/aug-cc-pvtz', properties = ['dipole'])
--------------------------------------------------------------------------

    Molecular point group: c1
  Charge       = 0
  Multiplicity = 1
  Basis Set: AUG-CC-PVTZ
    Blend: AUG-CC-PVTZ
  Basis Set: (AUG-CC-PVTZ AUX)
    Blend: AUG-CC-PVTZ-JKFIT

    Orbital Energies [Eh]
    ---------------------

    Doubly Occupied:

       1A    -20.611330     2A    -20.611061     3A    -11.372879
       4A    -11.371938     5A     -1.436094     6A     -1.418803
       7A     -0.973772     8A     -0.827229     9A     -0.707415
      10A     -0.705665    11A     -0.656917    12A     -0.591537
      13A     -0.528259    14A     -0.525795    15A     -0.447543

  @DF-RHF Final Energy:  -226.67358027215599

   => Energetics <=

    Nuclear Repulsion Energy =            101.1448239713243566
    One-Electron Energy =                -510.0643369490687746
    Two-Electron Energy =                 182.2459327055884444
    Total Energy =                       -226.6735802721559878
  Basis Set: (AUG-CC-PVTZ AUX)
    Blend: AUG-CC-PVTZ-RI
    Molecular point group: c1

    Geometry (in Angstrom), charge = 0, multiplicity = 1:

       Center              X                  Y                   Z               Mass
    ------------   -----------------  -----------------  -----------------  -----------------
         O            1.733097156898     0.167271230268    -0.002589438968    15.994914619570
         O           -1.733090843102    -0.167282769732    -0.002557438968    15.994914619570
         C            0.645662156898    -0.395284769732    -0.002581438968    12.000000000000
         C           -0.645669843102     0.395299230268    -0.002732438968    12.000000000000
         H            0.527349156898    -1.494047269732     0.147343561032     1.007825032230
         H           -0.527357843102     1.494058230268    -0.002387438968     1.007825032230

  Basis Set: AUG-CC-PVTZ
    Blend: AUG-CC-PVTZ
  Basis Set: (AUG-CC-PVTZ AUX)
    Blend: AUG-CC-PVTZ-JKFIT
	 Reference Energy          =    -226.6735802721559878 [Eh]
	 Singles Energy            =      -0.0000000000000000 [Eh]
	 Same-Spin Energy          =      -0.2081296966601745 [Eh]
	 Opposite-Spin Energy      =      -0.6419142050534519 [Eh]
	 Correlation Energy        =      -0.8500439017136263 [Eh]
	 Total Energy              =    -227.5236241738696208 [Eh]

	 ================> DF-SCS-MP2 Energies <==================
	-----------------------------------------------------------
	 SCS Same-Spin Scale       =       0.3333333333333333 [-]
	 SCS Opposite-Spin Scale   =       1.2000000000000000 [-]
	 SCS Same-Spin Energy      =      -0.0693765655533915 [Eh]
	 SCS Opposite-Spin Energy  =      -0.7702970460641422 [Eh]
	 SCS Correlation Energy    =      -0.8396736116175336 [Eh]
	 SCS Total Energy          =    -227.5132538837735297 [Eh]
	-----------------------------------------------------------

  Dipole Moment: [D]
     X:     0.0019      Y:     0.0163      Z:     0.0634     Total:     0.0655

*** Psi4 exiting successfully. Buy a developer a beer!
