                               Psi4 1.3.2 release

  ==> Input File <==

--------------------------------------------------------------------------
#psi4
#
memory 32 gb

molecule  {
0 1
  O        1.7330970     0.1672710     0.0000140
  O       -1.7330910    -0.1672830     0.0000460
  C        0.6456620    -0.3952850     0.0000220
  C       -0.6456700     0.3952990    -0.0001290
  H        0.5273550    -1.4940478     0.0499470
  H       -0.5273580     1.4940580     0.0002160
units angstrom
no_reorient  #important for SAPT in psi4, default
symmetry c1  #important for SAPT in psi4, default
}

set PROPERTIES_ORIGIN ["COM"]
properties('MP2/aug-cc-pvtz', properties = ['dipole'])
--------------------------------------------------------------------------

    Molecular point group: c1
  Charge       = 0
  Multiplicity = 1
  Basis Set: AUG-CC-PVTZ
    Blend: AUG-CC-PVTZ
  Basis Set: (AUG-CC-PVTZ AUX)
    Blend: AUG-CC-PVTZ-JKFIT

    Orbital Energies [Eh]
    ---------------------

    Doubly Occupied:

       1A    -20.611074     2A    -20.611046     3A    -11.372198
       4A    -11.371552     5A     -1.436005     6A     -1.418693
       7A     -0.974121     8A     -0.828746     9A     -0.707423
      10A     -0.706241    11A     -0.657183    12A     -0.591741
      13A     -0.527915    14A     -0.526292    15A     -0.447850

  @DF-RHF Final Energy:  -226.67470155376381

   => Energetics <=

    Nuclear Repulsion Energy =            101.1782303121104860
    One-Electron Energy =                -510.1297016632318559
    Two-Electron Energy =                 182.2767697973575594
    Total Energy =                       -226.6747015537638106
  Basis Set: (AUG-CC-PVTZ AUX)
    Blend: AUG-CC-PVTZ-RI
    Molecular point group: c1

    Geometry (in Angstrom), charge = 0, multiplicity = 1:

       Center              X                  Y                   Z               Mass
    ------------   -----------------  -----------------  -----------------  -----------------
         O            1.733097052650     0.167271235481    -0.000851973742    15.994914619570
         O           -1.733090947350    -0.167282764519    -0.000819973742    15.994914619570
         C            0.645662052650    -0.395284764519    -0.000843973742    12.000000000000
         C           -0.645669947350     0.395299235481    -0.000994973742    12.000000000000
         H            0.527355052650    -1.494047564519     0.049081026258     1.007825032230
         H           -0.527357947350     1.494058235481    -0.000649973742     1.007825032230

  Basis Set: AUG-CC-PVTZ
    Blend: AUG-CC-PVTZ
  Basis Set: (AUG-CC-PVTZ AUX)
    Blend: AUG-CC-PVTZ-JKFIT
	 Reference Energy          =    -226.6747015537638106 [Eh]
	 Singles Energy            =      -0.0000000000000000 [Eh]
	 Same-Spin Energy          =      -0.2080635987245832 [Eh]
	 Opposite-Spin Energy      =      -0.6417829970138897 [Eh]
	 Correlation Energy        =      -0.8498465957384729 [Eh]
	 Total Energy              =    -227.5245481495022943 [Eh]

	 ================> DF-SCS-MP2 Energies <==================
	-----------------------------------------------------------
	 SCS Same-Spin Scale       =       0.3333333333333333 [-]
	 SCS Opposite-Spin Scale   =       1.2000000000000000 [-]
	 SCS Same-Spin Energy      =      -0.0693545329081944 [Eh]
	 SCS Opposite-Spin Energy  =      -0.7701395964166676 [Eh]
	 SCS Correlation Energy    =      -0.8394941293248620 [Eh]
	 SCS Total Energy          =    -227.5141956830886727 [Eh]
	-----------------------------------------------------------

  Dipole Moment: [D]
     X:     0.0002      Y:     0.0018      Z:     0.0213     Total:     0.0214

*** Psi4 exiting successfully. Buy a developer a beer!
