                               Psi4 1.3.2 release

  ==> Input File <==

--------------------------------------------------------------------------
#psi4
#
memory 32 gb

molecule  {
0 1
  O        1.7330970     0.1672710     0.0000140
  O       -1.7330910    -0.1672830     0.0000460
  C        0.6456620    -0.3952850     0.0000220
  C       -0.6456700     0.3952990    -0.0001290
  H        0.5273460    -1.4940474     0.1999470
  H       -0.5273580     1.4940580     0.0002160
units angstrom
no_reorient  #important for SAPT in psi4, default
symmetry c1  #important for SAPT in psi4, default
}

set PROPERTIES_ORIGIN ["COM"]
properties('MP2/aug-cc-pvtz', properties = ['dipole'])
--------------------------------------------------------------------------

    Molecular point group: c1
  Charge       = 0
  Multiplicity = 1
  Basis Set: AUG-CC-PVTZ
    Blend: AUG-CC-PVTZ
  Basis Set: (AUG-CC-PVTZ AUX)
    Blend: AUG-CC-PVTZ-JKFIT

    Orbital Energies [Eh]
    ---------------------

    Doubly Occupied:

       1A    -20.611555     2A    -20.611076     3A    -11.373560
       4A    -11.372183     5A     -1.436174     6A     -1.418900
       7A     -0.973487     8A     -0.825951     9A     -0.707474
      10A     -0.705107    11A     -0.656676    12A     -0.591365
      13A     -0.528494    14A     -0.525423    15A     -0.447271

  @DF-RHF Final Energy:  -226.67254592254210

   => Energetics <=

    Nuclear Repulsion Energy =            101.1160891895493847
    One-Electron Energy =                -510.0078784390001374
    Two-Electron Energy =                 182.2192433269086678
    Total Energy =                       -226.6725459225420991
  Basis Set: (AUG-CC-PVTZ AUX)
    Blend: AUG-CC-PVTZ-RI
    Molecular point group: c1

    Geometry (in Angstrom), charge = 0, multiplicity = 1:

       Center              X                  Y                   Z               Mass
    ------------   -----------------  -----------------  -----------------  -----------------
         O            1.733097209022     0.167271228531    -0.003458171581    15.994914619570
         O           -1.733090790978    -0.167282771469    -0.003426171581    15.994914619570
         C            0.645662209022    -0.395284771469    -0.003450171581    12.000000000000
         C           -0.645669790978     0.395299228531    -0.003601171581    12.000000000000
         H            0.527346209022    -1.494047171469     0.196474828419     1.007825032230
         H           -0.527357790978     1.494058228531    -0.003256171581     1.007825032230

  Basis Set: AUG-CC-PVTZ
    Blend: AUG-CC-PVTZ
  Basis Set: (AUG-CC-PVTZ AUX)
    Blend: AUG-CC-PVTZ-JKFIT
	 Reference Energy          =    -226.6725459225420991 [Eh]
	 Singles Energy            =      -0.0000000000000000 [Eh]
	 Same-Spin Energy          =      -0.2081877336745376 [Eh]
	 Opposite-Spin Energy      =      -0.6420344217541449 [Eh]
	 Correlation Energy        =      -0.8502221554286825 [Eh]
	 Total Energy              =    -227.5227680779707953 [Eh]

	 ================> DF-SCS-MP2 Energies <==================
	-----------------------------------------------------------
	 SCS Same-Spin Scale       =       0.3333333333333333 [-]
	 SCS Opposite-Spin Scale   =       1.2000000000000000 [-]
	 SCS Same-Spin Energy      =      -0.0693959112248459 [Eh]
	 SCS Opposite-Spin Energy  =      -0.7704413061049739 [Eh]
	 SCS Correlation Energy    =      -0.8398372173298198 [Eh]
	 SCS Total Energy          =    -227.5123831398719290 [Eh]
	-----------------------------------------------------------

  Dipole Moment: [D]
     X:     0.0034      Y:     0.0289      Z:     0.0836     Total:     0.0885

*** Psi4 exiting successfully. Buy a developer a beer!
