                               Psi4 1.3.2 release

  ==> Input File <==

--------------------------------------------------------------------------
#psi4
#
memory 32 gb

molecule  {
0 1
  O       -2.3916800    -1.0522970    -0.0243250
  C       -1.5013820     0.0265210    -0.3499700
  C       -0.1728060    -0.1763470     0.3083280
  C        2.3285040    -0.4694590     0.2834420
  C        0.9860590    -0.2881690    -0.3549330
  C       -2.1959480     1.2879740     0.1259890
  C        3.2526380     0.7192940     0.0124360
  H       -1.3570540     0.0791090    -1.4412390
  H       -0.1904860    -0.2488370     1.3972520
  H        2.7976780    -1.3847260    -0.0993500
  H        2.2027970    -0.6058810     1.3632980
  H        0.9756789    -0.2221012    -1.3451043
  H       -2.3344480     1.2448060     1.2091660
  H       -1.6005480     2.1700530    -0.1223020
  H       -3.1779120     1.3727550    -0.3453210
  H        2.8243150     1.6377400     0.4218030
  H        3.3966440     0.8648080    -1.0620310
  H        4.2355510     0.5661250     0.4665360
  H       -1.9269720    -1.8751040    -0.2580250
units angstrom
no_reorient  #important for SAPT in psi4, default
symmetry c1  #important for SAPT in psi4, default
}

set PROPERTIES_ORIGIN ["COM"]
properties('MP2/aug-cc-pvtz', properties = ['dipole'])
--------------------------------------------------------------------------

    Molecular point group: c1
  Charge       = 0
  Multiplicity = 1
  Basis Set: AUG-CC-PVTZ
    Blend: AUG-CC-PVTZ
  Basis Set: (AUG-CC-PVTZ AUX)
    Blend: AUG-CC-PVTZ-JKFIT

    Orbital Energies [Eh]
    ---------------------

    Doubly Occupied:

       1A    -20.553692     2A    -11.281186     3A    -11.229424
       4A    -11.225863     5A    -11.223366     6A    -11.219463
       7A    -11.210747     8A     -1.352901     9A     -1.097259
      10A     -1.034764    11A     -0.976044    12A     -0.874042
      13A     -0.808981    14A     -0.773519    15A     -0.692853
      16A     -0.659148    17A     -0.610467    18A     -0.596147
      19A     -0.578343    20A     -0.544356    21A     -0.535831
      22A     -0.527859    23A     -0.521745    24A     -0.510465
      25A     -0.489324    26A     -0.471990    27A     -0.440637
      28A     -0.356050

  @DF-RHF Final Energy:  -309.14606616234852

   => Energetics <=

    Nuclear Repulsion Energy =            299.6323274520284485
    One-Electron Energy =               -1012.7638566297210900
    Two-Electron Energy =                 403.9854630153441235
    Total Energy =                       -309.1460661623485180
  Basis Set: (AUG-CC-PVTZ AUX)
    Blend: AUG-CC-PVTZ-RI
    Molecular point group: c1

    Geometry (in Angstrom), charge = 0, multiplicity = 1:

       Center              X                  Y                   Z               Mass
    ------------   -----------------  -----------------  -----------------  -----------------
         O           -2.391690447966    -1.052229804083    -0.025329663208    15.994914619570
         C           -1.501392447966     0.026588195917    -0.350974663208    12.000000000000
         C           -0.172816447966    -0.176279804083     0.307323336792    12.000000000000
         C            2.328493552034    -0.469391804083     0.282437336792    12.000000000000
         C            0.986048552034    -0.288101804083    -0.355937663208    12.000000000000
         C           -2.195958447966     1.288041195917     0.124984336792    12.000000000000
         C            3.252627552034     0.719361195917     0.011431336792    12.000000000000
         H           -1.357064447966     0.079176195917    -1.442243663208     1.007825032230
         H           -0.190496447966    -0.248769804083     1.396247336792     1.007825032230
         H            2.797667552034    -1.384658804083    -0.100354663208     1.007825032230
         H            2.202786552034    -0.605813804083     1.362293336792     1.007825032230
         H            0.975668452034    -0.222034004083    -1.346108963208     1.007825032230
         H           -2.334458447966     1.244873195917     1.208161336792     1.007825032230
         H           -1.600558447966     2.170120195917    -0.123306663208     1.007825032230
         H           -3.177922447966     1.372822195917    -0.346325663208     1.007825032230
         H            2.824304552034     1.637807195917     0.420798336792     1.007825032230
         H            3.396633552034     0.864875195917    -1.063035663208     1.007825032230
         H            4.235540552034     0.566192195917     0.465531336792     1.007825032230
         H           -1.926982447966    -1.875036804083    -0.259029663208     1.007825032230

  Basis Set: AUG-CC-PVTZ
    Blend: AUG-CC-PVTZ
  Basis Set: (AUG-CC-PVTZ AUX)
    Blend: AUG-CC-PVTZ-JKFIT
	 Reference Energy          =    -309.1460661623485180 [Eh]
	 Singles Energy            =      -0.0000000000000000 [Eh]
	 Same-Spin Energy          =      -0.3165515653157478 [Eh]
	 Opposite-Spin Energy      =      -1.1019180203102641 [Eh]
	 Correlation Energy        =      -1.4184695856260119 [Eh]
	 Total Energy              =    -310.5645357479745030 [Eh]

	 ================> DF-SCS-MP2 Energies <==================
	-----------------------------------------------------------
	 SCS Same-Spin Scale       =       0.3333333333333333 [-]
	 SCS Opposite-Spin Scale   =       1.2000000000000000 [-]
	 SCS Same-Spin Energy      =      -0.1055171884385826 [Eh]
	 SCS Opposite-Spin Energy  =      -1.3223016243723169 [Eh]
	 SCS Correlation Energy    =      -1.4278188128108995 [Eh]
	 SCS Total Energy          =    -310.5738849751594444 [Eh]
	-----------------------------------------------------------

  Dipole Moment: [D]
     X:     1.9021      Y:     0.0093      Z:    -0.5980     Total:     1.9939

*** Psi4 exiting successfully. Buy a developer a beer!
