                               Psi4 1.3.2 release

  ==> Input File <==

--------------------------------------------------------------------------
#psi4
#
memory 32 gb

molecule  {
0 1
  O       -2.3916800    -1.0522970    -0.0243250
  C       -1.5013820     0.0265210    -0.3499700
  C       -0.1728060    -0.1763470     0.3083280
  C        2.3502111    -0.4685925     0.2358999
  C        0.9860590    -0.2881690    -0.3549330
  C       -2.1959480     1.2879740     0.1259890
  C        3.2526380     0.7192940     0.0124360
  H       -1.3570540     0.0791090    -1.4412390
  H       -0.1904860    -0.2488370     1.3972520
  H        2.7976780    -1.3847260    -0.0993500
  H        2.2027970    -0.6058810     1.3632980
  H        1.0125600    -0.2193825    -1.4448704
  H       -2.3344480     1.2448060     1.2091660
  H       -1.6005480     2.1700530    -0.1223020
  H       -3.1779120     1.3727550    -0.3453210
  H        2.8243150     1.6377400     0.4218030
  H        3.3966440     0.8648080    -1.0620310
  H        4.2355510     0.5661250     0.4665360
  H       -1.9269720    -1.8751040    -0.2580250
units angstrom
no_reorient  #important for SAPT in psi4, default
symmetry c1  #important for SAPT in psi4, default
}

set PROPERTIES_ORIGIN ["COM"]
properties('MP2/aug-cc-pvtz', properties = ['dipole'])
--------------------------------------------------------------------------

    Molecular point group: c1
  Charge       = 0
  Multiplicity = 1
  Basis Set: AUG-CC-PVTZ
    Blend: AUG-CC-PVTZ
  Basis Set: (AUG-CC-PVTZ AUX)
    Blend: AUG-CC-PVTZ-JKFIT

    Orbital Energies [Eh]
    ---------------------

    Doubly Occupied:

       1A    -20.553982     2A    -11.281637     3A    -11.236711
       4A    -11.231238     5A    -11.228080     6A    -11.219097
       7A    -11.210989     8A     -1.353195     9A     -1.095228
      10A     -1.037161    11A     -0.976082    12A     -0.874114
      13A     -0.807140    14A     -0.759421    15A     -0.693379
      16A     -0.654330    17A     -0.615731    18A     -0.591842
      19A     -0.578763    20A     -0.544265    21A     -0.537584
      22A     -0.528502    23A     -0.523798    24A     -0.512405
      25A     -0.476888    26A     -0.466712    27A     -0.441255
      28A     -0.358707

  @DF-RHF Final Energy:  -309.14818088236723

   => Energetics <=

    Nuclear Repulsion Energy =            299.1525575525958516
    One-Electron Energy =               -1011.8250038248445435
    Two-Electron Energy =                 403.5242653898814069
    Total Energy =                       -309.1481808823672282
  Basis Set: (AUG-CC-PVTZ AUX)
    Blend: AUG-CC-PVTZ-RI
    Molecular point group: c1

    Geometry (in Angstrom), charge = 0, multiplicity = 1:

       Center              X                  Y                   Z               Mass
    ------------   -----------------  -----------------  -----------------  -----------------
         O           -2.394664355648    -1.052361067241    -0.018625098138    15.994914619570
         C           -1.504366355648     0.026456932759    -0.344270098138    12.000000000000
         C           -0.175790355648    -0.176411067241     0.314027901862    12.000000000000
         C            2.347226744352    -0.468656567241     0.241599801862    12.000000000000
         C            0.983074644352    -0.288233067241    -0.349233098138    12.000000000000
         C           -2.198932355648     1.287909932759     0.131688901862    12.000000000000
         C            3.249653644352     0.719229932759     0.018135901862    12.000000000000
         H           -1.360038355648     0.079044932759    -1.435539098138     1.007825032230
         H           -0.193470355648    -0.248901067241     1.402951901862     1.007825032230
         H            2.794693644352    -1.384790067241    -0.093650098138     1.007825032230
         H            2.199812644352    -0.605945067241     1.368997901862     1.007825032230
         H            1.009575644352    -0.219446567241    -1.439170498138     1.007825032230
         H           -2.337432355648     1.244741932759     1.214865901862     1.007825032230
         H           -1.603532355648     2.169988932759    -0.116602098138     1.007825032230
         H           -3.180896355648     1.372690932759    -0.339621098138     1.007825032230
         H            2.821330644352     1.637675932759     0.427502901862     1.007825032230
         H            3.393659644352     0.864743932759    -1.056331098138     1.007825032230
         H            4.232566644352     0.566060932759     0.472235901862     1.007825032230
         H           -1.929956355648    -1.875168067241    -0.252325098138     1.007825032230

  Basis Set: AUG-CC-PVTZ
    Blend: AUG-CC-PVTZ
  Basis Set: (AUG-CC-PVTZ AUX)
    Blend: AUG-CC-PVTZ-JKFIT
	 Reference Energy          =    -309.1481808823672282 [Eh]
	 Singles Energy            =      -0.0000000000000000 [Eh]
	 Same-Spin Energy          =      -0.3168607371441624 [Eh]
	 Opposite-Spin Energy      =      -1.1028072489777327 [Eh]
	 Correlation Energy        =      -1.4196679861218953 [Eh]
	 Total Energy              =    -310.5678488684891363 [Eh]

	 ================> DF-SCS-MP2 Energies <==================
	-----------------------------------------------------------
	 SCS Same-Spin Scale       =       0.3333333333333333 [-]
	 SCS Opposite-Spin Scale   =       1.2000000000000000 [-]
	 SCS Same-Spin Energy      =      -0.1056202457147208 [Eh]
	 SCS Opposite-Spin Energy  =      -1.3233686987732793 [Eh]
	 SCS Correlation Energy    =      -1.4289889444880002 [Eh]
	 SCS Total Energy          =    -310.5771698268552541 [Eh]
	-----------------------------------------------------------

  Dipole Moment: [D]
     X:     1.9083      Y:     0.0120      Z:    -0.5825     Total:     1.9953

*** Psi4 exiting successfully. Buy a developer a beer!
