                               Psi4 1.3.2 release

  ==> Input File <==

--------------------------------------------------------------------------
#psi4
#
memory 32 gb

molecule  {
0 1
  O       -2.3916800    -1.0522970    -0.0243250
  C       -1.5013820     0.0265210    -0.3499700
  C       -0.1670524    -0.1762902     0.2966041
  C        2.3285040    -0.4694590     0.2834420
  C        0.9860590    -0.2881690    -0.3549330
  C       -2.1959480     1.2879740     0.1259890
  C        3.2526380     0.7192940     0.0124360
  H       -1.3475953     0.0778863    -1.4400046
  H       -0.1904860    -0.2488370     1.3972520
  H        2.7976780    -1.3847260    -0.0993500
  H        2.2027970    -0.6058810     1.3632980
  H        0.9746330    -0.2154440    -1.4448770
  H       -2.3344480     1.2448060     1.2091660
  H       -1.6005480     2.1700530    -0.1223020
  H       -3.1779120     1.3727550    -0.3453210
  H        2.8243150     1.6377400     0.4218030
  H        3.3966440     0.8648080    -1.0620310
  H        4.2355510     0.5661250     0.4665360
  H       -1.9269720    -1.8751040    -0.2580250
units angstrom
no_reorient  #important for SAPT in psi4, default
symmetry c1  #important for SAPT in psi4, default
}

set PROPERTIES_ORIGIN ["COM"]
properties('MP2/aug-cc-pvtz', properties = ['dipole'])
--------------------------------------------------------------------------

    Molecular point group: c1
  Charge       = 0
  Multiplicity = 1
  Basis Set: AUG-CC-PVTZ
    Blend: AUG-CC-PVTZ
  Basis Set: (AUG-CC-PVTZ AUX)
    Blend: AUG-CC-PVTZ-JKFIT

    Orbital Energies [Eh]
    ---------------------

    Doubly Occupied:

       1A    -20.554154     2A    -11.281304     3A    -11.234548
       4A    -11.230691     5A    -11.225619     6A    -11.219655
       7A    -11.210983     8A     -1.353105     9A     -1.096006
      10A     -1.035047    11A     -0.975853    12A     -0.873335
      13A     -0.808437    14A     -0.758755    15A     -0.693585
      16A     -0.654338    17A     -0.611475    18A     -0.593479
      19A     -0.578612    20A     -0.537685    21A     -0.536316
      22A     -0.527941    23A     -0.521226    24A     -0.510439
      25A     -0.487331    26A     -0.472343    27A     -0.439646
      28A     -0.359279

  @DF-RHF Final Energy:  -309.15197454569193

   => Energetics <=

    Nuclear Repulsion Energy =            299.2514717689026611
    One-Electron Energy =               -1012.0445222269296437
    Two-Electron Energy =                 403.6410759123350545
    Total Energy =                       -309.1519745456919281
  Basis Set: (AUG-CC-PVTZ AUX)
    Blend: AUG-CC-PVTZ-RI
    Molecular point group: c1

    Geometry (in Angstrom), charge = 0, multiplicity = 1:

       Center              X                  Y                   Z               Mass
    ------------   -----------------  -----------------  -----------------  -----------------
         O           -2.392464978371    -1.052291335685    -0.022931831189    15.994914619570
         C           -1.502166978371     0.026526664315    -0.348576831189    12.000000000000
         C           -0.167837378371    -0.176284535685     0.297997268811    12.000000000000
         C            2.327719021629    -0.469453335685     0.284835168811    12.000000000000
         C            0.985274021629    -0.288163335685    -0.353539831189    12.000000000000
         C           -2.196732978371     1.287979664315     0.127382168811    12.000000000000
         C            3.251853021629     0.719299664315     0.013829168811    12.000000000000
         H           -1.348380278371     0.077891964315    -1.438611431189     1.007825032230
         H           -0.191270978371    -0.248831335685     1.398645168811     1.007825032230
         H            2.796893021629    -1.384720335685    -0.097956831189     1.007825032230
         H            2.202012021629    -0.605875335685     1.364691168811     1.007825032230
         H            0.973848021629    -0.215438335685    -1.443483831189     1.007825032230
         H           -2.335232978371     1.244811664315     1.210559168811     1.007825032230
         H           -1.601332978371     2.170058664315    -0.120908831189     1.007825032230
         H           -3.178696978371     1.372760664315    -0.343927831189     1.007825032230
         H            2.823530021629     1.637745664315     0.423196168811     1.007825032230
         H            3.395859021629     0.864813664315    -1.060637831189     1.007825032230
         H            4.234766021629     0.566130664315     0.467929168811     1.007825032230
         H           -1.927756978371    -1.875098335685    -0.256631831189     1.007825032230

  Basis Set: AUG-CC-PVTZ
    Blend: AUG-CC-PVTZ
  Basis Set: (AUG-CC-PVTZ AUX)
    Blend: AUG-CC-PVTZ-JKFIT
	 Reference Energy          =    -309.1519745456919281 [Eh]
	 Singles Energy            =      -0.0000000000000000 [Eh]
	 Same-Spin Energy          =      -0.3166454007753957 [Eh]
	 Opposite-Spin Energy      =      -1.1022301176582281 [Eh]
	 Correlation Energy        =      -1.4188755184336239 [Eh]
	 Total Energy              =    -310.5708500641255796 [Eh]

	 ================> DF-SCS-MP2 Energies <==================
	-----------------------------------------------------------
	 SCS Same-Spin Scale       =       0.3333333333333333 [-]
	 SCS Opposite-Spin Scale   =       1.2000000000000000 [-]
	 SCS Same-Spin Energy      =      -0.1055484669251319 [Eh]
	 SCS Opposite-Spin Energy  =      -1.3226761411898738 [Eh]
	 SCS Correlation Energy    =      -1.4282246081150056 [Eh]
	 SCS Total Energy          =    -310.5801991538069160 [Eh]
	-----------------------------------------------------------

  Dipole Moment: [D]
     X:     1.9118      Y:     0.0058      Z:    -0.5566     Total:     1.9912

*** Psi4 exiting successfully. Buy a developer a beer!
