                               Psi4 1.3.2 release

  ==> Input File <==

--------------------------------------------------------------------------
#psi4
#
memory 32 gb

molecule  {
0 1
  O       -2.3826659    -1.0575721    -0.0173977
  C       -1.5013820     0.0265210    -0.3499700
  C       -0.1771804    -0.1874656     0.3136004
  C        2.3285040    -0.4694590     0.2834420
  C        0.9860590    -0.2881690    -0.3549330
  C       -2.1959480     1.2879740     0.1259890
  C        3.2526380     0.7192940     0.0124360
  H       -1.3570540     0.0791090    -1.4412390
  H       -0.1904860    -0.2488370     1.3972520
  H        2.7976780    -1.3847260    -0.0993500
  H        2.2027970    -0.6058810     1.3632980
  H        0.9746330    -0.2154440    -1.4448770
  H       -2.3344480     1.2448060     1.2091660
  H       -1.6005480     2.1700530    -0.1223020
  H       -3.1779120     1.3727550    -0.3453210
  H        2.8243150     1.6377400     0.4218030
  H        3.3966440     0.8648080    -1.0620310
  H        4.2355510     0.5661250     0.4665360
  H       -1.9269720    -1.8751040    -0.2580250
units angstrom
no_reorient  #important for SAPT in psi4, default
symmetry c1  #important for SAPT in psi4, default
}

set PROPERTIES_ORIGIN ["COM"]
properties('MP2/aug-cc-pvtz', properties = ['dipole'])
--------------------------------------------------------------------------

    Molecular point group: c1
  Charge       = 0
  Multiplicity = 1
  Basis Set: AUG-CC-PVTZ
    Blend: AUG-CC-PVTZ
  Basis Set: (AUG-CC-PVTZ AUX)
    Blend: AUG-CC-PVTZ-JKFIT

    Orbital Energies [Eh]
    ---------------------

    Doubly Occupied:

       1A    -20.552304     2A    -11.281321     3A    -11.236578
       4A    -11.230358     5A    -11.226221     6A    -11.219476
       7A    -11.211149     8A     -1.354003     9A     -1.093707
      10A     -1.035090    11A     -0.974238    12A     -0.873394
      13A     -0.807387    14A     -0.761570    15A     -0.694148
      16A     -0.653844    17A     -0.610377    18A     -0.595042
      19A     -0.578304    20A     -0.539340    21A     -0.536014
      22A     -0.528803    23A     -0.521853    24A     -0.509985
      25A     -0.487233    26A     -0.471198    27A     -0.441045
      28A     -0.355060

  @DF-RHF Final Energy:  -309.15199757966940

   => Energetics <=

    Nuclear Repulsion Energy =            299.1696345580697880
    One-Electron Energy =               -1011.8851787051687552
    Two-Electron Energy =                 403.5635465674295688
    Total Energy =                       -309.1519975796693984
  Basis Set: (AUG-CC-PVTZ AUX)
    Blend: AUG-CC-PVTZ-RI
    Molecular point group: c1

    Geometry (in Angstrom), charge = 0, multiplicity = 1:

       Center              X                  Y                   Z               Mass
    ------------   -----------------  -----------------  -----------------  -----------------
         O           -2.383581872481    -1.055395890390    -0.019136880321    15.994914619570
         C           -1.502297972481     0.028697209610    -0.351709180321    12.000000000000
         C           -0.178096372481    -0.185289390390     0.311861219679    12.000000000000
         C            2.327588027519    -0.467282790390     0.281702819679    12.000000000000
         C            0.985143027519    -0.285992790390    -0.356672180321    12.000000000000
         C           -2.196863972481     1.290150209610     0.124249819679    12.000000000000
         C            3.251722027519     0.721470209610     0.010696819679    12.000000000000
         H           -1.357969972481     0.081285209610    -1.442978180321     1.007825032230
         H           -0.191401972481    -0.246660790390     1.395512819679     1.007825032230
         H            2.796762027519    -1.382549790390    -0.101089180321     1.007825032230
         H            2.201881027519    -0.603704790390     1.361558819679     1.007825032230
         H            0.973717027519    -0.213267790390    -1.446616180321     1.007825032230
         H           -2.335363972481     1.246982209610     1.207426819679     1.007825032230
         H           -1.601463972481     2.172229209610    -0.124041180321     1.007825032230
         H           -3.178827972481     1.374931209610    -0.347060180321     1.007825032230
         H            2.823399027519     1.639916209610     0.420063819679     1.007825032230
         H            3.395728027519     0.866984209610    -1.063770180321     1.007825032230
         H            4.234635027519     0.568301209610     0.464796819679     1.007825032230
         H           -1.927887972481    -1.872927790390    -0.259764180321     1.007825032230

  Basis Set: AUG-CC-PVTZ
    Blend: AUG-CC-PVTZ
  Basis Set: (AUG-CC-PVTZ AUX)
    Blend: AUG-CC-PVTZ-JKFIT
	 Reference Energy          =    -309.1519975796693984 [Eh]
	 Singles Energy            =      -0.0000000000000000 [Eh]
	 Same-Spin Energy          =      -0.3166439235575115 [Eh]
	 Opposite-Spin Energy      =      -1.1022770040093834 [Eh]
	 Correlation Energy        =      -1.4189209275668948 [Eh]
	 Total Energy              =    -310.5709185072362857 [Eh]

	 ================> DF-SCS-MP2 Energies <==================
	-----------------------------------------------------------
	 SCS Same-Spin Scale       =       0.3333333333333333 [-]
	 SCS Opposite-Spin Scale   =       1.2000000000000000 [-]
	 SCS Same-Spin Energy      =      -0.1055479745191705 [Eh]
	 SCS Opposite-Spin Energy  =      -1.3227324048112601 [Eh]
	 SCS Correlation Energy    =      -1.4282803793304306 [Eh]
	 SCS Total Energy          =    -310.5802779589998295 [Eh]
	-----------------------------------------------------------

  Dipole Moment: [D]
     X:     1.8890      Y:     0.0340      Z:    -0.5676     Total:     1.9728

*** Psi4 exiting successfully. Buy a developer a beer!
