                               Psi4 1.4a3.dev225

  ==> Input File <==

--------------------------------------------------------------------------
#psi4
#
memory 32 gb

molecule  {
0 1
  O        2.4733480    -1.0180220    -0.0592030
  C        1.5612870     0.0272190     0.3186860
  C        0.2241640    -0.1896060    -0.3216700
  C       -2.2699720    -0.5538550    -0.2568310
  C       -0.9183080    -0.3574540     0.3612590
  C        2.2155680     1.3228410    -0.1266610
  C       -3.2245640     0.5955150     0.0801580
  H        1.4362950     0.0398890     1.4137890
  H        0.2208170    -0.2229080    -1.4128920
  H       -2.7032570    -1.4976940     0.0989920
  H       -2.1635450    -0.6441890    -1.3439560
  H       -0.8861850    -0.3229140     1.4529890
  H        2.3348110     1.3198720    -1.2134080
  H        1.6025990     2.1805020     0.1626330
  H        3.2041590     1.4168830     0.3297970
  H       -2.8327200     1.5423190    -0.3012060
  H       -3.3500700     0.6943310     1.1626160
  H       -4.2121190     0.4296020    -0.3601990
  H        2.0107774    -1.9027043     0.1658161
units angstrom
no_reorient  #important for SAPT in psi4, default
symmetry c1  #important for SAPT in psi4, default
}

set PROPERTIES_ORIGIN ["COM"]
properties('MP2/aug-cc-pvtz', properties = ['dipole'])
--------------------------------------------------------------------------

    Molecular point group: c1
  Charge       = 0
  Multiplicity = 1
  Basis Set: AUG-CC-PVTZ
    Blend: AUG-CC-PVTZ
  Basis Set: (AUG-CC-PVTZ AUX)
    Blend: AUG-CC-PVTZ-JKFIT

    Orbital Energies [Eh]
    ---------------------

    Doubly Occupied:

       1A    -20.557994     2A    -11.281249     3A    -11.236493
       4A    -11.230990     5A    -11.226669     6A    -11.219899
       7A    -11.211065     8A     -1.342378     9A     -1.093248
      10A     -1.032857    11A     -0.973675    12A     -0.872866
      13A     -0.805595    14A     -0.759969    15A     -0.683255
      16A     -0.653248    17A     -0.609595    18A     -0.594197
      19A     -0.576653    20A     -0.538527    21A     -0.535814
      22A     -0.526438    23A     -0.521017    24A     -0.509165
      25A     -0.487336    26A     -0.469647    27A     -0.439854
      28A     -0.356275

  @DF-RHF Final Energy:  -309.14652699715077

   => Energetics <=

    Nuclear Repulsion Energy =            298.5632994208043556
    One-Electron Energy =               -1010.7277210602642299
    Two-Electron Energy =                 403.0178946423091020
    Total Energy =                       -309.1465269971507723
  Basis Set: (AUG-CC-PVTZ AUX)
    Blend: AUG-CC-PVTZ-RI
    Molecular point group: c1

    Geometry (in Angstrom), charge = 0, multiplicity = 1:

       Center              X                  Y                   Z               Mass
    ------------   -----------------  -----------------  -----------------  -----------------
         O            2.421005697437    -0.987144093849    -0.057889454861    15.994914619570
         C            1.508944697437     0.058096906151     0.319999545139    12.000000000000
         C            0.171821697437    -0.158728093849    -0.320356454861    12.000000000000
         C           -2.322314302563    -0.522977093849    -0.255517454861    12.000000000000
         C           -0.970650302563    -0.326576093849     0.362572545139    12.000000000000
         C            2.163225697437     1.353718906151    -0.125347454861    12.000000000000
         C           -3.276906302563     0.626392906151     0.081471545139    12.000000000000
         H            1.383952697437     0.070766906151     1.415102545139     1.007825032230
         H            0.168474697437    -0.192030093849    -1.411578454861     1.007825032230
         H           -2.755599302563    -1.466816093849     0.100305545139     1.007825032230
         H           -2.215887302563    -0.613311093849    -1.342642454861     1.007825032230
         H           -0.938527302563    -0.292036093849     1.454302545139     1.007825032230
         H            2.282468697437     1.350749906151    -1.212094454861     1.007825032230
         H            1.550256697437     2.211379906151     0.163946545139     1.007825032230
         H            3.151816697437     1.447760906151     0.331110545139     1.007825032230
         H           -2.885062302563     1.573196906151    -0.299892454861     1.007825032230
         H           -3.402412302563     0.725208906151     1.163929545139     1.007825032230
         H           -4.264461302563     0.460479906151    -0.358885454861     1.007825032230
         H            1.958435097437    -1.871826393849     0.167129645139     1.007825032230

  Basis Set: AUG-CC-PVTZ
    Blend: AUG-CC-PVTZ
  Basis Set: (AUG-CC-PVTZ AUX)
    Blend: AUG-CC-PVTZ-JKFIT
	 Reference Energy          =    -309.1465269971507723 [Eh]
	 Singles Energy            =      -0.0000000000000000 [Eh]
	 Same-Spin Energy          =      -0.3172569215756941 [Eh]
	 Opposite-Spin Energy      =      -1.1041237569866515 [Eh]
	 Correlation Energy        =      -1.4213806785623457 [Eh]
	 Total Energy              =    -310.5679076757131156 [Eh]

	 ================> DF-SCS-MP2 Energies <==================
	-----------------------------------------------------------
	 SCS Same-Spin Scale       =       0.3333333333333333 [-]
	 SCS Opposite-Spin Scale   =       1.2000000000000000 [-]
	 SCS Same-Spin Energy      =      -0.1057523071918980 [Eh]
	 SCS Opposite-Spin Energy  =      -1.3249485083839818 [Eh]
	 SCS Correlation Energy    =      -1.4307008155758798 [Eh]
	 SCS Total Energy          =    -310.5772278127266759 [Eh]
	-----------------------------------------------------------

  Dipole Moment: [D]
     X:    -1.9110      Y:    -0.0876      Z:     0.5930     Total:     2.0029

*** Psi4 exiting successfully. Buy a developer a beer!
