                               Psi4 1.3.2 release

  ==> Input File <==

--------------------------------------------------------------------------
#psi4
#
memory 32 gb

molecule  {
0 1
  O       -2.3916800    -1.0522970    -0.0243250
  C       -1.3773979     0.1767586    -0.3953198
  C       -0.1728060    -0.1763470     0.3083280
  C        2.3285040    -0.4694590     0.2834420
  C        0.9860590    -0.2881690    -0.3549330
  C       -2.1959480     1.2879740     0.1259890
  C        3.2526380     0.7192940     0.0124360
  H       -1.3570540     0.0791090    -1.4412390
  H       -0.1904860    -0.2488370     1.3972520
  H        2.7976780    -1.3847260    -0.0993500
  H        2.2027970    -0.6058810     1.3632980
  H        0.9746330    -0.2154440    -1.4448770
  H       -2.3344480     1.2448060     1.2091660
  H       -1.6005480     2.1700530    -0.1223020
  H       -3.1779120     1.3727550    -0.3453210
  H        2.8243150     1.6377400     0.4218030
  H        3.3966440     0.8648080    -1.0620310
  H        4.2355510     0.5661250     0.4665360
  H       -1.9269720    -1.8751040    -0.2580250
units angstrom
no_reorient  #important for SAPT in psi4, default
symmetry c1  #important for SAPT in psi4, default
}

set PROPERTIES_ORIGIN ["COM"]
properties('MP2/aug-cc-pvtz', properties = ['dipole'])
--------------------------------------------------------------------------

    Molecular point group: c1
  Charge       = 0
  Multiplicity = 1
  Basis Set: AUG-CC-PVTZ
    Blend: AUG-CC-PVTZ
  Basis Set: (AUG-CC-PVTZ AUX)
    Blend: AUG-CC-PVTZ-JKFIT

    Orbital Energies [Eh]
    ---------------------

    Doubly Occupied:

       1A    -20.525580     2A    -11.285977     3A    -11.242613
       4A    -11.234263     5A    -11.231454     6A    -11.223536
       7A    -11.215618     8A     -1.286310     9A     -1.107782
      10A     -1.049720    11A     -0.984609    12A     -0.882259
      13A     -0.809693    14A     -0.770364    15A     -0.662531
      16A     -0.653084    17A     -0.614315    18A     -0.601419
      19A     -0.573740    20A     -0.547204    21A     -0.538879
      22A     -0.521115    23A     -0.510832    24A     -0.496151
      25A     -0.491629    26A     -0.470640    27A     -0.446455
      28A     -0.356028

  @DF-RHF Final Energy:  -309.12070034111252

   => Energetics <=

    Nuclear Repulsion Energy =            298.6120351799330592
    One-Electron Energy =               -1010.7978698221576224
    Two-Electron Energy =                 403.0651343011120389
    Total Energy =                       -309.1207003411125243
  Basis Set: (AUG-CC-PVTZ AUX)
    Blend: AUG-CC-PVTZ-RI
    Molecular point group: c1

    Geometry (in Angstrom), charge = 0, multiplicity = 1:

       Center              X                  Y                   Z               Mass
    ------------   -----------------  -----------------  -----------------  -----------------
         O           -2.406544806225    -1.070309351659    -0.018887874237    15.994914619570
         C           -1.392262706225     0.158746248341    -0.389882674237    12.000000000000
         C           -0.187670806225    -0.194359351659     0.313765125763    12.000000000000
         C            2.313639193775    -0.487471351659     0.288879125763    12.000000000000
         C            0.971194193775    -0.306181351659    -0.349495874237    12.000000000000
         C           -2.210812806225     1.269961648341     0.131426125763    12.000000000000
         C            3.237773193775     0.701281648341     0.017873125763    12.000000000000
         H           -1.371918806225     0.061096648341    -1.435801874237     1.007825032230
         H           -0.205350806225    -0.266849351659     1.402689125763     1.007825032230
         H            2.782813193775    -1.402738351659    -0.093912874237     1.007825032230
         H            2.187932193775    -0.623893351659     1.368735125763     1.007825032230
         H            0.959768193775    -0.233456351659    -1.439439874237     1.007825032230
         H           -2.349312806225     1.226793648341     1.214603125763     1.007825032230
         H           -1.615412806225     2.152040648341    -0.116864874237     1.007825032230
         H           -3.192776806225     1.354742648341    -0.339883874237     1.007825032230
         H            2.809450193775     1.619727648341     0.427240125763     1.007825032230
         H            3.381779193775     0.846795648341    -1.056593874237     1.007825032230
         H            4.220686193775     0.548112648341     0.471973125763     1.007825032230
         H           -1.941836806225    -1.893116351659    -0.252587874237     1.007825032230

  Basis Set: AUG-CC-PVTZ
    Blend: AUG-CC-PVTZ
  Basis Set: (AUG-CC-PVTZ AUX)
    Blend: AUG-CC-PVTZ-JKFIT
	 Reference Energy          =    -309.1207003411125243 [Eh]
	 Singles Energy            =      -0.0000000000000000 [Eh]
	 Same-Spin Energy          =      -0.3190657208597293 [Eh]
	 Opposite-Spin Energy      =      -1.1078964606282073 [Eh]
	 Correlation Energy        =      -1.4269621814879367 [Eh]
	 Total Energy              =    -310.5476625226004330 [Eh]

	 ================> DF-SCS-MP2 Energies <==================
	-----------------------------------------------------------
	 SCS Same-Spin Scale       =       0.3333333333333333 [-]
	 SCS Opposite-Spin Scale   =       1.2000000000000000 [-]
	 SCS Same-Spin Energy      =      -0.1063552402865764 [Eh]
	 SCS Opposite-Spin Energy  =      -1.3294757527538488 [Eh]
	 SCS Correlation Energy    =      -1.4358309930404252 [Eh]
	 SCS Total Energy          =    -310.5565313341529645 [Eh]
	-----------------------------------------------------------

  Dipole Moment: [D]
     X:     2.4219      Y:     0.5740      Z:    -0.6109     Total:     2.5629

*** Psi4 exiting successfully. Buy a developer a beer!
