                               Psi4 1.3.2 release

  ==> Input File <==

--------------------------------------------------------------------------
#psi4
#
memory 32 gb

molecule  {
0 1
  O       -2.3835095    -1.0604439    -0.0292178
  C       -1.5013820     0.0265210    -0.3499700
  C       -0.1728060    -0.1763470     0.3083280
  C        2.3285040    -0.4694590     0.2834420
  C        0.9860590    -0.2881690    -0.3549330
  C       -2.1857032     1.2951672     0.1216909
  C        3.2526380     0.7192940     0.0124360
  H       -1.3570540     0.0791090    -1.4412390
  H       -0.1904860    -0.2488370     1.3972520
  H        2.7976780    -1.3847260    -0.0993500
  H        2.2027970    -0.6058810     1.3632980
  H        0.9746330    -0.2154440    -1.4448770
  H       -2.3344480     1.2448060     1.2091660
  H       -1.6005480     2.1700530    -0.1223020
  H       -3.1779120     1.3727550    -0.3453210
  H        2.8243150     1.6377400     0.4218030
  H        3.3966440     0.8648080    -1.0620310
  H        4.2355510     0.5661250     0.4665360
  H       -1.9269720    -1.8751040    -0.2580250
units angstrom
no_reorient  #important for SAPT in psi4, default
symmetry c1  #important for SAPT in psi4, default
}

set PROPERTIES_ORIGIN ["COM"]
properties('MP2/aug-cc-pvtz', properties = ['dipole'])
--------------------------------------------------------------------------

    Molecular point group: c1
  Charge       = 0
  Multiplicity = 1
  Basis Set: AUG-CC-PVTZ
    Blend: AUG-CC-PVTZ
  Basis Set: (AUG-CC-PVTZ AUX)
    Blend: AUG-CC-PVTZ-JKFIT

    Orbital Energies [Eh]
    ---------------------

    Doubly Occupied:

       1A    -20.552473     2A    -11.281452     3A    -11.235775
       4A    -11.230416     5A    -11.226015     6A    -11.219488
       7A    -11.211316     8A     -1.355008     9A     -1.094611
      10A     -1.035665    11A     -0.974794    12A     -0.873198
      13A     -0.808220    14A     -0.760744    15A     -0.695406
      16A     -0.653867    17A     -0.610648    18A     -0.594167
      19A     -0.578425    20A     -0.538547    21A     -0.537220
      22A     -0.531368    23A     -0.520804    24A     -0.510231
      25A     -0.487183    26A     -0.470492    27A     -0.440360
      28A     -0.356391

  @DF-RHF Final Energy:  -309.15241753100582

   => Energetics <=

    Nuclear Repulsion Energy =            299.2062441216931461
    One-Electron Energy =               -1011.9487539743932984
    Two-Electron Energy =                 403.5900923216942715
    Total Energy =                       -309.1524175310058240
  Basis Set: (AUG-CC-PVTZ AUX)
    Blend: AUG-CC-PVTZ-RI
    Molecular point group: c1

    Geometry (in Angstrom), charge = 0, multiplicity = 1:

       Center              X                  Y                   Z               Mass
    ------------   -----------------  -----------------  -----------------  -----------------
         O           -2.386043406414    -1.060004222132    -0.027920602177    15.994914619570
         C           -1.503915906414     0.026960677868    -0.348672802177    12.000000000000
         C           -0.175339906414    -0.175907322132     0.309625197823    12.000000000000
         C            2.325970093586    -0.469019322132     0.284739197823    12.000000000000
         C            0.983525093586    -0.287729322132    -0.353635802177    12.000000000000
         C           -2.188237106414     1.295606877868     0.122988097823    12.000000000000
         C            3.250104093586     0.719733677868     0.013733197823    12.000000000000
         H           -1.359587906414     0.079548677868    -1.439941802177     1.007825032230
         H           -0.193019906414    -0.248397322132     1.398549197823     1.007825032230
         H            2.795144093586    -1.384286322132    -0.098052802177     1.007825032230
         H            2.200263093586    -0.605441322132     1.364595197823     1.007825032230
         H            0.972099093586    -0.215004322132    -1.443579802177     1.007825032230
         H           -2.336981906414     1.245245677868     1.210463197823     1.007825032230
         H           -1.603081906414     2.170492677868    -0.121004802177     1.007825032230
         H           -3.180445906414     1.373194677868    -0.344023802177     1.007825032230
         H            2.821781093586     1.638179677868     0.423100197823     1.007825032230
         H            3.394110093586     0.865247677868    -1.060733802177     1.007825032230
         H            4.233017093586     0.566564677868     0.467833197823     1.007825032230
         H           -1.929505906414    -1.874664322132    -0.256727802177     1.007825032230

  Basis Set: AUG-CC-PVTZ
    Blend: AUG-CC-PVTZ
  Basis Set: (AUG-CC-PVTZ AUX)
    Blend: AUG-CC-PVTZ-JKFIT
	 Reference Energy          =    -309.1524175310058240 [Eh]
	 Singles Energy            =      -0.0000000000000000 [Eh]
	 Same-Spin Energy          =      -0.3165269906872153 [Eh]
	 Opposite-Spin Energy      =      -1.1019779031970129 [Eh]
	 Correlation Energy        =      -1.4185048938842284 [Eh]
	 Total Energy              =    -310.5709224248900568 [Eh]

	 ================> DF-SCS-MP2 Energies <==================
	-----------------------------------------------------------
	 SCS Same-Spin Scale       =       0.3333333333333333 [-]
	 SCS Opposite-Spin Scale   =       1.2000000000000000 [-]
	 SCS Same-Spin Energy      =      -0.1055089968957384 [Eh]
	 SCS Opposite-Spin Energy  =      -1.3223734838364154 [Eh]
	 SCS Correlation Energy    =      -1.4278824807321540 [Eh]
	 SCS Total Energy          =    -310.5803000117379611 [Eh]
	-----------------------------------------------------------

  Dipole Moment: [D]
     X:     1.8969      Y:     0.0270      Z:    -0.5488     Total:     1.9749

*** Psi4 exiting successfully. Buy a developer a beer!
