                               Psi4 1.3.2 release

  ==> Input File <==

--------------------------------------------------------------------------
#psi4
#
memory 32 gb

molecule  {
0 1
  O       -2.3916800    -1.0522970    -0.0243250
  C       -1.5013820     0.0265210    -0.3499700
  C       -0.2051733    -0.1679853     0.2466557
  C        2.3285040    -0.4694590     0.2834420
  C        0.9860590    -0.2881690    -0.3549330
  C       -2.1959480     1.2879740     0.1259890
  C        3.2526380     0.7192940     0.0124360
  H       -1.3570540     0.0791090    -1.4412390
  H       -0.1904860    -0.2488370     1.3972520
  H        2.7976780    -1.3847260    -0.0993500
  H        2.2027970    -0.6058810     1.3632980
  H        0.9179820    -0.2080288    -1.4422878
  H       -2.3344480     1.2448060     1.2091660
  H       -1.6005480     2.1700530    -0.1223020
  H       -3.1779120     1.3727550    -0.3453210
  H        2.8243150     1.6377400     0.4218030
  H        3.3966440     0.8648080    -1.0620310
  H        4.2355510     0.5661250     0.4665360
  H       -1.9269720    -1.8751040    -0.2580250
units angstrom
no_reorient  #important for SAPT in psi4, default
symmetry c1  #important for SAPT in psi4, default
}

set PROPERTIES_ORIGIN ["COM"]
properties('MP2/aug-cc-pvtz', properties = ['dipole'])
--------------------------------------------------------------------------

    Molecular point group: c1
  Charge       = 0
  Multiplicity = 1
  Basis Set: AUG-CC-PVTZ
    Blend: AUG-CC-PVTZ
  Basis Set: (AUG-CC-PVTZ AUX)
    Blend: AUG-CC-PVTZ-JKFIT

    Orbital Energies [Eh]
    ---------------------

    Doubly Occupied:

       1A    -20.554717     2A    -11.278878     3A    -11.236988
       4A    -11.234280     5A    -11.228316     6A    -11.220881
       7A    -11.211745     8A     -1.354790     9A     -1.097720
      10A     -1.041038    11A     -0.975835    12A     -0.878606
      13A     -0.813068    14A     -0.752904    15A     -0.696290
      16A     -0.654874    17A     -0.614236    18A     -0.591806
      19A     -0.581725    20A     -0.538542    21A     -0.530320
      22A     -0.528574    23A     -0.520357    24A     -0.506890
      25A     -0.484726    26A     -0.479292    27A     -0.443604
      28A     -0.356678

  @DF-RHF Final Energy:  -309.14452306396737

   => Energetics <=

    Nuclear Repulsion Energy =            299.7263102726506645
    One-Electron Energy =               -1012.9263010972071015
    Two-Electron Energy =                 404.0554677605890106
    Total Energy =                       -309.1445230639673696
  Basis Set: (AUG-CC-PVTZ AUX)
    Blend: AUG-CC-PVTZ-RI
    Molecular point group: c1

    Geometry (in Angstrom), charge = 0, multiplicity = 1:

       Center              X                  Y                   Z               Mass
    ------------   -----------------  -----------------  -----------------  -----------------
         O           -2.387228850733    -1.053374017020    -0.016956983763    15.994914619570
         C           -1.496930850733     0.025443982980    -0.342601983763    12.000000000000
         C           -0.200722150733    -0.169062317020     0.254023716237    12.000000000000
         C            2.332955149267    -0.470536017020     0.290810016237    12.000000000000
         C            0.990510149267    -0.289246017020    -0.347564983763    12.000000000000
         C           -2.191496850733     1.286896982980     0.133357016237    12.000000000000
         C            3.257089149267     0.718216982980     0.019804016237    12.000000000000
         H           -1.352602850733     0.078031982980    -1.433870983763     1.007825032230
         H           -0.186034850733    -0.249914017020     1.404620016237     1.007825032230
         H            2.802129149267    -1.385803017020    -0.091981983763     1.007825032230
         H            2.207248149267    -0.606958017020     1.370666016237     1.007825032230
         H            0.922433149267    -0.209105817020    -1.434919783763     1.007825032230
         H           -2.329996850733     1.243728982980     1.216534016237     1.007825032230
         H           -1.596096850733     2.168975982980    -0.114933983763     1.007825032230
         H           -3.173460850733     1.371677982980    -0.337952983763     1.007825032230
         H            2.828766149267     1.636662982980     0.429171016237     1.007825032230
         H            3.401095149267     0.863730982980    -1.054662983763     1.007825032230
         H            4.240002149267     0.565047982980     0.473904016237     1.007825032230
         H           -1.922520850733    -1.876181017020    -0.250656983763     1.007825032230

  Basis Set: AUG-CC-PVTZ
    Blend: AUG-CC-PVTZ
  Basis Set: (AUG-CC-PVTZ AUX)
    Blend: AUG-CC-PVTZ-JKFIT
	 Reference Energy          =    -309.1445230639673696 [Eh]
	 Singles Energy            =      -0.0000000000000000 [Eh]
	 Same-Spin Energy          =      -0.3175738336632083 [Eh]
	 Opposite-Spin Energy      =      -1.1035431351114933 [Eh]
	 Correlation Energy        =      -1.4211169687747016 [Eh]
	 Total Energy              =    -310.5656400327420670 [Eh]

	 ================> DF-SCS-MP2 Energies <==================
	-----------------------------------------------------------
	 SCS Same-Spin Scale       =       0.3333333333333333 [-]
	 SCS Opposite-Spin Scale   =       1.2000000000000000 [-]
	 SCS Same-Spin Energy      =      -0.1058579445544028 [Eh]
	 SCS Opposite-Spin Energy  =      -1.3242517621337919 [Eh]
	 SCS Correlation Energy    =      -1.4301097066881947 [Eh]
	 SCS Total Energy          =    -310.5746327706555689 [Eh]
	-----------------------------------------------------------

  Dipole Moment: [D]
     X:     1.9468      Y:     0.0216      Z:    -0.5679     Total:     2.0280

*** Psi4 exiting successfully. Buy a developer a beer!
