                               Psi4 1.3.2 release

  ==> Input File <==

--------------------------------------------------------------------------
#psi4
#
memory 32 gb

molecule  {
0 1
  O       -2.3916800    -1.0522970    -0.0243250
  C       -1.5013820     0.0265210    -0.3499700
  C       -0.2094363    -0.1763636     0.3775875
  C        2.3285040    -0.4694590     0.2834420
  C        0.9860590    -0.2881690    -0.3549330
  C       -2.1959480     1.2879740     0.1259890
  C        3.2526380     0.7192940     0.0124360
  H       -1.4140118     0.0863581    -1.4468976
  H       -0.1904860    -0.2488370     1.3972520
  H        2.7976780    -1.3847260    -0.0993500
  H        2.2027970    -0.6058810     1.3632980
  H        0.9746330    -0.2154440    -1.4448770
  H       -2.3344480     1.2448060     1.2091660
  H       -1.6005480     2.1700530    -0.1223020
  H       -3.1779120     1.3727550    -0.3453210
  H        2.8243150     1.6377400     0.4218030
  H        3.3966440     0.8648080    -1.0620310
  H        4.2355510     0.5661250     0.4665360
  H       -1.9269720    -1.8751040    -0.2580250
units angstrom
no_reorient  #important for SAPT in psi4, default
symmetry c1  #important for SAPT in psi4, default
}

set PROPERTIES_ORIGIN ["COM"]
properties('MP2/aug-cc-pvtz', properties = ['dipole'])
--------------------------------------------------------------------------

    Molecular point group: c1
  Charge       = 0
  Multiplicity = 1
  Basis Set: AUG-CC-PVTZ
    Blend: AUG-CC-PVTZ
  Basis Set: (AUG-CC-PVTZ AUX)
    Blend: AUG-CC-PVTZ-JKFIT

    Orbital Energies [Eh]
    ---------------------

    Doubly Occupied:

       1A    -20.550806     2A    -11.280872     3A    -11.246076
       4A    -11.230500     5A    -11.230379     6A    -11.219533
       7A    -11.209294     8A     -1.351712     9A     -1.087540
      10A     -1.035071    11A     -0.968123    12A     -0.873769
      13A     -0.803055    14A     -0.772502    15A     -0.689553
      16A     -0.653464    17A     -0.606370    18A     -0.603493
      19A     -0.577034    20A     -0.547023    21A     -0.534469
      22A     -0.527351    23A     -0.523197    24A     -0.509450
      25A     -0.487997    26A     -0.463951    27A     -0.444739
      28A     -0.341824

  @DF-RHF Final Energy:  -309.13935514709561

   => Energetics <=

    Nuclear Repulsion Energy =            298.5426741565018460
    One-Electron Energy =               -1010.6257657991127417
    Two-Electron Energy =                 402.9437364955153384
    Total Energy =                       -309.1393551470956140
  Basis Set: (AUG-CC-PVTZ AUX)
    Blend: AUG-CC-PVTZ-RI
    Molecular point group: c1

    Geometry (in Angstrom), charge = 0, multiplicity = 1:

       Center              X                  Y                   Z               Mass
    ------------   -----------------  -----------------  -----------------  -----------------
         O           -2.386714655409    -1.052367840658    -0.032571808063    15.994914619570
         C           -1.496416655409     0.026450159342    -0.358216808063    12.000000000000
         C           -0.204470955409    -0.176434440658     0.369340691937    12.000000000000
         C            2.333469344591    -0.469529840658     0.275195191937    12.000000000000
         C            0.991024344591    -0.288239840658    -0.363179808063    12.000000000000
         C           -2.190982655409     1.287903159342     0.117742191937    12.000000000000
         C            3.257603344591     0.719223159342     0.004189191937    12.000000000000
         H           -1.409046455409     0.086287259342    -1.455144408063     1.007825032230
         H           -0.185520655409    -0.248907840658     1.389005191937     1.007825032230
         H            2.802643344591    -1.384796840658    -0.107596808063     1.007825032230
         H            2.207762344591    -0.605951840658     1.355051191937     1.007825032230
         H            0.979598344591    -0.215514840658    -1.453123808063     1.007825032230
         H           -2.329482655409     1.244735159342     1.200919191937     1.007825032230
         H           -1.595582655409     2.169982159342    -0.130548808063     1.007825032230
         H           -3.172946655409     1.372684159342    -0.353567808063     1.007825032230
         H            2.829280344591     1.637669159342     0.413556191937     1.007825032230
         H            3.401609344591     0.864737159342    -1.070277808063     1.007825032230
         H            4.240516344591     0.566054159342     0.458289191937     1.007825032230
         H           -1.922006655409    -1.875174840658    -0.266271808063     1.007825032230

  Basis Set: AUG-CC-PVTZ
    Blend: AUG-CC-PVTZ
  Basis Set: (AUG-CC-PVTZ AUX)
    Blend: AUG-CC-PVTZ-JKFIT
	 Reference Energy          =    -309.1393551470956140 [Eh]
	 Singles Energy            =      -0.0000000000000000 [Eh]
	 Same-Spin Energy          =      -0.3174300508126666 [Eh]
	 Opposite-Spin Energy      =      -1.1043846541490472 [Eh]
	 Correlation Energy        =      -1.4218147049617138 [Eh]
	 Total Energy              =    -310.5611698520573327 [Eh]

	 ================> DF-SCS-MP2 Energies <==================
	-----------------------------------------------------------
	 SCS Same-Spin Scale       =       0.3333333333333333 [-]
	 SCS Opposite-Spin Scale   =       1.2000000000000000 [-]
	 SCS Same-Spin Energy      =      -0.1058100169375555 [Eh]
	 SCS Opposite-Spin Energy  =      -1.3252615849788565 [Eh]
	 SCS Correlation Energy    =      -1.4310716019164120 [Eh]
	 SCS Total Energy          =    -310.5704267490120287 [Eh]
	-----------------------------------------------------------

  Dipole Moment: [D]
     X:     1.9244      Y:     0.0177      Z:    -0.5485     Total:     2.0011

*** Psi4 exiting successfully. Buy a developer a beer!
