                               Psi4 1.3.2 release

  ==> Input File <==

--------------------------------------------------------------------------
#psi4
#
memory 32 gb

molecule  {
0 1
  O       -2.3916800    -1.0522970    -0.0243250
  C       -1.5013820     0.0265210    -0.3499700
  C       -0.1728060    -0.1763470     0.3083280
  C        2.3285040    -0.4694590     0.2834420
  C        0.9536066    -0.2954204    -0.2839335
  C       -2.1959480     1.2879740     0.1259890
  C        3.2526380     0.7192940     0.0124360
  H       -1.3570540     0.0791090    -1.4412390
  H       -0.1904860    -0.2488370     1.3972520
  H        2.7976780    -1.3847260    -0.0993500
  H        2.1461473    -0.6008496     1.3558154
  H        0.9746330    -0.2154440    -1.4448770
  H       -2.3344480     1.2448060     1.2091660
  H       -1.6005480     2.1700530    -0.1223020
  H       -3.1779120     1.3727550    -0.3453210
  H        2.8243150     1.6377400     0.4218030
  H        3.3966440     0.8648080    -1.0620310
  H        4.2355510     0.5661250     0.4665360
  H       -1.9269720    -1.8751040    -0.2580250
units angstrom
no_reorient  #important for SAPT in psi4, default
symmetry c1  #important for SAPT in psi4, default
}

set PROPERTIES_ORIGIN ["COM"]
properties('MP2/aug-cc-pvtz', properties = ['dipole'])
--------------------------------------------------------------------------

    Molecular point group: c1
  Charge       = 0
  Multiplicity = 1
  Basis Set: AUG-CC-PVTZ
    Blend: AUG-CC-PVTZ
  Basis Set: (AUG-CC-PVTZ AUX)
    Blend: AUG-CC-PVTZ-JKFIT

    Orbital Energies [Eh]
    ---------------------

    Doubly Occupied:

       1A    -20.554471     2A    -11.282254     3A    -11.232644
       4A    -11.231412     5A    -11.221199     6A    -11.217363
       7A    -11.211297     8A     -1.353643     9A     -1.102890
      10A     -1.035978    11A     -0.981804    12A     -0.874616
      13A     -0.812032    14A     -0.749222    15A     -0.694441
      16A     -0.653913    17A     -0.616597    18A     -0.592110
      19A     -0.579740    20A     -0.540871    21A     -0.533448
      22A     -0.528438    23A     -0.521931    24A     -0.510294
      25A     -0.486819    26A     -0.462294    27A     -0.438991
      28A     -0.372199

  @DF-RHF Final Energy:  -309.14437633524324

   => Energetics <=

    Nuclear Repulsion Energy =            299.9613795333812618
    One-Electron Energy =               -1013.4256907302689115
    Two-Electron Energy =                 404.3199348616443558
    Total Energy =                       -309.1443763352432370
  Basis Set: (AUG-CC-PVTZ AUX)
    Blend: AUG-CC-PVTZ-RI
    Molecular point group: c1

    Geometry (in Angstrom), charge = 0, multiplicity = 1:

       Center              X                  Y                   Z               Mass
    ------------   -----------------  -----------------  -----------------  -----------------
         O           -2.387218660885    -1.051478104342    -0.032762056366    15.994914619570
         C           -1.496920660885     0.027339895658    -0.358407056366    12.000000000000
         C           -0.168344660885    -0.175528104342     0.299890943634    12.000000000000
         C            2.332965339115    -0.468640104342     0.275004943634    12.000000000000
         C            0.958067939115    -0.294601504342    -0.292370556366    12.000000000000
         C           -2.191486660885     1.288792895658     0.117551943634    12.000000000000
         C            3.257099339115     0.720112895658     0.003998943634    12.000000000000
         H           -1.352592660885     0.079927895658    -1.449676056366     1.007825032230
         H           -0.186024660885    -0.248018104342     1.388814943634     1.007825032230
         H            2.802139339115    -1.383907104342    -0.107787056366     1.007825032230
         H            2.150608639115    -0.600030704342     1.347378343634     1.007825032230
         H            0.979094339115    -0.214625104342    -1.453314056366     1.007825032230
         H           -2.329986660885     1.245624895658     1.200728943634     1.007825032230
         H           -1.596086660885     2.170871895658    -0.130739056366     1.007825032230
         H           -3.173450660885     1.373573895658    -0.353758056366     1.007825032230
         H            2.828776339115     1.638558895658     0.413365943634     1.007825032230
         H            3.401105339115     0.865626895658    -1.070468056366     1.007825032230
         H            4.240012339115     0.566943895658     0.458098943634     1.007825032230
         H           -1.922510660885    -1.874285104342    -0.266462056366     1.007825032230

  Basis Set: AUG-CC-PVTZ
    Blend: AUG-CC-PVTZ
  Basis Set: (AUG-CC-PVTZ AUX)
    Blend: AUG-CC-PVTZ-JKFIT
	 Reference Energy          =    -309.1443763352432370 [Eh]
	 Singles Energy            =      -0.0000000000000000 [Eh]
	 Same-Spin Energy          =      -0.3164799914291383 [Eh]
	 Opposite-Spin Energy      =      -1.1016682009339420 [Eh]
	 Correlation Energy        =      -1.4181481923630803 [Eh]
	 Total Energy              =    -310.5625245276063424 [Eh]

	 ================> DF-SCS-MP2 Energies <==================
	-----------------------------------------------------------
	 SCS Same-Spin Scale       =       0.3333333333333333 [-]
	 SCS Opposite-Spin Scale   =       1.2000000000000000 [-]
	 SCS Same-Spin Energy      =      -0.1054933304763794 [Eh]
	 SCS Opposite-Spin Energy  =      -1.3220018411207304 [Eh]
	 SCS Correlation Energy    =      -1.4274951715971098 [Eh]
	 SCS Total Energy          =    -310.5718715068403526 [Eh]
	-----------------------------------------------------------

  Dipole Moment: [D]
     X:     1.9025      Y:     0.0259      Z:    -0.5125     Total:     1.9704

*** Psi4 exiting successfully. Buy a developer a beer!
