                               Psi4 1.3.2 release

  ==> Input File <==

--------------------------------------------------------------------------
#psi4
#
memory 32 gb

molecule  {
0 1
  O       -2.3916800    -1.0522970    -0.0243250
  C       -1.5013820     0.0265210    -0.3499700
  C       -0.1728060    -0.1763470     0.3083280
  C        2.3285040    -0.4694590     0.2834420
  C        0.9860590    -0.2881690    -0.3549330
  C       -2.1959480     1.2879740     0.1259890
  C        3.2526380     0.7192940     0.0124360
  H       -1.3570540     0.0791090    -1.4412390
  H       -0.1904860    -0.2488370     1.3972520
  H        2.7976780    -1.3847260    -0.0993500
  H        2.2027970    -0.6058810     1.3632980
  H        0.9746330    -0.2154440    -1.4448770
  H       -2.3344480     1.2448060     1.2091660
  H       -1.6005480     2.1700530    -0.1223020
  H       -3.1779120     1.3727550    -0.3453210
  H        2.8243150     1.6377400     0.4218030
  H        3.3966440     0.8648080    -1.0620310
  H        4.2355510     0.5661250     0.4665360
  H       -1.9747109    -1.7905781    -0.2340173
units angstrom
no_reorient  #important for SAPT in psi4, default
symmetry c1  #important for SAPT in psi4, default
}

set PROPERTIES_ORIGIN ["COM"]
properties('MP2/aug-cc-pvtz', properties = ['dipole'])
--------------------------------------------------------------------------

    Molecular point group: c1
  Charge       = 0
  Multiplicity = 1
  Basis Set: AUG-CC-PVTZ
    Blend: AUG-CC-PVTZ
  Basis Set: (AUG-CC-PVTZ AUX)
    Blend: AUG-CC-PVTZ-JKFIT

    Orbital Energies [Eh]
    ---------------------

    Doubly Occupied:

       1A    -20.543576     2A    -11.282196     3A    -11.236730
       4A    -11.230871     5A    -11.226750     6A    -11.219825
       7A    -11.211018     8A     -1.378359     9A     -1.096197
      10A     -1.038812    11A     -0.976180    12A     -0.874052
      13A     -0.812230    14A     -0.762281    15A     -0.711341
      16A     -0.655094    17A     -0.612077    18A     -0.595182
      19A     -0.581060    20A     -0.539393    21A     -0.536568
      22A     -0.530418    23A     -0.523027    24A     -0.512344
      25A     -0.487693    26A     -0.474147    27A     -0.442891
      28A     -0.357211

  @DF-RHF Final Energy:  -309.14701938166894

   => Energetics <=

    Nuclear Repulsion Energy =            299.7585028210042992
    One-Electron Energy =               -1012.9159967223630474
    Two-Electron Energy =                 404.0104745196898079
    Total Energy =                       -309.1470193816689402
  Basis Set: (AUG-CC-PVTZ AUX)
    Blend: AUG-CC-PVTZ-RI
    Molecular point group: c1

    Geometry (in Angstrom), charge = 0, multiplicity = 1:

       Center              X                  Y                   Z               Mass
    ------------   -----------------  -----------------  -----------------  -----------------
         O           -2.391199218825    -1.053147954734    -0.024566762143    15.994914619570
         C           -1.500901218825     0.025670045266    -0.350211762143    12.000000000000
         C           -0.172325218825    -0.177197954734     0.308086237857    12.000000000000
         C            2.328984781175    -0.470309954734     0.283200237857    12.000000000000
         C            0.986539781175    -0.289019954734    -0.355174762143    12.000000000000
         C           -2.195467218825     1.287123045266     0.125747237857    12.000000000000
         C            3.253118781175     0.718443045266     0.012194237857    12.000000000000
         H           -1.356573218825     0.078258045266    -1.441480762143     1.007825032230
         H           -0.190005218825    -0.249687954734     1.397010237857     1.007825032230
         H            2.798158781175    -1.385576954734    -0.099591762143     1.007825032230
         H            2.203277781175    -0.606731954734     1.363056237857     1.007825032230
         H            0.975113781175    -0.216294954734    -1.445118762143     1.007825032230
         H           -2.333967218825     1.243955045266     1.208924237857     1.007825032230
         H           -1.600067218825     2.169202045266    -0.122543762143     1.007825032230
         H           -3.177431218825     1.371904045266    -0.345562762143     1.007825032230
         H            2.824795781175     1.636889045266     0.421561237857     1.007825032230
         H            3.397124781175     0.863957045266    -1.062272762143     1.007825032230
         H            4.236031781175     0.565274045266     0.466294237857     1.007825032230
         H           -1.974230118825    -1.791429054734    -0.234259062143     1.007825032230

  Basis Set: AUG-CC-PVTZ
    Blend: AUG-CC-PVTZ
  Basis Set: (AUG-CC-PVTZ AUX)
    Blend: AUG-CC-PVTZ-JKFIT
	 Reference Energy          =    -309.1470193816689402 [Eh]
	 Singles Energy            =      -0.0000000000000000 [Eh]
	 Same-Spin Energy          =      -0.3154858339643007 [Eh]
	 Opposite-Spin Energy      =      -1.0994187575849326 [Eh]
	 Correlation Energy        =      -1.4149045915492333 [Eh]
	 Total Energy              =    -310.5619239732181995 [Eh]

	 ================> DF-SCS-MP2 Energies <==================
	-----------------------------------------------------------
	 SCS Same-Spin Scale       =       0.3333333333333333 [-]
	 SCS Opposite-Spin Scale   =       1.2000000000000000 [-]
	 SCS Same-Spin Energy      =      -0.1051619446547669 [Eh]
	 SCS Opposite-Spin Energy  =      -1.3193025091019190 [Eh]
	 SCS Correlation Energy    =      -1.4244644537566860 [Eh]
	 SCS Total Energy          =    -310.5714838354256244 [Eh]
	-----------------------------------------------------------

  Dipole Moment: [D]
     X:     1.9100      Y:     0.0779      Z:    -0.5427     Total:     1.9871

*** Psi4 exiting successfully. Buy a developer a beer!
