                               Psi4 1.3.2 release

  ==> Input File <==

--------------------------------------------------------------------------
#psi4
#
memory 32 gb

molecule  {
0 1
  O       -2.3916800    -1.0522970    -0.0243250
  C       -1.5013820     0.0265210    -0.3499700
  C       -0.1728060    -0.1763470     0.3083280
  C        2.3285040    -0.4694590     0.2834420
  C        0.9786436    -0.3113410    -0.3453846
  C       -2.1959480     1.2879740     0.1259890
  C        3.2718206     0.7073184     0.0266340
  H       -1.3570540     0.0791090    -1.4412390
  H       -0.1904860    -0.2488370     1.3972520
  H        2.7976780    -1.3847260    -0.0993500
  H        2.2027970    -0.6058810     1.3632980
  H        0.9746330    -0.2154440    -1.4448770
  H       -2.3344480     1.2448060     1.2091660
  H       -1.6005480     2.1700530    -0.1223020
  H       -3.1779120     1.3727550    -0.3453210
  H        2.8243150     1.6377400     0.4218030
  H        3.3966440     0.8648080    -1.0620310
  H        4.2355510     0.5661250     0.4665360
  H       -1.9269720    -1.8751040    -0.2580250
units angstrom
no_reorient  #important for SAPT in psi4, default
symmetry c1  #important for SAPT in psi4, default
}

set PROPERTIES_ORIGIN ["COM"]
properties('MP2/aug-cc-pvtz', properties = ['dipole'])
--------------------------------------------------------------------------

    Molecular point group: c1
  Charge       = 0
  Multiplicity = 1
  Basis Set: AUG-CC-PVTZ
    Blend: AUG-CC-PVTZ
  Basis Set: (AUG-CC-PVTZ AUX)
    Blend: AUG-CC-PVTZ-JKFIT

    Orbital Energies [Eh]
    ---------------------

    Doubly Occupied:

       1A    -20.553853     2A    -11.281527     3A    -11.236161
       4A    -11.230568     5A    -11.225546     6A    -11.220246
       7A    -11.211049     8A     -1.353092     9A     -1.095376
      10A     -1.035110    11A     -0.976284    12A     -0.874146
      13A     -0.807999    14A     -0.758834    15A     -0.693196
      16A     -0.653940    17A     -0.612358    18A     -0.592652
      19A     -0.578647    20A     -0.543652    21A     -0.536018
      22A     -0.528222    23A     -0.521074    24A     -0.508503
      25A     -0.483085    26A     -0.471843    27A     -0.441346
      28A     -0.359352

  @DF-RHF Final Energy:  -309.15099088872296

   => Energetics <=

    Nuclear Repulsion Energy =            299.0936314601749473
    One-Electron Energy =               -1011.7218891630303688
    Two-Electron Energy =                 403.4772668141324630
    Total Energy =                       -309.1509908887229585
  Basis Set: (AUG-CC-PVTZ AUX)
    Blend: AUG-CC-PVTZ-RI
    Molecular point group: c1

    Geometry (in Angstrom), charge = 0, multiplicity = 1:

       Center              X                  Y                   Z               Mass
    ------------   -----------------  -----------------  -----------------  -----------------
         O           -2.393090727466    -1.048082868112    -0.027172060637    15.994914619570
         C           -1.502792727466     0.030735131888    -0.352817060637    12.000000000000
         C           -0.174216727466    -0.172132868112     0.305480939363    12.000000000000
         C            2.327093272534    -0.465244868112     0.280594939363    12.000000000000
         C            0.977232872534    -0.307126868112    -0.348231660637    12.000000000000
         C           -2.197358727466     1.292188131888     0.123141939363    12.000000000000
         C            3.270409872534     0.711532531888     0.023786939363    12.000000000000
         H           -1.358464727466     0.083323131888    -1.444086060637     1.007825032230
         H           -0.191896727466    -0.244622868112     1.394404939363     1.007825032230
         H            2.796267272534    -1.380511868112    -0.102197060637     1.007825032230
         H            2.201386272534    -0.601666868112     1.360450939363     1.007825032230
         H            0.973222272534    -0.211229868112    -1.447724060637     1.007825032230
         H           -2.335858727466     1.249020131888     1.206318939363     1.007825032230
         H           -1.601958727466     2.174267131888    -0.125149060637     1.007825032230
         H           -3.179322727466     1.376969131888    -0.348168060637     1.007825032230
         H            2.822904272534     1.641954131888     0.418955939363     1.007825032230
         H            3.395233272534     0.869022131888    -1.064878060637     1.007825032230
         H            4.234140272534     0.570339131888     0.463688939363     1.007825032230
         H           -1.928382727466    -1.870889868112    -0.260872060637     1.007825032230

  Basis Set: AUG-CC-PVTZ
    Blend: AUG-CC-PVTZ
  Basis Set: (AUG-CC-PVTZ AUX)
    Blend: AUG-CC-PVTZ-JKFIT
	 Reference Energy          =    -309.1509908887229585 [Eh]
	 Singles Energy            =      -0.0000000000000000 [Eh]
	 Same-Spin Energy          =      -0.3166364369826179 [Eh]
	 Opposite-Spin Energy      =      -1.1022737783407874 [Eh]
	 Correlation Energy        =      -1.4189102153234052 [Eh]
	 Total Energy              =    -310.5699011040463802 [Eh]

	 ================> DF-SCS-MP2 Energies <==================
	-----------------------------------------------------------
	 SCS Same-Spin Scale       =       0.3333333333333333 [-]
	 SCS Opposite-Spin Scale   =       1.2000000000000000 [-]
	 SCS Same-Spin Energy      =      -0.1055454789942060 [Eh]
	 SCS Opposite-Spin Energy  =      -1.3227285340089450 [Eh]
	 SCS Correlation Energy    =      -1.4282740130031510 [Eh]
	 SCS Total Energy          =    -310.5792649017261056 [Eh]
	-----------------------------------------------------------

  Dipole Moment: [D]
     X:     1.9097      Y:     0.0311      Z:    -0.5383     Total:     1.9843

*** Psi4 exiting successfully. Buy a developer a beer!
