                               Psi4 1.3.2 release

  ==> Input File <==

--------------------------------------------------------------------------
#psi4
#
memory 32 gb

molecule  {
0 1
  O       -2.3916800    -1.0522970    -0.0243250
  C       -1.5237031     0.0268616    -0.3027441
  C       -0.1728060    -0.1763470     0.3083280
  C        2.3285040    -0.4694590     0.2834420
  C        1.0080824    -0.2931135    -0.3139705
  C       -2.1959480     1.2879740     0.1259890
  C        3.2526380     0.7192940     0.0124360
  H       -1.3570540     0.0791090    -1.4412390
  H       -0.1904860    -0.2488370     1.3972520
  H        2.7976780    -1.3847260    -0.0993500
  H        2.2027970    -0.6058810     1.3632980
  H        0.9746330    -0.2154440    -1.4448770
  H       -2.3344480     1.2448060     1.2091660
  H       -1.6005480     2.1700530    -0.1223020
  H       -3.1779120     1.3727550    -0.3453210
  H        2.8243150     1.6377400     0.4218030
  H        3.3966440     0.8648080    -1.0620310
  H        4.2355510     0.5661250     0.4665360
  H       -1.9269720    -1.8751040    -0.2580250
units angstrom
no_reorient  #important for SAPT in psi4, default
symmetry c1  #important for SAPT in psi4, default
}

set PROPERTIES_ORIGIN ["COM"]
properties('MP2/aug-cc-pvtz', properties = ['dipole'])
--------------------------------------------------------------------------

    Molecular point group: c1
  Charge       = 0
  Multiplicity = 1
  Basis Set: AUG-CC-PVTZ
    Blend: AUG-CC-PVTZ
  Basis Set: (AUG-CC-PVTZ AUX)
    Blend: AUG-CC-PVTZ-JKFIT

    Orbital Energies [Eh]
    ---------------------

    Doubly Occupied:

       1A    -20.556404     2A    -11.284662     3A    -11.238791
       4A    -11.229701     5A    -11.225611     6A    -11.220686
       7A    -11.210687     8A     -1.362609     9A     -1.098287
      10A     -1.039090    11A     -0.977487    12A     -0.877605
      13A     -0.807490    14A     -0.753087    15A     -0.698920
      16A     -0.653176    17A     -0.616874    18A     -0.592579
      19A     -0.585176    20A     -0.540312    21A     -0.535894
      22A     -0.532065    23A     -0.522508    24A     -0.511966
      25A     -0.483183    26A     -0.473898    27A     -0.430792
      28A     -0.356443

  @DF-RHF Final Energy:  -309.14575075410067

   => Energetics <=

    Nuclear Repulsion Energy =            299.6862280711673066
    One-Electron Energy =               -1012.8319957366144308
    Two-Electron Energy =                 404.0000169113464494
    Total Energy =                       -309.1457507541006748
  Basis Set: (AUG-CC-PVTZ AUX)
    Blend: AUG-CC-PVTZ-RI
    Molecular point group: c1

    Geometry (in Angstrom), charge = 0, multiplicity = 1:

       Center              X                  Y                   Z               Mass
    ------------   -----------------  -----------------  -----------------  -----------------
         O           -2.391644224178    -1.051744859714    -0.034898238631    15.994914619570
         C           -1.523667324178     0.027413740286    -0.313317338631    12.000000000000
         C           -0.172770224178    -0.175794859714     0.297754761369    12.000000000000
         C            2.328539775822    -0.468906859714     0.272868761369    12.000000000000
         C            1.008118175822    -0.292561359714    -0.324543738631    12.000000000000
         C           -2.195912224178     1.288526140286     0.115415761369    12.000000000000
         C            3.252673775822     0.719846140286     0.001862761369    12.000000000000
         H           -1.357018224178     0.079661140286    -1.451812238631     1.007825032230
         H           -0.190450224178    -0.248284859714     1.386678761369     1.007825032230
         H            2.797713775822    -1.384173859714    -0.109923238631     1.007825032230
         H            2.202832775822    -0.605328859714     1.352724761369     1.007825032230
         H            0.974668775822    -0.214891859714    -1.455450238631     1.007825032230
         H           -2.334412224178     1.245358140286     1.198592761369     1.007825032230
         H           -1.600512224178     2.170605140286    -0.132875238631     1.007825032230
         H           -3.177876224178     1.373307140286    -0.355894238631     1.007825032230
         H            2.824350775822     1.638292140286     0.411229761369     1.007825032230
         H            3.396679775822     0.865360140286    -1.072604238631     1.007825032230
         H            4.235586775822     0.566677140286     0.455962761369     1.007825032230
         H           -1.926936224178    -1.874551859714    -0.268598238631     1.007825032230

  Basis Set: AUG-CC-PVTZ
    Blend: AUG-CC-PVTZ
  Basis Set: (AUG-CC-PVTZ AUX)
    Blend: AUG-CC-PVTZ-JKFIT
	 Reference Energy          =    -309.1457507541006748 [Eh]
	 Singles Energy            =      -0.0000000000000000 [Eh]
	 Same-Spin Energy          =      -0.3173251712834598 [Eh]
	 Opposite-Spin Energy      =      -1.1029389737666950 [Eh]
	 Correlation Energy        =      -1.4202641450501550 [Eh]
	 Total Energy              =    -310.5660148991508436 [Eh]

	 ================> DF-SCS-MP2 Energies <==================
	-----------------------------------------------------------
	 SCS Same-Spin Scale       =       0.3333333333333333 [-]
	 SCS Opposite-Spin Scale   =       1.2000000000000000 [-]
	 SCS Same-Spin Energy      =      -0.1057750570944866 [Eh]
	 SCS Opposite-Spin Energy  =      -1.3235267685200340 [Eh]
	 SCS Correlation Energy    =      -1.4293018256145207 [Eh]
	 SCS Total Energy          =    -310.5750525797151909 [Eh]
	-----------------------------------------------------------

  Dipole Moment: [D]
     X:     1.8890      Y:    -0.0234      Z:    -0.4580     Total:     1.9438

*** Psi4 exiting successfully. Buy a developer a beer!
