                               Psi4 1.3.2 release

  ==> Input File <==

--------------------------------------------------------------------------
#psi4
#
memory 32 gb

molecule  {
0 1
  O       -2.3916800    -1.0522970    -0.0243250
  C       -1.5013820     0.0265210    -0.3499700
  C       -0.1728060    -0.1763470     0.3083280
  C        2.3395637    -0.4690533     0.2597646
  C        0.9860590    -0.2881690    -0.3549330
  C       -2.1959480     1.2879740     0.1259890
  C        3.2526380     0.7192940     0.0124360
  H       -1.3570540     0.0791090    -1.4412390
  H       -0.1904860    -0.2488370     1.3972520
  H        2.7976780    -1.3847260    -0.0993500
  H        2.2027970    -0.6058810     1.3632980
  H        0.9935977    -0.2174025    -1.4450397
  H       -2.3344480     1.2448060     1.2091660
  H       -1.6005480     2.1700530    -0.1223020
  H       -3.1779120     1.3727550    -0.3453210
  H        2.8243150     1.6377400     0.4218030
  H        3.3966440     0.8648080    -1.0620310
  H        4.2355510     0.5661250     0.4665360
  H       -1.9269720    -1.8751040    -0.2580250
units angstrom
no_reorient  #important for SAPT in psi4, default
symmetry c1  #important for SAPT in psi4, default
}

set PROPERTIES_ORIGIN ["COM"]
properties('MP2/aug-cc-pvtz', properties = ['dipole'])
--------------------------------------------------------------------------

    Molecular point group: c1
  Charge       = 0
  Multiplicity = 1
  Basis Set: AUG-CC-PVTZ
    Blend: AUG-CC-PVTZ
  Basis Set: (AUG-CC-PVTZ AUX)
    Blend: AUG-CC-PVTZ-JKFIT

    Orbital Energies [Eh]
    ---------------------

    Doubly Occupied:

       1A    -20.553810     2A    -11.281383     3A    -11.236382
       4A    -11.230812     5A    -11.227152     6A    -11.219302
       7A    -11.210848     8A     -1.353027     9A     -1.094862
      10A     -1.036053    11A     -0.975376    12A     -0.873636
      13A     -0.807200    14A     -0.760024    15A     -0.693125
      16A     -0.654263    17A     -0.613193    18A     -0.593157
      19A     -0.578548    20A     -0.540931    21A     -0.537188
      22A     -0.528161    23A     -0.522722    24A     -0.511562
      25A     -0.481026    26A     -0.470469    27A     -0.441021
      28A     -0.357718

  @DF-RHF Final Energy:  -309.15082783331229

   => Energetics <=

    Nuclear Repulsion Energy =            299.1486659185389954
    One-Electron Energy =               -1011.8330879524536385
    Two-Electron Energy =                 403.5335942006023515
    Total Energy =                       -309.1508278333122917
  Basis Set: (AUG-CC-PVTZ AUX)
    Blend: AUG-CC-PVTZ-RI
    Molecular point group: c1

    Geometry (in Angstrom), charge = 0, multiplicity = 1:

       Center              X                  Y                   Z               Mass
    ------------   -----------------  -----------------  -----------------  -----------------
         O           -2.393196864195    -1.052325757536    -0.021484616209    15.994914619570
         C           -1.502898864195     0.026492242464    -0.347129616209    12.000000000000
         C           -0.174322864195    -0.176375757536     0.311168383791    12.000000000000
         C            2.338046835805    -0.469082057536     0.262604983791    12.000000000000
         C            0.984542135805    -0.288197757536    -0.352092616209    12.000000000000
         C           -2.197464864195     1.287945242464     0.128829383791    12.000000000000
         C            3.251121135805     0.719265242464     0.015276383791    12.000000000000
         H           -1.358570864195     0.079080242464    -1.438398616209     1.007825032230
         H           -0.192002864195    -0.248865757536     1.400092383791     1.007825032230
         H            2.796161135805    -1.384754757536    -0.096509616209     1.007825032230
         H            2.201280135805    -0.605909757536     1.366138383791     1.007825032230
         H            0.992080835805    -0.217431257536    -1.442199316209     1.007825032230
         H           -2.335964864195     1.244777242464     1.212006383791     1.007825032230
         H           -1.602064864195     2.170024242464    -0.119461616209     1.007825032230
         H           -3.179428864195     1.372726242464    -0.342480616209     1.007825032230
         H            2.822798135805     1.637711242464     0.424643383791     1.007825032230
         H            3.395127135805     0.864779242464    -1.059190616209     1.007825032230
         H            4.234034135805     0.566096242464     0.469376383791     1.007825032230
         H           -1.928488864195    -1.875132757536    -0.255184616209     1.007825032230

  Basis Set: AUG-CC-PVTZ
    Blend: AUG-CC-PVTZ
  Basis Set: (AUG-CC-PVTZ AUX)
    Blend: AUG-CC-PVTZ-JKFIT
	 Reference Energy          =    -309.1508278333122917 [Eh]
	 Singles Energy            =      -0.0000000000000000 [Eh]
	 Same-Spin Energy          =      -0.3167680504890914 [Eh]
	 Opposite-Spin Energy      =      -1.1025735314912106 [Eh]
	 Correlation Energy        =      -1.4193415819803019 [Eh]
	 Total Energy              =    -310.5701694152925825 [Eh]

	 ================> DF-SCS-MP2 Energies <==================
	-----------------------------------------------------------
	 SCS Same-Spin Scale       =       0.3333333333333333 [-]
	 SCS Opposite-Spin Scale   =       1.2000000000000000 [-]
	 SCS Same-Spin Energy      =      -0.1055893501630305 [Eh]
	 SCS Opposite-Spin Energy  =      -1.3230882377894526 [Eh]
	 SCS Correlation Energy    =      -1.4286775879524831 [Eh]
	 SCS Total Energy          =    -310.5795054212647983 [Eh]
	-----------------------------------------------------------

  Dipole Moment: [D]
     X:     1.9116      Y:     0.0088      Z:    -0.5670     Total:     1.9939

*** Psi4 exiting successfully. Buy a developer a beer!
