                               Psi4 1.3.2 release

  ==> Input File <==

--------------------------------------------------------------------------
#psi4
#
memory 32 gb

molecule  {
0 1
  O       -2.3916800    -1.0522970    -0.0243250
  C       -1.5013820     0.0265210    -0.3499700
  C       -0.1728060    -0.1763470     0.3083280
  C        2.3285040    -0.4694590     0.2834420
  C        0.9803592    -0.2866998    -0.3650364
  C       -2.1959480     1.2879740     0.1259890
  C        3.2526380     0.7192940     0.0124360
  H       -1.3570540     0.0791090    -1.4412390
  H       -0.1999226    -0.2475475     1.3971430
  H        2.7976780    -1.3847260    -0.0993500
  H        2.2027970    -0.6058810     1.3632980
  H        0.9746330    -0.2154440    -1.4448770
  H       -2.3344480     1.2448060     1.2091660
  H       -1.6005480     2.1700530    -0.1223020
  H       -3.1779120     1.3727550    -0.3453210
  H        2.8243150     1.6377400     0.4218030
  H        3.3966440     0.8648080    -1.0620310
  H        4.2355510     0.5661250     0.4665360
  H       -1.9269720    -1.8751040    -0.2580250
units angstrom
no_reorient  #important for SAPT in psi4, default
symmetry c1  #important for SAPT in psi4, default
}

set PROPERTIES_ORIGIN ["COM"]
properties('MP2/aug-cc-pvtz', properties = ['dipole'])
--------------------------------------------------------------------------

    Molecular point group: c1
  Charge       = 0
  Multiplicity = 1
  Basis Set: AUG-CC-PVTZ
    Blend: AUG-CC-PVTZ
  Basis Set: (AUG-CC-PVTZ AUX)
    Blend: AUG-CC-PVTZ-JKFIT

    Orbital Energies [Eh]
    ---------------------

    Doubly Occupied:

       1A    -20.553538     2A    -11.280658     3A    -11.235860
       4A    -11.230884     5A    -11.226475     6A    -11.219355
       7A    -11.210623     8A     -1.352770     9A     -1.093732
      10A     -1.034510    11A     -0.974603    12A     -0.872377
      13A     -0.807098    14A     -0.762484    15A     -0.692671
      16A     -0.654481    17A     -0.609481    18A     -0.594657
      19A     -0.578235    20A     -0.540835    21A     -0.535399
      22A     -0.527663    23A     -0.521492    24A     -0.510129
      25A     -0.488298    26A     -0.470099    27A     -0.440053
      28A     -0.357001

  @DF-RHF Final Energy:  -309.15182851946093

   => Energetics <=

    Nuclear Repulsion Energy =            299.0948106485170683
    One-Electron Energy =               -1011.7423570308097851
    Two-Electron Energy =                 403.4957178628317820
    Total Energy =                       -309.1518285194609348
  Basis Set: (AUG-CC-PVTZ AUX)
    Blend: AUG-CC-PVTZ-RI
    Molecular point group: c1

    Geometry (in Angstrom), charge = 0, multiplicity = 1:

       Center              X                  Y                   Z               Mass
    ------------   -----------------  -----------------  -----------------  -----------------
         O           -2.390901527387    -1.052485969401    -0.023112591525    15.994914619570
         C           -1.500603527387     0.026332030599    -0.348757591525    12.000000000000
         C           -0.172027527387    -0.176535969401     0.309540408475    12.000000000000
         C            2.329282472613    -0.469647969401     0.284654408475    12.000000000000
         C            0.981137672613    -0.286888769401    -0.363823991525    12.000000000000
         C           -2.195169527387     1.287785030599     0.127201408475    12.000000000000
         C            3.253416472613     0.719105030599     0.013648408475    12.000000000000
         H           -1.356275527387     0.078920030599    -1.440026591525     1.007825032230
         H           -0.199144127387    -0.247736469401     1.398355408475     1.007825032230
         H            2.798456472613    -1.384914969401    -0.098137591525     1.007825032230
         H            2.203575472613    -0.606069969401     1.364510408475     1.007825032230
         H            0.975411472613    -0.215632969401    -1.443664591525     1.007825032230
         H           -2.333669527387     1.244617030599     1.210378408475     1.007825032230
         H           -1.599769527387     2.169864030599    -0.121089591525     1.007825032230
         H           -3.177133527387     1.372566030599    -0.344108591525     1.007825032230
         H            2.825093472613     1.637551030599     0.423015408475     1.007825032230
         H            3.397422472613     0.864619030599    -1.060818591525     1.007825032230
         H            4.236329472613     0.565936030599     0.467748408475     1.007825032230
         H           -1.926193527387    -1.875292969401    -0.256812591525     1.007825032230

  Basis Set: AUG-CC-PVTZ
    Blend: AUG-CC-PVTZ
  Basis Set: (AUG-CC-PVTZ AUX)
    Blend: AUG-CC-PVTZ-JKFIT
	 Reference Energy          =    -309.1518285194609348 [Eh]
	 Singles Energy            =      -0.0000000000000000 [Eh]
	 Same-Spin Energy          =      -0.3166192636748452 [Eh]
	 Opposite-Spin Energy      =      -1.1023457642329211 [Eh]
	 Correlation Energy        =      -1.4189650279077664 [Eh]
	 Total Energy              =    -310.5707935473686803 [Eh]

	 ================> DF-SCS-MP2 Energies <==================
	-----------------------------------------------------------
	 SCS Same-Spin Scale       =       0.3333333333333333 [-]
	 SCS Opposite-Spin Scale   =       1.2000000000000000 [-]
	 SCS Same-Spin Energy      =      -0.1055397545582817 [Eh]
	 SCS Opposite-Spin Energy  =      -1.3228149170795052 [Eh]
	 SCS Correlation Energy    =      -1.4283546716377868 [Eh]
	 SCS Total Energy          =    -310.5801831910987403 [Eh]
	-----------------------------------------------------------

  Dipole Moment: [D]
     X:     1.9051      Y:     0.0069      Z:    -0.5578     Total:     1.9851

*** Psi4 exiting successfully. Buy a developer a beer!
