                               Psi4 1.3.2 release

  ==> Input File <==

--------------------------------------------------------------------------
#psi4
#
memory 32 gb

molecule  {
0 1
  O       -2.3868298    -1.0405015     0.0241539
  C       -1.5013820     0.0265210    -0.3499700
  C       -0.1728060    -0.1763470     0.3083280
  C        2.3285040    -0.4694590     0.2834420
  C        0.9860590    -0.2881690    -0.3549330
  C       -2.1959480     1.2879740     0.1259890
  C        3.2526380     0.7192940     0.0124360
  H       -1.3336045     0.1091496    -1.4360120
  H       -0.1904860    -0.2488370     1.3972520
  H        2.7976780    -1.3847260    -0.0993500
  H        2.2027970    -0.6058810     1.3632980
  H        0.9746330    -0.2154440    -1.4448770
  H       -2.3344480     1.2448060     1.2091660
  H       -1.6005480     2.1700530    -0.1223020
  H       -3.1779120     1.3727550    -0.3453210
  H        2.8243150     1.6377400     0.4218030
  H        3.3966440     0.8648080    -1.0620310
  H        4.2355510     0.5661250     0.4665360
  H       -1.9269720    -1.8751040    -0.2580250
units angstrom
no_reorient  #important for SAPT in psi4, default
symmetry c1  #important for SAPT in psi4, default
}

set PROPERTIES_ORIGIN ["COM"]
properties('MP2/aug-cc-pvtz', properties = ['dipole'])
--------------------------------------------------------------------------

    Molecular point group: c1
  Charge       = 0
  Multiplicity = 1
  Basis Set: AUG-CC-PVTZ
    Blend: AUG-CC-PVTZ
  Basis Set: (AUG-CC-PVTZ AUX)
    Blend: AUG-CC-PVTZ-JKFIT

    Orbital Energies [Eh]
    ---------------------

    Doubly Occupied:

       1A    -20.557816     2A    -11.281243     3A    -11.235340
       4A    -11.230197     5A    -11.225422     6A    -11.219306
       7A    -11.209919     8A     -1.350769     9A     -1.094062
      10A     -1.034304    11A     -0.974126    12A     -0.873011
      13A     -0.806043    14A     -0.759771    15A     -0.691792
      16A     -0.653214    17A     -0.610211    18A     -0.594148
      19A     -0.578990    20A     -0.538312    21A     -0.535856
      22A     -0.526712    23A     -0.520266    24A     -0.508381
      25A     -0.486936    26A     -0.473406    27A     -0.441367
      28A     -0.355908

  @DF-RHF Final Energy:  -309.14894475079859

   => Energetics <=

    Nuclear Repulsion Energy =            299.2528765979072887
    One-Electron Energy =               -1012.0699878049216522
    Two-Electron Energy =                 403.6681664562157721
    Total Energy =                       -309.1489447507985915
  Basis Set: (AUG-CC-PVTZ AUX)
    Blend: AUG-CC-PVTZ-RI
    Molecular point group: c1

    Geometry (in Angstrom), charge = 0, multiplicity = 1:

       Center              X                  Y                   Z               Mass
    ------------   -----------------  -----------------  -----------------  -----------------
         O           -2.387840933645    -1.042688831493     0.016353968578    15.994914619570
         C           -1.502393133645     0.024333668507    -0.357769931422    12.000000000000
         C           -0.173817133645    -0.178534331493     0.300528068578    12.000000000000
         C            2.327492866355    -0.471646331493     0.275642068578    12.000000000000
         C            0.985047866355    -0.290356331493    -0.362732931422    12.000000000000
         C           -2.196959133645     1.285786668507     0.118189068578    12.000000000000
         C            3.251626866355     0.717106668507     0.004636068578    12.000000000000
         H           -1.334615633645     0.106962268507    -1.443811931422     1.007825032230
         H           -0.191497133645    -0.251024331493     1.389452068578     1.007825032230
         H            2.796666866355    -1.386913331493    -0.107149931422     1.007825032230
         H            2.201785866355    -0.608068331493     1.355498068578     1.007825032230
         H            0.973621866355    -0.217631331493    -1.452676931422     1.007825032230
         H           -2.335459133645     1.242618668507     1.201366068578     1.007825032230
         H           -1.601559133645     2.167865668507    -0.130101931422     1.007825032230
         H           -3.178923133645     1.370567668507    -0.353120931422     1.007825032230
         H            2.823303866355     1.635552668507     0.414003068578     1.007825032230
         H            3.395632866355     0.862620668507    -1.069830931422     1.007825032230
         H            4.234539866355     0.563937668507     0.458736068578     1.007825032230
         H           -1.927983133645    -1.877291331493    -0.265824931422     1.007825032230

  Basis Set: AUG-CC-PVTZ
    Blend: AUG-CC-PVTZ
  Basis Set: (AUG-CC-PVTZ AUX)
    Blend: AUG-CC-PVTZ-JKFIT
	 Reference Energy          =    -309.1489447507985915 [Eh]
	 Singles Energy            =      -0.0000000000000000 [Eh]
	 Same-Spin Energy          =      -0.3171642369755527 [Eh]
	 Opposite-Spin Energy      =      -1.1034081806720770 [Eh]
	 Correlation Energy        =      -1.4205724176476298 [Eh]
	 Total Energy              =    -310.5695171684462252 [Eh]

	 ================> DF-SCS-MP2 Energies <==================
	-----------------------------------------------------------
	 SCS Same-Spin Scale       =       0.3333333333333333 [-]
	 SCS Opposite-Spin Scale   =       1.2000000000000000 [-]
	 SCS Same-Spin Energy      =      -0.1057214123251842 [Eh]
	 SCS Opposite-Spin Energy  =      -1.3240898168064923 [Eh]
	 SCS Correlation Energy    =      -1.4298112291316765 [Eh]
	 SCS Total Energy          =    -310.5787559799302926 [Eh]
	-----------------------------------------------------------

  Dipole Moment: [D]
     X:     1.8598      Y:    -0.0267      Z:    -0.6464     Total:     1.9691

*** Psi4 exiting successfully. Buy a developer a beer!
