                               Psi4 1.3.2 release

  ==> Input File <==

--------------------------------------------------------------------------
#psi4
#
memory 32 gb

molecule  {
0 1
  O       -2.3916800    -1.0522970    -0.0243250
  C       -1.5013820     0.0265210    -0.3499700
  C       -0.1711687    -0.1873588     0.3015005
  C        2.3285040    -0.4694590     0.2834420
  C        0.9860590    -0.2881690    -0.3549330
  C       -2.2061315     1.2853267     0.1179604
  C        3.2526380     0.7192940     0.0124360
  H       -1.3570540     0.0791090    -1.4412390
  H       -0.1904860    -0.2488370     1.3972520
  H        2.7976780    -1.3847260    -0.0993500
  H        2.2027970    -0.6058810     1.3632980
  H        0.9746330    -0.2154440    -1.4448770
  H       -2.3344480     1.2448060     1.2091660
  H       -1.6005480     2.1700530    -0.1223020
  H       -3.1779120     1.3727550    -0.3453210
  H        2.8243150     1.6377400     0.4218030
  H        3.3966440     0.8648080    -1.0620310
  H        4.2355510     0.5661250     0.4665360
  H       -1.9269720    -1.8751040    -0.2580250
units angstrom
no_reorient  #important for SAPT in psi4, default
symmetry c1  #important for SAPT in psi4, default
}

set PROPERTIES_ORIGIN ["COM"]
properties('MP2/aug-cc-pvtz', properties = ['dipole'])
--------------------------------------------------------------------------

    Molecular point group: c1
  Charge       = 0
  Multiplicity = 1
  Basis Set: AUG-CC-PVTZ
    Blend: AUG-CC-PVTZ
  Basis Set: (AUG-CC-PVTZ AUX)
    Blend: AUG-CC-PVTZ-JKFIT

    Orbital Energies [Eh]
    ---------------------

    Doubly Occupied:

       1A    -20.553248     2A    -11.281149     3A    -11.235593
       4A    -11.230781     5A    -11.226143     6A    -11.219765
       7A    -11.211002     8A     -1.352746     9A     -1.095292
      10A     -1.034710    11A     -0.975615    12A     -0.873606
      13A     -0.807950    14A     -0.759703    15A     -0.692690
      16A     -0.654538    17A     -0.611476    18A     -0.594293
      19A     -0.578659    20A     -0.539006    21A     -0.537505
      22A     -0.525045    23A     -0.521612    24A     -0.510008
      25A     -0.487491    26A     -0.471819    27A     -0.440238
      28A     -0.358322

  @DF-RHF Final Energy:  -309.15178823811124

   => Energetics <=

    Nuclear Repulsion Energy =            299.1608894766074513
    One-Electron Energy =               -1011.8653500624103572
    Two-Electron Energy =                 403.5526723476917255
    Total Energy =                       -309.1517882381112372
  Basis Set: (AUG-CC-PVTZ AUX)
    Blend: AUG-CC-PVTZ-RI
    Molecular point group: c1

    Geometry (in Angstrom), charge = 0, multiplicity = 1:

       Center              X                  Y                   Z               Mass
    ------------   -----------------  -----------------  -----------------  -----------------
         O           -2.390655282507    -1.050659199943    -0.022543871163    15.994914619570
         C           -1.500357282507     0.028158800057    -0.348188871163    12.000000000000
         C           -0.170143982507    -0.185720999943     0.303281628837    12.000000000000
         C            2.329528717493    -0.467821199943     0.285223128837    12.000000000000
         C            0.987083717493    -0.286531199943    -0.353151871163    12.000000000000
         C           -2.205106782507     1.286964500057     0.119741528837    12.000000000000
         C            3.253662717493     0.720931800057     0.014217128837    12.000000000000
         H           -1.356029282507     0.080746800057    -1.439457871163     1.007825032230
         H           -0.189461282507    -0.247199199943     1.399033128837     1.007825032230
         H            2.798702717493    -1.383088199943    -0.097568871163     1.007825032230
         H            2.203821717493    -0.604243199943     1.365079128837     1.007825032230
         H            0.975657717493    -0.213806199943    -1.443095871163     1.007825032230
         H           -2.333423282507     1.246443800057     1.210947128837     1.007825032230
         H           -1.599523282507     2.171690800057    -0.120520871163     1.007825032230
         H           -3.176887282507     1.374392800057    -0.343539871163     1.007825032230
         H            2.825339717493     1.639377800057     0.423584128837     1.007825032230
         H            3.397668717493     0.866445800057    -1.060249871163     1.007825032230
         H            4.236575717493     0.567762800057     0.468317128837     1.007825032230
         H           -1.925947282507    -1.873466199943    -0.256243871163     1.007825032230

  Basis Set: AUG-CC-PVTZ
    Blend: AUG-CC-PVTZ
  Basis Set: (AUG-CC-PVTZ AUX)
    Blend: AUG-CC-PVTZ-JKFIT
	 Reference Energy          =    -309.1517882381112372 [Eh]
	 Singles Energy            =      -0.0000000000000000 [Eh]
	 Same-Spin Energy          =      -0.3166514173867007 [Eh]
	 Opposite-Spin Energy      =      -1.1022964127769197 [Eh]
	 Correlation Energy        =      -1.4189478301636202 [Eh]
	 Total Energy              =    -310.5707360682748686 [Eh]

	 ================> DF-SCS-MP2 Energies <==================
	-----------------------------------------------------------
	 SCS Same-Spin Scale       =       0.3333333333333333 [-]
	 SCS Opposite-Spin Scale   =       1.2000000000000000 [-]
	 SCS Same-Spin Energy      =      -0.1055504724622335 [Eh]
	 SCS Opposite-Spin Energy  =      -1.3227556953323036 [Eh]
	 SCS Correlation Energy    =      -1.4283061677945372 [Eh]
	 SCS Total Energy          =    -310.5800944059057542 [Eh]
	-----------------------------------------------------------

  Dipole Moment: [D]
     X:     1.9198      Y:     0.0208      Z:    -0.5586     Total:     1.9995

*** Psi4 exiting successfully. Buy a developer a beer!
