                               Psi4 1.3.2 release

  ==> Input File <==

--------------------------------------------------------------------------
#psi4
#
memory 32 gb

molecule  {
0 1
  O       -2.3916800    -1.0522970    -0.0243250
  C       -1.5013820     0.0265210    -0.3499700
  C       -0.1614005    -0.1762179     0.2848310
  C        2.3285040    -0.4694590     0.2834420
  C        0.9860590    -0.2881690    -0.3549330
  C       -2.1959480     1.2879740     0.1259890
  C        3.2526380     0.7192940     0.0124360
  H       -1.3381483     0.0766596    -1.4386871
  H       -0.1904860    -0.2488370     1.3972520
  H        2.7976780    -1.3847260    -0.0993500
  H        2.2027970    -0.6058810     1.3632980
  H        0.9746330    -0.2154440    -1.4448770
  H       -2.3344480     1.2448060     1.2091660
  H       -1.6005480     2.1700530    -0.1223020
  H       -3.1779120     1.3727550    -0.3453210
  H        2.8243150     1.6377400     0.4218030
  H        3.3966440     0.8648080    -1.0620310
  H        4.2355510     0.5661250     0.4665360
  H       -1.9269720    -1.8751040    -0.2580250
units angstrom
no_reorient  #important for SAPT in psi4, default
symmetry c1  #important for SAPT in psi4, default
}

set PROPERTIES_ORIGIN ["COM"]
properties('MP2/aug-cc-pvtz', properties = ['dipole'])
--------------------------------------------------------------------------

    Molecular point group: c1
  Charge       = 0
  Multiplicity = 1
  Basis Set: AUG-CC-PVTZ
    Blend: AUG-CC-PVTZ
  Basis Set: (AUG-CC-PVTZ AUX)
    Blend: AUG-CC-PVTZ-JKFIT

    Orbital Energies [Eh]
    ---------------------

    Doubly Occupied:

       1A    -20.554662     2A    -11.281496     3A    -11.232979
       4A    -11.230764     5A    -11.225005     6A    -11.219698
       7A    -11.211253     8A     -1.353346     9A     -1.097461
      10A     -1.035113    11A     -0.977046    12A     -0.873395
      13A     -0.809460    14A     -0.756782    15A     -0.694282
      16A     -0.654445    17A     -0.612183    18A     -0.592471
      19A     -0.578883    20A     -0.537268    21A     -0.535943
      22A     -0.528043    23A     -0.520702    24A     -0.510483
      25A     -0.487365    26A     -0.473240    27A     -0.438376
      28A     -0.361892

  @DF-RHF Final Energy:  -309.15152619614878

   => Energetics <=

    Nuclear Repulsion Energy =            299.3582850217045461
    One-Electron Energy =               -1012.2515455452503375
    Two-Electron Energy =                 403.7417343273970118
    Total Energy =                       -309.1515261961487795
  Basis Set: (AUG-CC-PVTZ AUX)
    Blend: AUG-CC-PVTZ-RI
    Molecular point group: c1

    Geometry (in Angstrom), charge = 0, multiplicity = 1:

       Center              X                  Y                   Z               Mass
    ------------   -----------------  -----------------  -----------------  -----------------
         O           -2.393237729284    -1.052287651967    -0.021533579141    15.994914619570
         C           -1.502939729284     0.026530348033    -0.347178579141    12.000000000000
         C           -0.162958229284    -0.176208551967     0.287622420859    12.000000000000
         C            2.326946270716    -0.469449651967     0.286233420859    12.000000000000
         C            0.984501270716    -0.288159651967    -0.352141579141    12.000000000000
         C           -2.197505729284     1.287983348033     0.128780420859    12.000000000000
         C            3.251080270716     0.719303348033     0.015227420859    12.000000000000
         H           -1.339706029284     0.076668948033    -1.435895679141     1.007825032230
         H           -0.192043729284    -0.248827651967     1.400043420859     1.007825032230
         H            2.796120270716    -1.384716651967    -0.096558579141     1.007825032230
         H            2.201239270716    -0.605871651967     1.366089420859     1.007825032230
         H            0.973075270716    -0.215434651967    -1.442085579141     1.007825032230
         H           -2.336005729284     1.244815348033     1.211957420859     1.007825032230
         H           -1.602105729284     2.170062348033    -0.119510579141     1.007825032230
         H           -3.179469729284     1.372764348033    -0.342529579141     1.007825032230
         H            2.822757270716     1.637749348033     0.424594420859     1.007825032230
         H            3.395086270716     0.864817348033    -1.059239579141     1.007825032230
         H            4.233993270716     0.566134348033     0.469327420859     1.007825032230
         H           -1.928529729284    -1.875094651967    -0.255233579141     1.007825032230

  Basis Set: AUG-CC-PVTZ
    Blend: AUG-CC-PVTZ
  Basis Set: (AUG-CC-PVTZ AUX)
    Blend: AUG-CC-PVTZ-JKFIT
	 Reference Energy          =    -309.1515261961487795 [Eh]
	 Singles Energy            =      -0.0000000000000000 [Eh]
	 Same-Spin Energy          =      -0.3165931590346801 [Eh]
	 Opposite-Spin Energy      =      -1.1020611795331141 [Eh]
	 Correlation Energy        =      -1.4186543385677943 [Eh]
	 Total Energy              =    -310.5701805347165987 [Eh]

	 ================> DF-SCS-MP2 Energies <==================
	-----------------------------------------------------------
	 SCS Same-Spin Scale       =       0.3333333333333333 [-]
	 SCS Opposite-Spin Scale   =       1.2000000000000000 [-]
	 SCS Same-Spin Energy      =      -0.1055310530115600 [Eh]
	 SCS Opposite-Spin Energy  =      -1.3224734154397368 [Eh]
	 SCS Correlation Energy    =      -1.4280044684512969 [Eh]
	 SCS Total Energy          =    -310.5795306646000995 [Eh]
	-----------------------------------------------------------

  Dipole Moment: [D]
     X:     1.9094      Y:     0.0044      Z:    -0.5605     Total:     1.9899

*** Psi4 exiting successfully. Buy a developer a beer!
