                               Psi4 1.3.2 release

  ==> Input File <==

--------------------------------------------------------------------------
#psi4
#
memory 32 gb

molecule  {
0 1
  O       -2.3366025    -1.0827014     0.0168486
  C       -1.5013820     0.0265210    -0.3499700
  C       -0.2005580    -0.2427971     0.3391965
  C        2.3285040    -0.4694590     0.2834420
  C        0.9860590    -0.2881690    -0.3549330
  C       -2.1959480     1.2879740     0.1259890
  C        3.2526380     0.7192940     0.0124360
  H       -1.3570540     0.0791090    -1.4412390
  H       -0.1904860    -0.2488370     1.3972520
  H        2.7976780    -1.3847260    -0.0993500
  H        2.2027970    -0.6058810     1.3632980
  H        0.9746330    -0.2154440    -1.4448770
  H       -2.3344480     1.2448060     1.2091660
  H       -1.6005480     2.1700530    -0.1223020
  H       -3.1779120     1.3727550    -0.3453210
  H        2.8243150     1.6377400     0.4218030
  H        3.3966440     0.8648080    -1.0620310
  H        4.2355510     0.5661250     0.4665360
  H       -1.9269720    -1.8751040    -0.2580250
units angstrom
no_reorient  #important for SAPT in psi4, default
symmetry c1  #important for SAPT in psi4, default
}

set PROPERTIES_ORIGIN ["COM"]
properties('MP2/aug-cc-pvtz', properties = ['dipole'])
--------------------------------------------------------------------------

    Molecular point group: c1
  Charge       = 0
  Multiplicity = 1
  Basis Set: AUG-CC-PVTZ
    Blend: AUG-CC-PVTZ
  Basis Set: (AUG-CC-PVTZ AUX)
    Blend: AUG-CC-PVTZ-JKFIT

    Orbital Energies [Eh]
    ---------------------

    Doubly Occupied:

       1A    -20.545836     2A    -11.282328     3A    -11.239109
       4A    -11.229129     5A    -11.226660     6A    -11.218841
       7A    -11.213245     8A     -1.360072     9A     -1.089224
      10A     -1.035695    11A     -0.971793    12A     -0.874031
      13A     -0.807386    14A     -0.765323    15A     -0.700045
      16A     -0.651596    17A     -0.608266    18A     -0.597481
      19A     -0.578390    20A     -0.542118    21A     -0.535018
      22A     -0.533249    23A     -0.522477    24A     -0.508117
      25A     -0.486651    26A     -0.470622    27A     -0.440991
      28A     -0.346319

  @DF-RHF Final Energy:  -309.14637173951661

   => Energetics <=

    Nuclear Repulsion Energy =            299.2906698451900525
    One-Electron Energy =               -1012.1140616001019907
    Two-Electron Energy =                 403.6770200153952715
    Total Energy =                       -309.1463717395166100
  Basis Set: (AUG-CC-PVTZ AUX)
    Blend: AUG-CC-PVTZ-RI
    Molecular point group: c1

    Geometry (in Angstrom), charge = 0, multiplicity = 1:

       Center              X                  Y                   Z               Mass
    ------------   -----------------  -----------------  -----------------  -----------------
         O           -2.342076913403    -1.069875458871     0.006567807467    15.994914619570
         C           -1.506856413403     0.039346941129    -0.360250792533    12.000000000000
         C           -0.206032413403    -0.229971158871     0.328915707467    12.000000000000
         C            2.323029586597    -0.456633058871     0.273161207467    12.000000000000
         C            0.980584586597    -0.275343058871    -0.365213792533    12.000000000000
         C           -2.201422413403     1.300799941129     0.115708207467    12.000000000000
         C            3.247163586597     0.732119941129     0.002155207467    12.000000000000
         H           -1.362528413403     0.091934941129    -1.451519792533     1.007825032230
         H           -0.195960413403    -0.236011058871     1.386971207467     1.007825032230
         H            2.792203586597    -1.371900058871    -0.109630792533     1.007825032230
         H            2.197322586597    -0.593055058871     1.353017207467     1.007825032230
         H            0.969158586597    -0.202618058871    -1.455157792533     1.007825032230
         H           -2.339922413403     1.257631941129     1.198885207467     1.007825032230
         H           -1.606022413403     2.182878941129    -0.132582792533     1.007825032230
         H           -3.183386413403     1.385580941129    -0.355601792533     1.007825032230
         H            2.818840586597     1.650565941129     0.411522207467     1.007825032230
         H            3.391169586597     0.877633941129    -1.072311792533     1.007825032230
         H            4.230076586597     0.578950941129     0.456255207467     1.007825032230
         H           -1.932446413403    -1.862278058871    -0.268305792533     1.007825032230

  Basis Set: AUG-CC-PVTZ
    Blend: AUG-CC-PVTZ
  Basis Set: (AUG-CC-PVTZ AUX)
    Blend: AUG-CC-PVTZ-JKFIT
	 Reference Energy          =    -309.1463717395166100 [Eh]
	 Singles Energy            =      -0.0000000000000000 [Eh]
	 Same-Spin Energy          =      -0.3165576306067215 [Eh]
	 Opposite-Spin Energy      =      -1.1021088857230033 [Eh]
	 Correlation Energy        =      -1.4186665163297247 [Eh]
	 Total Energy              =    -310.5650382558463320 [Eh]

	 ================> DF-SCS-MP2 Energies <==================
	-----------------------------------------------------------
	 SCS Same-Spin Scale       =       0.3333333333333333 [-]
	 SCS Opposite-Spin Scale   =       1.2000000000000000 [-]
	 SCS Same-Spin Energy      =      -0.1055192102022405 [Eh]
	 SCS Opposite-Spin Energy  =      -1.3225306628676039 [Eh]
	 SCS Correlation Energy    =      -1.4280498730698443 [Eh]
	 SCS Total Energy          =    -310.5744216125864341 [Eh]
	-----------------------------------------------------------

  Dipole Moment: [D]
     X:     1.7538      Y:     0.1642      Z:    -0.6445     Total:     1.8757

*** Psi4 exiting successfully. Buy a developer a beer!
