                               Psi4 1.3.2 release

  ==> Input File <==

--------------------------------------------------------------------------
#psi4
#
memory 32 gb

molecule  {
0 1
  O       -2.3916800    -1.0522970    -0.0243250
  C       -1.5013820     0.0265210    -0.3499700
  C       -0.1492687    -0.1805925     0.3485197
  C        2.3053433    -0.4684601     0.3302905
  C        0.9860590    -0.2881690    -0.3549330
  C       -2.1959480     1.2879740     0.1259890
  C        3.2526380     0.7192940     0.0124360
  H       -1.3570540     0.0791090    -1.4412390
  H       -0.1904860    -0.2488370     1.3972520
  H        2.7976780    -1.3847260    -0.0993500
  H        2.2027970    -0.6058810     1.3632980
  H        0.9746330    -0.2154440    -1.4448770
  H       -2.3344480     1.2448060     1.2091660
  H       -1.6005480     2.1700530    -0.1223020
  H       -3.1779120     1.3727550    -0.3453210
  H        2.8243150     1.6377400     0.4218030
  H        3.3966440     0.8648080    -1.0620310
  H        4.2355510     0.5661250     0.4665360
  H       -1.9269720    -1.8751040    -0.2580250
units angstrom
no_reorient  #important for SAPT in psi4, default
symmetry c1  #important for SAPT in psi4, default
}

set PROPERTIES_ORIGIN ["COM"]
properties('MP2/aug-cc-pvtz', properties = ['dipole'])
--------------------------------------------------------------------------

    Molecular point group: c1
  Charge       = 0
  Multiplicity = 1
  Basis Set: AUG-CC-PVTZ
    Blend: AUG-CC-PVTZ
  Basis Set: (AUG-CC-PVTZ AUX)
    Blend: AUG-CC-PVTZ-JKFIT

    Orbital Energies [Eh]
    ---------------------

    Doubly Occupied:

       1A    -20.552803     2A    -11.282176     3A    -11.236141
       4A    -11.228683     5A    -11.223760     6A    -11.219759
       7A    -11.209861     8A     -1.351428     9A     -1.093273
      10A     -1.029468    11A     -0.972786    12A     -0.870140
      13A     -0.805338    14A     -0.768751    15A     -0.690642
      16A     -0.653387    17A     -0.607079    18A     -0.597719
      19A     -0.575985    20A     -0.547029    21A     -0.531544
      22A     -0.526306    23A     -0.520208    24A     -0.510084
      25A     -0.496871    26A     -0.466826    27A     -0.434817
      28A     -0.354818

  @DF-RHF Final Energy:  -309.14685130324062

   => Energetics <=

    Nuclear Repulsion Energy =            298.7822403771365316
    One-Electron Energy =               -1011.1428206494106234
    Two-Electron Energy =                 403.2137289690334683
    Total Energy =                       -309.1468513032406236
  Basis Set: (AUG-CC-PVTZ AUX)
    Blend: AUG-CC-PVTZ-RI
    Molecular point group: c1

    Geometry (in Angstrom), charge = 0, multiplicity = 1:

       Center              X                  Y                   Z               Mass
    ------------   -----------------  -----------------  -----------------  -----------------
         O           -2.391725068376    -1.051907591184    -0.034760576895    15.994914619570
         C           -1.501427068376     0.026910408816    -0.360405576895    12.000000000000
         C           -0.149313768376    -0.180203091184     0.338084123105    12.000000000000
         C            2.305298231624    -0.468070691184     0.319854923105    12.000000000000
         C            0.986013931624    -0.287779591184    -0.365368576895    12.000000000000
         C           -2.195993068376     1.288363408816     0.115553423105    12.000000000000
         C            3.252592931624     0.719683408816     0.002000423105    12.000000000000
         H           -1.357099068376     0.079498408816    -1.451674576895     1.007825032230
         H           -0.190531068376    -0.248447591184     1.386816423105     1.007825032230
         H            2.797632931624    -1.384336591184    -0.109785576895     1.007825032230
         H            2.202751931624    -0.605491591184     1.352862423105     1.007825032230
         H            0.974587931624    -0.215054591184    -1.455312576895     1.007825032230
         H           -2.334493068376     1.245195408816     1.198730423105     1.007825032230
         H           -1.600593068376     2.170442408816    -0.132737576895     1.007825032230
         H           -3.177957068376     1.373144408816    -0.355756576895     1.007825032230
         H            2.824269931624     1.638129408816     0.411367423105     1.007825032230
         H            3.396598931624     0.865197408816    -1.072466576895     1.007825032230
         H            4.235505931624     0.566514408816     0.456100423105     1.007825032230
         H           -1.927017068376    -1.874714591184    -0.268460576895     1.007825032230

  Basis Set: AUG-CC-PVTZ
    Blend: AUG-CC-PVTZ
  Basis Set: (AUG-CC-PVTZ AUX)
    Blend: AUG-CC-PVTZ-JKFIT
	 Reference Energy          =    -309.1468513032406236 [Eh]
	 Singles Energy            =      -0.0000000000000000 [Eh]
	 Same-Spin Energy          =      -0.3163601099203075 [Eh]
	 Opposite-Spin Energy      =      -1.1021842333230267 [Eh]
	 Correlation Energy        =      -1.4185443432433342 [Eh]
	 Total Energy              =    -310.5653956464839780 [Eh]

	 ================> DF-SCS-MP2 Energies <==================
	-----------------------------------------------------------
	 SCS Same-Spin Scale       =       0.3333333333333333 [-]
	 SCS Opposite-Spin Scale   =       1.2000000000000000 [-]
	 SCS Same-Spin Energy      =      -0.1054533699734358 [Eh]
	 SCS Opposite-Spin Energy  =      -1.3226210799876321 [Eh]
	 SCS Correlation Energy    =      -1.4280744499610680 [Eh]
	 SCS Total Energy          =    -310.5749257532016827 [Eh]
	-----------------------------------------------------------

  Dipole Moment: [D]
     X:     1.8990      Y:    -0.0009      Z:    -0.5321     Total:     1.9722

*** Psi4 exiting successfully. Buy a developer a beer!
