                               Psi4 1.3.2 release

  ==> Input File <==

--------------------------------------------------------------------------
#psi4
#
memory 32 gb

molecule  {
0 1
  O       -2.3916800    -1.0522970    -0.0243250
  C       -1.5013820     0.0265210    -0.3499700
  C       -0.1728060    -0.1763470     0.3083280
  C        2.3285040    -0.4694590     0.2834420
  C        1.0079714    -0.2939596    -0.3140219
  C       -2.1959480     1.2879740     0.1259890
  C        3.2526380     0.7192940     0.0124360
  H       -1.3570540     0.0791090    -1.4412390
  H       -0.1527334    -0.2539389     1.3968589
  H        2.7976780    -1.3847260    -0.0993500
  H        2.2027970    -0.6058810     1.3632980
  H        0.9746330    -0.2154440    -1.4448770
  H       -2.3344480     1.2448060     1.2091660
  H       -1.6005480     2.1700530    -0.1223020
  H       -3.1779120     1.3727550    -0.3453210
  H        2.8243150     1.6377400     0.4218030
  H        3.3966440     0.8648080    -1.0620310
  H        4.2355510     0.5661250     0.4665360
  H       -1.9269720    -1.8751040    -0.2580250
units angstrom
no_reorient  #important for SAPT in psi4, default
symmetry c1  #important for SAPT in psi4, default
}

set PROPERTIES_ORIGIN ["COM"]
properties('MP2/aug-cc-pvtz', properties = ['dipole'])
--------------------------------------------------------------------------

    Molecular point group: c1
  Charge       = 0
  Multiplicity = 1
  Basis Set: AUG-CC-PVTZ
    Blend: AUG-CC-PVTZ
  Basis Set: (AUG-CC-PVTZ AUX)
    Blend: AUG-CC-PVTZ-JKFIT

    Orbital Energies [Eh]
    ---------------------

    Doubly Occupied:

       1A    -20.554175     2A    -11.283159     3A    -11.237624
       4A    -11.229592     5A    -11.225697     6A    -11.220734
       7A    -11.211157     8A     -1.353356     9A     -1.098767
      10A     -1.036906    11A     -0.975119    12A     -0.877327
      13A     -0.809251    14A     -0.753942    15A     -0.694009
      16A     -0.653810    17A     -0.616162    18A     -0.594216
      19A     -0.578897    20A     -0.539893    21A     -0.532104
      22A     -0.528343    23A     -0.522268    24A     -0.510978
      25A     -0.482351    26A     -0.475091    27A     -0.443102
      28A     -0.355628

  @DF-RHF Final Energy:  -309.14848697835913

   => Energetics <=

    Nuclear Repulsion Energy =            299.3622696795912361
    One-Electron Energy =               -1012.2341951184877189
    Two-Electron Energy =                 403.7234384605373521
    Total Energy =                       -309.1484869783591307
  Basis Set: (AUG-CC-PVTZ AUX)
    Blend: AUG-CC-PVTZ-RI
    Molecular point group: c1

    Geometry (in Angstrom), charge = 0, multiplicity = 1:

       Center              X                  Y                   Z               Mass
    ------------   -----------------  -----------------  -----------------  -----------------
         O           -2.394687213700    -1.051551209479    -0.029226038636    15.994914619570
         C           -1.504389213700     0.027266790521    -0.354871038636    12.000000000000
         C           -0.175813213700    -0.175601209479     0.303426961364    12.000000000000
         C            2.325496786300    -0.468713209479     0.278540961364    12.000000000000
         C            1.004964186300    -0.293213809479    -0.318922938636    12.000000000000
         C           -2.198955213700     1.288719790521     0.121087961364    12.000000000000
         C            3.249630786300     0.720039790521     0.007534961364    12.000000000000
         H           -1.360061213700     0.079854790521    -1.446140038636     1.007825032230
         H           -0.155740613700    -0.253193109479     1.391957861364     1.007825032230
         H            2.794670786300    -1.383980209479    -0.104251038636     1.007825032230
         H            2.199789786300    -0.605135209479     1.358396961364     1.007825032230
         H            0.971625786300    -0.214698209479    -1.449778038636     1.007825032230
         H           -2.337455213700     1.245551790521     1.204264961364     1.007825032230
         H           -1.603555213700     2.170798790521    -0.127203038636     1.007825032230
         H           -3.180919213700     1.373500790521    -0.350222038636     1.007825032230
         H            2.821307786300     1.638485790521     0.416901961364     1.007825032230
         H            3.393636786300     0.865553790521    -1.066932038636     1.007825032230
         H            4.232543786300     0.566870790521     0.461634961364     1.007825032230
         H           -1.929979213700    -1.874358209479    -0.262926038636     1.007825032230

  Basis Set: AUG-CC-PVTZ
    Blend: AUG-CC-PVTZ
  Basis Set: (AUG-CC-PVTZ AUX)
    Blend: AUG-CC-PVTZ-JKFIT
	 Reference Energy          =    -309.1484869783591307 [Eh]
	 Singles Energy            =      -0.0000000000000000 [Eh]
	 Same-Spin Energy          =      -0.3171920866783784 [Eh]
	 Opposite-Spin Energy      =      -1.1030142877422953 [Eh]
	 Correlation Energy        =      -1.4202063744206737 [Eh]
	 Total Energy              =    -310.5686933527798033 [Eh]

	 ================> DF-SCS-MP2 Energies <==================
	-----------------------------------------------------------
	 SCS Same-Spin Scale       =       0.3333333333333333 [-]
	 SCS Opposite-Spin Scale   =       1.2000000000000000 [-]
	 SCS Same-Spin Energy      =      -0.1057306955594595 [Eh]
	 SCS Opposite-Spin Energy  =      -1.3236171452907544 [Eh]
	 SCS Correlation Energy    =      -1.4293478408502138 [Eh]
	 SCS Total Energy          =    -310.5778348192093290 [Eh]
	-----------------------------------------------------------

  Dipole Moment: [D]
     X:     1.9488      Y:     0.0086      Z:    -0.5307     Total:     2.0198

*** Psi4 exiting successfully. Buy a developer a beer!
