                               Psi4 1.3.2 release

  ==> Input File <==

--------------------------------------------------------------------------
#psi4
#
memory 32 gb

molecule  {
0 1
  O       -2.3916800    -1.0522970    -0.0243250
  C       -1.5013820     0.0265210    -0.3499700
  C       -0.1784236    -0.1749315     0.2981710
  C        2.3285040    -0.4694590     0.2834420
  C        0.9860590    -0.2881690    -0.3549330
  C       -2.1959480     1.2879740     0.1259890
  C        3.2526380     0.7192940     0.0124360
  H       -1.3570540     0.0791090    -1.4412390
  H       -0.1904860    -0.2488370     1.3972520
  H        2.7976780    -1.3847260    -0.0993500
  H        2.2027970    -0.6058810     1.3632980
  H        0.9651848    -0.2141937    -1.4446528
  H       -2.3344480     1.2448060     1.2091660
  H       -1.6005480     2.1700530    -0.1223020
  H       -3.1779120     1.3727550    -0.3453210
  H        2.8243150     1.6377400     0.4218030
  H        3.3966440     0.8648080    -1.0620310
  H        4.2355510     0.5661250     0.4665360
  H       -1.9269720    -1.8751040    -0.2580250
units angstrom
no_reorient  #important for SAPT in psi4, default
symmetry c1  #important for SAPT in psi4, default
}

set PROPERTIES_ORIGIN ["COM"]
properties('MP2/aug-cc-pvtz', properties = ['dipole'])
--------------------------------------------------------------------------

    Molecular point group: c1
  Charge       = 0
  Multiplicity = 1
  Basis Set: AUG-CC-PVTZ
    Blend: AUG-CC-PVTZ
  Basis Set: (AUG-CC-PVTZ AUX)
    Blend: AUG-CC-PVTZ-JKFIT

    Orbital Energies [Eh]
    ---------------------

    Doubly Occupied:

       1A    -20.553817     2A    -11.280761     3A    -11.236204
       4A    -11.231209     5A    -11.226530     6A    -11.219815
       7A    -11.210881     8A     -1.353181     9A     -1.095017
      10A     -1.035973    11A     -0.974831    12A     -0.874105
      13A     -0.808309    14A     -0.759342    15A     -0.693467
      16A     -0.654340    17A     -0.611254    18A     -0.594033
      19A     -0.578888    20A     -0.537110    21A     -0.536123
      22A     -0.528003    23A     -0.521560    24A     -0.510187
      25A     -0.487144    26A     -0.472572    27A     -0.441645
      28A     -0.356649

  @DF-RHF Final Energy:  -309.15152269914944

   => Energetics <=

    Nuclear Repulsion Energy =            299.2410917701922131
    One-Electron Energy =               -1012.0193325832084383
    Two-Electron Energy =                 403.6267181138668434
    Total Energy =                       -309.1515226991494387
  Basis Set: (AUG-CC-PVTZ AUX)
    Blend: AUG-CC-PVTZ-RI
    Molecular point group: c1

    Geometry (in Angstrom), charge = 0, multiplicity = 1:

       Center              X                  Y                   Z               Mass
    ------------   -----------------  -----------------  -----------------  -----------------
         O           -2.390911265830    -1.052479136403    -0.023109520326    15.994914619570
         C           -1.500613265830     0.026338863597    -0.348754520326    12.000000000000
         C           -0.177654865830    -0.175113636403     0.299386479674    12.000000000000
         C            2.329272734170    -0.469641136403     0.284657479674    12.000000000000
         C            0.986827734170    -0.288351136403    -0.353717520326    12.000000000000
         C           -2.195179265830     1.287791863597     0.127204479674    12.000000000000
         C            3.253406734170     0.719111863597     0.013651479674    12.000000000000
         H           -1.356285265830     0.078926863597    -1.440023520326     1.007825032230
         H           -0.189717265830    -0.249019136403     1.398467479674     1.007825032230
         H            2.798446734170    -1.384908136403    -0.098134520326     1.007825032230
         H            2.203565734170    -0.606063136403     1.364513479674     1.007825032230
         H            0.965953534170    -0.214375836403    -1.443437320326     1.007825032230
         H           -2.333679265830     1.244623863597     1.210381479674     1.007825032230
         H           -1.599779265830     2.169870863597    -0.121086520326     1.007825032230
         H           -3.177143265830     1.372572863597    -0.344105520326     1.007825032230
         H            2.825083734170     1.637557863597     0.423018479674     1.007825032230
         H            3.397412734170     0.864625863597    -1.060815520326     1.007825032230
         H            4.236319734170     0.565942863597     0.467751479674     1.007825032230
         H           -1.926203265830    -1.875286136403    -0.256809520326     1.007825032230

  Basis Set: AUG-CC-PVTZ
    Blend: AUG-CC-PVTZ
  Basis Set: (AUG-CC-PVTZ AUX)
    Blend: AUG-CC-PVTZ-JKFIT
	 Reference Energy          =    -309.1515226991494387 [Eh]
	 Singles Energy            =      -0.0000000000000000 [Eh]
	 Same-Spin Energy          =      -0.3168270538674939 [Eh]
	 Opposite-Spin Energy      =      -1.1025556873320430 [Eh]
	 Correlation Energy        =      -1.4193827411995370 [Eh]
	 Total Energy              =    -310.5709054403489517 [Eh]

	 ================> DF-SCS-MP2 Energies <==================
	-----------------------------------------------------------
	 SCS Same-Spin Scale       =       0.3333333333333333 [-]
	 SCS Opposite-Spin Scale   =       1.2000000000000000 [-]
	 SCS Same-Spin Energy      =      -0.1056090179558313 [Eh]
	 SCS Opposite-Spin Energy  =      -1.3230668247984516 [Eh]
	 SCS Correlation Energy    =      -1.4286758427542829 [Eh]
	 SCS Total Energy          =    -310.5801985419037123 [Eh]
	-----------------------------------------------------------

  Dipole Moment: [D]
     X:     1.9191      Y:     0.0096      Z:    -0.5546     Total:     1.9977

*** Psi4 exiting successfully. Buy a developer a beer!
