                               Psi4 1.3.2 release

  ==> Input File <==

--------------------------------------------------------------------------
#psi4
#
memory 32 gb

molecule  {
0 1
  O       -2.3916800    -1.0522970    -0.0243250
  C       -1.5013820     0.0265210    -0.3499700
  C       -0.1728060    -0.1763470     0.3083280
  C        2.3285040    -0.4694590     0.2834420
  C        0.9860590    -0.2881690    -0.3549330
  C       -2.1959480     1.2879740     0.1259890
  C        3.2526380     0.7192940     0.0124360
  H       -1.3701506     0.0743371    -1.3422152
  H       -0.1904860    -0.2488370     1.3972520
  H        2.7976780    -1.3847260    -0.0993500
  H        2.2027970    -0.6058810     1.3632980
  H        0.9746330    -0.2154440    -1.4448770
  H       -2.3344480     1.2448060     1.2091660
  H       -1.6005480     2.1700530    -0.1223020
  H       -3.1779120     1.3727550    -0.3453210
  H        2.8243150     1.6377400     0.4218030
  H        3.3966440     0.8648080    -1.0620310
  H        4.2355510     0.5661250     0.4665360
  H       -1.9269720    -1.8751040    -0.2580250
units angstrom
no_reorient  #important for SAPT in psi4, default
symmetry c1  #important for SAPT in psi4, default
}

set PROPERTIES_ORIGIN ["COM"]
properties('MP2/aug-cc-pvtz', properties = ['dipole'])
--------------------------------------------------------------------------

    Molecular point group: c1
  Charge       = 0
  Multiplicity = 1
  Basis Set: AUG-CC-PVTZ
    Blend: AUG-CC-PVTZ
  Basis Set: (AUG-CC-PVTZ AUX)
    Blend: AUG-CC-PVTZ-JKFIT

    Orbital Energies [Eh]
    ---------------------

    Doubly Occupied:

       1A    -20.552006     2A    -11.268320     3A    -11.235977
       4A    -11.230556     5A    -11.225564     6A    -11.219555
       7A    -11.209896     8A     -1.352140     9A     -1.095307
      10A     -1.037464    11A     -0.974876    12A     -0.874614
      13A     -0.814803    14A     -0.765369    15A     -0.696042
      16A     -0.658080    17A     -0.610802    18A     -0.595783
      19A     -0.577431    20A     -0.538577    21A     -0.535889
      22A     -0.527988    23A     -0.521742    24A     -0.510394
      25A     -0.487254    26A     -0.474918    27A     -0.444008
      28A     -0.356501

  @DF-RHF Final Energy:  -309.14689120438828

   => Energetics <=

    Nuclear Repulsion Energy =            299.6611089881293992
    One-Electron Energy =               -1012.8322909773853553
    Two-Electron Energy =                 404.0242907848676737
    Total Energy =                       -309.1468912043882824
  Basis Set: (AUG-CC-PVTZ AUX)
    Blend: AUG-CC-PVTZ-RI
    Molecular point group: c1

    Geometry (in Angstrom), charge = 0, multiplicity = 1:

       Center              X                  Y                   Z               Mass
    ------------   -----------------  -----------------  -----------------  -----------------
         O           -2.391548042788    -1.052248787748    -0.025322122304    15.994914619570
         C           -1.501250042788     0.026569212252    -0.350967122304    12.000000000000
         C           -0.172674042788    -0.176298787748     0.307330877696    12.000000000000
         C            2.328635957212    -0.469410787748     0.282444877696    12.000000000000
         C            0.986190957212    -0.288120787748    -0.355930122304    12.000000000000
         C           -2.195816042788     1.288022212252     0.124991877696    12.000000000000
         C            3.252769957212     0.719342212252     0.011438877696    12.000000000000
         H           -1.370018642788     0.074385312252    -1.343212322304     1.007825032230
         H           -0.190354042788    -0.248788787748     1.396254877696     1.007825032230
         H            2.797809957212    -1.384677787748    -0.100347122304     1.007825032230
         H            2.202928957212    -0.605832787748     1.362300877696     1.007825032230
         H            0.974764957212    -0.215395787748    -1.445874122304     1.007825032230
         H           -2.334316042788     1.244854212252     1.208168877696     1.007825032230
         H           -1.600416042788     2.170101212252    -0.123299122304     1.007825032230
         H           -3.177780042788     1.372803212252    -0.346318122304     1.007825032230
         H            2.824446957212     1.637788212252     0.420805877696     1.007825032230
         H            3.396775957212     0.864856212252    -1.063028122304     1.007825032230
         H            4.235682957212     0.566173212252     0.465538877696     1.007825032230
         H           -1.926840042788    -1.875055787748    -0.259022122304     1.007825032230

  Basis Set: AUG-CC-PVTZ
    Blend: AUG-CC-PVTZ
  Basis Set: (AUG-CC-PVTZ AUX)
    Blend: AUG-CC-PVTZ-JKFIT
	 Reference Energy          =    -309.1468912043882824 [Eh]
	 Singles Energy            =      -0.0000000000000000 [Eh]
	 Same-Spin Energy          =      -0.3165417416221538 [Eh]
	 Opposite-Spin Energy      =      -1.1017021541738465 [Eh]
	 Correlation Energy        =      -1.4182438957960004 [Eh]
	 Total Energy              =    -310.5651351001843068 [Eh]

	 ================> DF-SCS-MP2 Energies <==================
	-----------------------------------------------------------
	 SCS Same-Spin Scale       =       0.3333333333333333 [-]
	 SCS Opposite-Spin Scale   =       1.2000000000000000 [-]
	 SCS Same-Spin Energy      =      -0.1055139138740512 [Eh]
	 SCS Opposite-Spin Energy  =      -1.3220425850086157 [Eh]
	 SCS Correlation Energy    =      -1.4275564988826670 [Eh]
	 SCS Total Energy          =    -310.5744477032709483 [Eh]
	-----------------------------------------------------------

  Dipole Moment: [D]
     X:     1.9308      Y:     0.0255      Z:    -0.6221     Total:     2.0287

*** Psi4 exiting successfully. Buy a developer a beer!
