                               Psi4 1.3.2 release

  ==> Input File <==

--------------------------------------------------------------------------
#psi4
#
memory 32 gb

molecule  {
0 1
  O       -2.3585973    -1.0843854    -0.0440414
  C       -1.5013820     0.0265210    -0.3499700
  C       -0.1728060    -0.1763470     0.3083280
  C        2.3285040    -0.4694590     0.2834420
  C        0.9860590    -0.2881690    -0.3549330
  C       -2.1546593     1.3161648     0.1085823
  C        3.2526380     0.7192940     0.0124360
  H       -1.3570540     0.0791090    -1.4412390
  H       -0.1904860    -0.2488370     1.3972520
  H        2.7976780    -1.3847260    -0.0993500
  H        2.2027970    -0.6058810     1.3632980
  H        0.9746330    -0.2154440    -1.4448770
  H       -2.3344480     1.2448060     1.2091660
  H       -1.6005480     2.1700530    -0.1223020
  H       -3.1779120     1.3727550    -0.3453210
  H        2.8243150     1.6377400     0.4218030
  H        3.3966440     0.8648080    -1.0620310
  H        4.2355510     0.5661250     0.4665360
  H       -1.9269720    -1.8751040    -0.2580250
units angstrom
no_reorient  #important for SAPT in psi4, default
symmetry c1  #important for SAPT in psi4, default
}

set PROPERTIES_ORIGIN ["COM"]
properties('MP2/aug-cc-pvtz', properties = ['dipole'])
--------------------------------------------------------------------------

    Molecular point group: c1
  Charge       = 0
  Multiplicity = 1
  Basis Set: AUG-CC-PVTZ
    Blend: AUG-CC-PVTZ
  Basis Set: (AUG-CC-PVTZ AUX)
    Blend: AUG-CC-PVTZ-JKFIT

    Orbital Energies [Eh]
    ---------------------

    Doubly Occupied:

       1A    -20.548897     2A    -11.282706     3A    -11.234678
       4A    -11.229836     5A    -11.225357     6A    -11.219107
       7A    -11.213568     8A     -1.362136     9A     -1.094738
      10A     -1.037829    11A     -0.975208    12A     -0.873193
      13A     -0.811356    14A     -0.760886    15A     -0.702525
      16A     -0.653026    17A     -0.610294    18A     -0.593080
      19A     -0.578557    20A     -0.554393    21A     -0.537161
      22A     -0.530710    23A     -0.516728    24A     -0.509349
      25A     -0.486664    26A     -0.467562    27A     -0.439056
      28A     -0.355496

  @DF-RHF Final Energy:  -309.14915049689188

   => Energetics <=

    Nuclear Repulsion Energy =            299.4127179551625204
    One-Electron Energy =               -1012.3155444441783857
    Two-Electron Energy =                 403.7536759921239877
    Total Energy =                       -309.1491504968918775
  Basis Set: (AUG-CC-PVTZ AUX)
    Blend: AUG-CC-PVTZ-RI
    Molecular point group: c1

    Geometry (in Angstrom), charge = 0, multiplicity = 1:

       Center              X                  Y                   Z               Mass
    ------------   -----------------  -----------------  -----------------  -----------------
         O           -2.368834318014    -1.082637173835    -0.038803647818    15.994914619570
         C           -1.511619018014     0.028269226165    -0.344732247818    12.000000000000
         C           -0.183043018014    -0.174598773835     0.313565752182    12.000000000000
         C            2.318266981986    -0.467710773835     0.288679752182    12.000000000000
         C            0.975821981986    -0.286420773835    -0.349695247818    12.000000000000
         C           -2.164896318014     1.317913026165     0.113820052182    12.000000000000
         C            3.242400981986     0.721042226165     0.017673752182    12.000000000000
         H           -1.367291018014     0.080857226165    -1.436001247818     1.007825032230
         H           -0.200723018014    -0.247088773835     1.402489752182     1.007825032230
         H            2.787440981986    -1.382977773835    -0.094112247818     1.007825032230
         H            2.192559981986    -0.604132773835     1.368535752182     1.007825032230
         H            0.964395981986    -0.213695773835    -1.439639247818     1.007825032230
         H           -2.344685018014     1.246554226165     1.214403752182     1.007825032230
         H           -1.610785018014     2.171801226165    -0.117064247818     1.007825032230
         H           -3.188149018014     1.374503226165    -0.340083247818     1.007825032230
         H            2.814077981986     1.639488226165     0.427040752182     1.007825032230
         H            3.386406981986     0.866556226165    -1.056793247818     1.007825032230
         H            4.225313981986     0.567873226165     0.471773752182     1.007825032230
         H           -1.937209018014    -1.873355773835    -0.252787247818     1.007825032230

  Basis Set: AUG-CC-PVTZ
    Blend: AUG-CC-PVTZ
  Basis Set: (AUG-CC-PVTZ AUX)
    Blend: AUG-CC-PVTZ-JKFIT
	 Reference Energy          =    -309.1491504968918775 [Eh]
	 Singles Energy            =      -0.0000000000000000 [Eh]
	 Same-Spin Energy          =      -0.3160462700981063 [Eh]
	 Opposite-Spin Energy      =      -1.1008287977426940 [Eh]
	 Correlation Energy        =      -1.4168750678408002 [Eh]
	 Total Energy              =    -310.5660255647326835 [Eh]

	 ================> DF-SCS-MP2 Energies <==================
	-----------------------------------------------------------
	 SCS Same-Spin Scale       =       0.3333333333333333 [-]
	 SCS Opposite-Spin Scale   =       1.2000000000000000 [-]
	 SCS Same-Spin Energy      =      -0.1053487566993687 [Eh]
	 SCS Opposite-Spin Energy  =      -1.3209945572912327 [Eh]
	 SCS Correlation Energy    =      -1.4263433139906014 [Eh]
	 SCS Total Energy          =    -310.5754938108825058 [Eh]
	-----------------------------------------------------------

  Dipole Moment: [D]
     X:     1.8441      Y:     0.0837      Z:    -0.5338     Total:     1.9216

*** Psi4 exiting successfully. Buy a developer a beer!
