                               Psi4 1.3.2 release

  ==> Input File <==

--------------------------------------------------------------------------
#psi4
#
memory 32 gb

molecule  {
0 1
  O       -2.3916800    -1.0522970    -0.0243250
  C       -1.5013820     0.0265210    -0.3499700
  C       -0.1728060    -0.1763470     0.3083280
  C        2.3285040    -0.4694590     0.2834420
  C        0.9627347    -0.2822421    -0.3950360
  C       -2.1959480     1.2879740     0.1259890
  C        3.2526380     0.7192940     0.0124360
  H       -1.3570540     0.0791090    -1.4412390
  H       -0.2282171    -0.2436468     1.3963184
  H        2.7976780    -1.3847260    -0.0993500
  H        2.2027970    -0.6058810     1.3632980
  H        0.9746330    -0.2154440    -1.4448770
  H       -2.3344480     1.2448060     1.2091660
  H       -1.6005480     2.1700530    -0.1223020
  H       -3.1779120     1.3727550    -0.3453210
  H        2.8243150     1.6377400     0.4218030
  H        3.3966440     0.8648080    -1.0620310
  H        4.2355510     0.5661250     0.4665360
  H       -1.9269720    -1.8751040    -0.2580250
units angstrom
no_reorient  #important for SAPT in psi4, default
symmetry c1  #important for SAPT in psi4, default
}

set PROPERTIES_ORIGIN ["COM"]
properties('MP2/aug-cc-pvtz', properties = ['dipole'])
--------------------------------------------------------------------------

    Molecular point group: c1
  Charge       = 0
  Multiplicity = 1
  Basis Set: AUG-CC-PVTZ
    Blend: AUG-CC-PVTZ
  Basis Set: (AUG-CC-PVTZ AUX)
    Blend: AUG-CC-PVTZ-JKFIT

    Orbital Energies [Eh]
    ---------------------

    Doubly Occupied:

       1A    -20.553229     2A    -11.279245     3A    -11.235159
       4A    -11.231687     5A    -11.227310     6A    -11.218595
       7A    -11.210362     8A     -1.352498     9A     -1.091455
      10A     -1.033023    11A     -0.974471    12A     -0.869811
      13A     -0.806228    14A     -0.767721    15A     -0.692002
      16A     -0.655753    17A     -0.605831    18A     -0.594773
      19A     -0.577933    20A     -0.547584    21A     -0.533389
      22A     -0.527055    23A     -0.520730    24A     -0.509350
      25A     -0.490258    26A     -0.466255    27A     -0.437532
      28A     -0.358006

  @DF-RHF Final Energy:  -309.14960417662388

   => Energetics <=

    Nuclear Repulsion Energy =            298.9490735479486148
    One-Electron Energy =               -1011.4628647070821899
    Two-Electron Energy =                 403.3641869825096933
    Total Energy =                       -309.1496041766238818
  Basis Set: (AUG-CC-PVTZ AUX)
    Blend: AUG-CC-PVTZ-RI
    Molecular point group: c1

    Geometry (in Angstrom), charge = 0, multiplicity = 1:

       Center              X                  Y                   Z               Mass
    ------------   -----------------  -----------------  -----------------  -----------------
         O           -2.388503558090    -1.053059696077    -0.019507530835    15.994914619570
         C           -1.498205558090     0.025758303923    -0.345152530835    12.000000000000
         C           -0.169629558090    -0.177109696077     0.313145469165    12.000000000000
         C            2.331680441910    -0.470221696077     0.288259469165    12.000000000000
         C            0.965911141910    -0.283004796077    -0.390218530835    12.000000000000
         C           -2.192771558090     1.287211303923     0.130806469165    12.000000000000
         C            3.255814441910     0.718531303923     0.017253469165    12.000000000000
         H           -1.353877558090     0.078346303923    -1.436421530835     1.007825032230
         H           -0.225040658090    -0.244409496077     1.401135869165     1.007825032230
         H            2.800854441910    -1.385488696077    -0.094532530835     1.007825032230
         H            2.205973441910    -0.606643696077     1.368115469165     1.007825032230
         H            0.977809441910    -0.216206696077    -1.440059530835     1.007825032230
         H           -2.331271558090     1.244043303923     1.213983469165     1.007825032230
         H           -1.597371558090     2.169290303923    -0.117484530835     1.007825032230
         H           -3.174735558090     1.371992303923    -0.340503530835     1.007825032230
         H            2.827491441910     1.636977303923     0.426620469165     1.007825032230
         H            3.399820441910     0.864045303923    -1.057213530835     1.007825032230
         H            4.238727441910     0.565362303923     0.471353469165     1.007825032230
         H           -1.923795558090    -1.875866696077    -0.253207530835     1.007825032230

  Basis Set: AUG-CC-PVTZ
    Blend: AUG-CC-PVTZ
  Basis Set: (AUG-CC-PVTZ AUX)
    Blend: AUG-CC-PVTZ-JKFIT
	 Reference Energy          =    -309.1496041766238818 [Eh]
	 Singles Energy            =      -0.0000000000000000 [Eh]
	 Same-Spin Energy          =      -0.3164047400740309 [Eh]
	 Opposite-Spin Energy      =      -1.1022347168576703 [Eh]
	 Correlation Energy        =      -1.4186394569317011 [Eh]
	 Total Energy              =    -310.5682436335555963 [Eh]

	 ================> DF-SCS-MP2 Energies <==================
	-----------------------------------------------------------
	 SCS Same-Spin Scale       =       0.3333333333333333 [-]
	 SCS Opposite-Spin Scale   =       1.2000000000000000 [-]
	 SCS Same-Spin Energy      =      -0.1054682466913436 [Eh]
	 SCS Opposite-Spin Energy  =      -1.3226816602292042 [Eh]
	 SCS Correlation Energy    =      -1.4281499069205479 [Eh]
	 SCS Total Energy          =    -310.5777540835444483 [Eh]
	-----------------------------------------------------------

  Dipole Moment: [D]
     X:     1.8764      Y:     0.0065      Z:    -0.5681     Total:     1.9605

*** Psi4 exiting successfully. Buy a developer a beer!
