                               Psi4 1.3.2 release

  ==> Input File <==

--------------------------------------------------------------------------
#psi4
#
memory 32 gb

molecule  {
0 1
  O       -2.3916800    -1.0522970    -0.0243250
  C       -1.5361065     0.0588799    -0.3338463
  C       -0.1728060    -0.1763470     0.3083280
  C        2.3285040    -0.4694590     0.2834420
  C        0.9860590    -0.2881690    -0.3549330
  C       -2.1959480     1.2879740     0.1259890
  C        3.2526380     0.7192940     0.0124360
  H       -1.3570540     0.0791090    -1.4412390
  H       -0.1904860    -0.2488370     1.3972520
  H        2.7976780    -1.3847260    -0.0993500
  H        2.2027970    -0.6058810     1.3632980
  H        0.9746330    -0.2154440    -1.4448770
  H       -2.3344480     1.2448060     1.2091660
  H       -1.6005480     2.1700530    -0.1223020
  H       -3.1779120     1.3727550    -0.3453210
  H        2.8243150     1.6377400     0.4218030
  H        3.3966440     0.8648080    -1.0620310
  H        4.2355510     0.5661250     0.4665360
  H       -1.9540378    -1.8926991    -0.2474262
units angstrom
no_reorient  #important for SAPT in psi4, default
symmetry c1  #important for SAPT in psi4, default
}

set PROPERTIES_ORIGIN ["COM"]
properties('MP2/aug-cc-pvtz', properties = ['dipole'])
--------------------------------------------------------------------------

    Molecular point group: c1
  Charge       = 0
  Multiplicity = 1
  Basis Set: AUG-CC-PVTZ
    Blend: AUG-CC-PVTZ
  Basis Set: (AUG-CC-PVTZ AUX)
    Blend: AUG-CC-PVTZ-JKFIT

    Orbital Energies [Eh]
    ---------------------

    Doubly Occupied:

       1A    -20.551780     2A    -11.283512     3A    -11.234844
       4A    -11.229914     5A    -11.226567     6A    -11.219067
       7A    -11.210373     8A     -1.350600     9A     -1.092554
      10A     -1.039216    11A     -0.979090    12A     -0.870855
      13A     -0.806434    14A     -0.758380    15A     -0.694675
      16A     -0.652234    17A     -0.610622    18A     -0.593850
      19A     -0.579763    20A     -0.539528    21A     -0.535531
      22A     -0.534289    23A     -0.520417    24A     -0.510565
      25A     -0.486788    26A     -0.471876    27A     -0.432038
      28A     -0.356270

  @DF-RHF Final Energy:  -309.14925768229762

   => Energetics <=

    Nuclear Repulsion Energy =            299.0399362138257402
    One-Electron Energy =               -1011.6351228962304276
    Two-Electron Energy =                 403.4459290001070713
    Total Energy =                       -309.1492576822976162
  Basis Set: (AUG-CC-PVTZ AUX)
    Blend: AUG-CC-PVTZ-RI
    Molecular point group: c1

    Geometry (in Angstrom), charge = 0, multiplicity = 1:

       Center              X                  Y                   Z               Mass
    ------------   -----------------  -----------------  -----------------  -----------------
         O           -2.387244140205    -1.055999289320    -0.026364870902    15.994914619570
         C           -1.531670640205     0.055177610680    -0.335886170902    12.000000000000
         C           -0.168370140205    -0.180049289320     0.306288129098    12.000000000000
         C            2.332939859795    -0.473161289320     0.281402129098    12.000000000000
         C            0.990494859795    -0.291871289320    -0.356972870902    12.000000000000
         C           -2.191512140205     1.284271710680     0.123949129098    12.000000000000
         C            3.257073859795     0.715591710680     0.010396129098    12.000000000000
         H           -1.352618140205     0.075406710680    -1.443278870902     1.007825032230
         H           -0.186050140205    -0.252539289320     1.395212129098     1.007825032230
         H            2.802113859795    -1.388428289320    -0.101389870902     1.007825032230
         H            2.207232859795    -0.609583289320     1.361258129098     1.007825032230
         H            0.979068859795    -0.219146289320    -1.446916870902     1.007825032230
         H           -2.330012140205     1.241103710680     1.207126129098     1.007825032230
         H           -1.596112140205     2.166350710680    -0.124341870902     1.007825032230
         H           -3.173476140205     1.369052710680    -0.347360870902     1.007825032230
         H            2.828750859795     1.634037710680     0.419763129098     1.007825032230
         H            3.401079859795     0.861105710680    -1.064070870902     1.007825032230
         H            4.239986859795     0.562422710680     0.464496129098     1.007825032230
         H           -1.949601940205    -1.896401389320    -0.249466070902     1.007825032230

  Basis Set: AUG-CC-PVTZ
    Blend: AUG-CC-PVTZ
  Basis Set: (AUG-CC-PVTZ AUX)
    Blend: AUG-CC-PVTZ-JKFIT
	 Reference Energy          =    -309.1492576822976162 [Eh]
	 Singles Energy            =      -0.0000000000000000 [Eh]
	 Same-Spin Energy          =      -0.3167139482638869 [Eh]
	 Opposite-Spin Energy      =      -1.1023304912018910 [Eh]
	 Correlation Energy        =      -1.4190444394657780 [Eh]
	 Total Energy              =    -310.5683021217633950 [Eh]

	 ================> DF-SCS-MP2 Energies <==================
	-----------------------------------------------------------
	 SCS Same-Spin Scale       =       0.3333333333333333 [-]
	 SCS Opposite-Spin Scale   =       1.2000000000000000 [-]
	 SCS Same-Spin Energy      =      -0.1055713160879623 [Eh]
	 SCS Opposite-Spin Energy  =      -1.3227965894422691 [Eh]
	 SCS Correlation Energy    =      -1.4283679055302314 [Eh]
	 SCS Total Energy          =    -310.5776255878278675 [Eh]
	-----------------------------------------------------------

  Dipole Moment: [D]
     X:     1.8052      Y:     0.0546      Z:    -0.5235     Total:     1.8804

*** Psi4 exiting successfully. Buy a developer a beer!
