                               Psi4 1.3.2 release

  ==> Input File <==

--------------------------------------------------------------------------
#psi4
#
memory 32 gb

molecule  {
0 1
  O       -2.3552236    -1.0729005     0.0032303
  C       -1.5013820     0.0265210    -0.3499700
  C       -0.1909072    -0.2207202     0.3291128
  C        2.3285040    -0.4694590     0.2834420
  C        0.9860590    -0.2881690    -0.3549330
  C       -2.1959480     1.2879740     0.1259890
  C        3.2526380     0.7192940     0.0124360
  H       -1.3570540     0.0791090    -1.4412390
  H       -0.1904860    -0.2488370     1.3972520
  H        2.7976780    -1.3847260    -0.0993500
  H        2.2027970    -0.6058810     1.3632980
  H        0.9746330    -0.2154440    -1.4448770
  H       -2.3344480     1.2448060     1.2091660
  H       -1.6005480     2.1700530    -0.1223020
  H       -3.1779120     1.3727550    -0.3453210
  H        2.8243150     1.6377400     0.4218030
  H        3.3966440     0.8648080    -1.0620310
  H        4.2355510     0.5661250     0.4665360
  H       -1.9269720    -1.8751040    -0.2580250
units angstrom
no_reorient  #important for SAPT in psi4, default
symmetry c1  #important for SAPT in psi4, default
}

set PROPERTIES_ORIGIN ["COM"]
properties('MP2/aug-cc-pvtz', properties = ['dipole'])
--------------------------------------------------------------------------

    Molecular point group: c1
  Charge       = 0
  Multiplicity = 1
  Basis Set: AUG-CC-PVTZ
    Blend: AUG-CC-PVTZ
  Basis Set: (AUG-CC-PVTZ AUX)
    Blend: AUG-CC-PVTZ-JKFIT

    Orbital Energies [Eh]
    ---------------------

    Doubly Occupied:

       1A    -20.548355     2A    -11.281905     3A    -11.238027
       4A    -11.229610     5A    -11.226361     6A    -11.219081
       7A    -11.212418     8A     -1.357559     9A     -1.091005
      10A     -1.035427    11A     -0.972823    12A     -0.873738
      13A     -0.807311    14A     -0.763904    15A     -0.697744
      16A     -0.652567    17A     -0.609151    18A     -0.596473
      19A     -0.578291    20A     -0.541086    21A     -0.535345
      22A     -0.531636    23A     -0.522256    24A     -0.508860
      25A     -0.486885    26A     -0.470789    27A     -0.441323
      28A     -0.349929

  @DF-RHF Final Energy:  -309.14988171798916

   => Energetics <=

    Nuclear Repulsion Energy =            299.2414913196741395
    One-Electron Energy =               -1012.0230255097394547
    Two-Electron Energy =                 403.6316524720760981
    Total Energy =                       -309.1498817179891603
  Basis Set: (AUG-CC-PVTZ AUX)
    Blend: AUG-CC-PVTZ-RI
    Molecular point group: c1

    Geometry (in Angstrom), charge = 0, multiplicity = 1:

       Center              X                  Y                   Z               Mass
    ------------   -----------------  -----------------  -----------------  -----------------
         O           -2.358879295651    -1.064287690564    -0.003665219706    15.994914619570
         C           -1.505037695651     0.035133809436    -0.356865519706    12.000000000000
         C           -0.194562895651    -0.212107390564     0.322217280294    12.000000000000
         C            2.324848304349    -0.460846190564     0.276546480294    12.000000000000
         C            0.982403304349    -0.279556190564    -0.361828519706    12.000000000000
         C           -2.199603695651     1.296586809436     0.119093480294    12.000000000000
         C            3.248982304349     0.727906809436     0.005540480294    12.000000000000
         H           -1.360709695651     0.087721809436    -1.448134519706     1.007825032230
         H           -0.194141695651    -0.240224190564     1.390356480294     1.007825032230
         H            2.794022304349    -1.376113190564    -0.106245519706     1.007825032230
         H            2.199141304349    -0.597268190564     1.356402480294     1.007825032230
         H            0.970977304349    -0.206831190564    -1.451772519706     1.007825032230
         H           -2.338103695651     1.253418809436     1.202270480294     1.007825032230
         H           -1.604203695651     2.178665809436    -0.129197519706     1.007825032230
         H           -3.181567695651     1.381367809436    -0.352216519706     1.007825032230
         H            2.820659304349     1.646352809436     0.414907480294     1.007825032230
         H            3.392988304349     0.873420809436    -1.068926519706     1.007825032230
         H            4.231895304349     0.574737809436     0.459640480294     1.007825032230
         H           -1.930627695651    -1.866491190564    -0.264920519706     1.007825032230

  Basis Set: AUG-CC-PVTZ
    Blend: AUG-CC-PVTZ
  Basis Set: (AUG-CC-PVTZ AUX)
    Blend: AUG-CC-PVTZ-JKFIT
	 Reference Energy          =    -309.1498817179891603 [Eh]
	 Singles Energy            =      -0.0000000000000000 [Eh]
	 Same-Spin Energy          =      -0.3165396424267190 [Eh]
	 Opposite-Spin Energy      =      -1.1020528573567634 [Eh]
	 Correlation Energy        =      -1.4185924997834825 [Eh]
	 Total Energy              =    -310.5684742177726321 [Eh]

	 ================> DF-SCS-MP2 Energies <==================
	-----------------------------------------------------------
	 SCS Same-Spin Scale       =       0.3333333333333333 [-]
	 SCS Opposite-Spin Scale   =       1.2000000000000000 [-]
	 SCS Same-Spin Energy      =      -0.1055132141422397 [Eh]
	 SCS Opposite-Spin Energy  =      -1.3224634288281161 [Eh]
	 SCS Correlation Energy    =      -1.4279766429703558 [Eh]
	 SCS Total Energy          =    -310.5778583609595103 [Eh]
	-----------------------------------------------------------

  Dipole Moment: [D]
     X:     1.8101      Y:     0.1131      Z:    -0.6126     Total:     1.9143

*** Psi4 exiting successfully. Buy a developer a beer!
