                               Psi4 1.3.2 release

  ==> Input File <==

--------------------------------------------------------------------------
#psi4
#
memory 32 gb

molecule  {
0 1
  O       -2.3916800    -1.0522970    -0.0243250
  C       -1.5013820     0.0265210    -0.3499700
  C       -0.1728060    -0.1763470     0.3083280
  C        2.3285040    -0.4694590     0.2834420
  C        0.9899202    -0.2766033    -0.3596345
  C       -2.1959480     1.2879740     0.1259890
  C        3.2429408     0.7251462     0.0053677
  H       -1.3570540     0.0791090    -1.4412390
  H       -0.1904860    -0.2488370     1.3972520
  H        2.7976780    -1.3847260    -0.0993500
  H        2.2027970    -0.6058810     1.3632980
  H        0.9746330    -0.2154440    -1.4448770
  H       -2.3344480     1.2448060     1.2091660
  H       -1.6005480     2.1700530    -0.1223020
  H       -3.1779120     1.3727550    -0.3453210
  H        2.8243150     1.6377400     0.4218030
  H        3.3966440     0.8648080    -1.0620310
  H        4.2355510     0.5661250     0.4665360
  H       -1.9269720    -1.8751040    -0.2580250
units angstrom
no_reorient  #important for SAPT in psi4, default
symmetry c1  #important for SAPT in psi4, default
}

set PROPERTIES_ORIGIN ["COM"]
properties('MP2/aug-cc-pvtz', properties = ['dipole'])
--------------------------------------------------------------------------

    Molecular point group: c1
  Charge       = 0
  Multiplicity = 1
  Basis Set: AUG-CC-PVTZ
    Blend: AUG-CC-PVTZ
  Basis Set: (AUG-CC-PVTZ AUX)
    Blend: AUG-CC-PVTZ-JKFIT

    Orbital Energies [Eh]
    ---------------------

    Doubly Occupied:

       1A    -20.553582     2A    -11.280983     3A    -11.236237
       4A    -11.230691     5A    -11.226707     6A    -11.219412
       7A    -11.210576     8A     -1.352792     9A     -1.094278
      10A     -1.034977    11A     -0.973883    12A     -0.872963
      13A     -0.807268    14A     -0.761695    15A     -0.692806
      16A     -0.654373    17A     -0.610105    18A     -0.595577
      19A     -0.578221    20A     -0.539029    21A     -0.534239
      22A     -0.527549    23A     -0.521960    24A     -0.510770
      25A     -0.489420    26A     -0.470834    27A     -0.440455
      28A     -0.355316

  @DF-RHF Final Energy:  -309.15132594449557

   => Energetics <=

    Nuclear Repulsion Energy =            299.1703272780713405
    One-Electron Energy =               -1011.8899118325645077
    Two-Electron Energy =                 403.5682586099975993
    Total Energy =                       -309.1513259444955679
  Basis Set: (AUG-CC-PVTZ AUX)
    Blend: AUG-CC-PVTZ-RI
    Molecular point group: c1

    Geometry (in Angstrom), charge = 0, multiplicity = 1:

       Center              X                  Y                   Z               Mass
    ------------   -----------------  -----------------  -----------------  -----------------
         O           -2.390980217915    -1.054385130757    -0.022913898524    15.994914619570
         C           -1.500682217915     0.024432869243    -0.348558898524    12.000000000000
         C           -0.172106217915    -0.178435130757     0.309739101476    12.000000000000
         C            2.329203782085    -0.471547130757     0.284853101476    12.000000000000
         C            0.990619982085    -0.278691430757    -0.358223398524    12.000000000000
         C           -2.195248217915     1.285885869243     0.127400101476    12.000000000000
         C            3.243640582085     0.723058069243     0.006778801476    12.000000000000
         H           -1.356354217915     0.077020869243    -1.439827898524     1.007825032230
         H           -0.189786217915    -0.250925130757     1.398663101476     1.007825032230
         H            2.798377782085    -1.386814130757    -0.097938898524     1.007825032230
         H            2.203496782085    -0.607969130757     1.364709101476     1.007825032230
         H            0.975332782085    -0.217532130757    -1.443465898524     1.007825032230
         H           -2.333748217915     1.242717869243     1.210577101476     1.007825032230
         H           -1.599848217915     2.167964869243    -0.120890898524     1.007825032230
         H           -3.177212217915     1.370666869243    -0.343909898524     1.007825032230
         H            2.825014782085     1.635651869243     0.423214101476     1.007825032230
         H            3.397343782085     0.862719869243    -1.060619898524     1.007825032230
         H            4.236250782085     0.564036869243     0.467947101476     1.007825032230
         H           -1.926272217915    -1.877192130757    -0.256613898524     1.007825032230

  Basis Set: AUG-CC-PVTZ
    Blend: AUG-CC-PVTZ
  Basis Set: (AUG-CC-PVTZ AUX)
    Blend: AUG-CC-PVTZ-JKFIT
	 Reference Energy          =    -309.1513259444955679 [Eh]
	 Singles Energy            =      -0.0000000000000000 [Eh]
	 Same-Spin Energy          =      -0.3167777864699440 [Eh]
	 Opposite-Spin Energy      =      -1.1025810902735680 [Eh]
	 Correlation Energy        =      -1.4193588767435119 [Eh]
	 Total Energy              =    -310.5706848212390696 [Eh]

	 ================> DF-SCS-MP2 Energies <==================
	-----------------------------------------------------------
	 SCS Same-Spin Scale       =       0.3333333333333333 [-]
	 SCS Opposite-Spin Scale   =       1.2000000000000000 [-]
	 SCS Same-Spin Energy      =      -0.1055925954899813 [Eh]
	 SCS Opposite-Spin Energy  =      -1.3230973083282815 [Eh]
	 SCS Correlation Energy    =      -1.4286899038182628 [Eh]
	 SCS Total Energy          =    -310.5800158483138489 [Eh]
	-----------------------------------------------------------

  Dipole Moment: [D]
     X:     1.9138      Y:    -0.0052      Z:    -0.5605     Total:     1.9942

*** Psi4 exiting successfully. Buy a developer a beer!
