                               Psi4 1.4a3.dev225

  ==> Input File <==

--------------------------------------------------------------------------
#psi4
#
memory 32 gb

molecule  {
0 1
  O        2.4733480    -1.0180220    -0.0592030
  C        1.5612870     0.0272190     0.3186860
  C        0.2241640    -0.1896060    -0.3216700
  C       -2.2699720    -0.5538550    -0.2568310
  C       -0.9183080    -0.3574540     0.3612590
  C        2.2155680     1.3228410    -0.1266610
  C       -3.2245640     0.5955150     0.0801580
  H        1.4362950     0.0398890     1.4137890
  H        0.2206637    -0.2244332    -1.4628685
  H       -2.7032570    -1.4976940     0.0989920
  H       -2.1635450    -0.6441890    -1.3439560
  H       -0.8861850    -0.3229140     1.4529890
  H        2.3348110     1.3198720    -1.2134080
  H        1.6025990     2.1805020     0.1626330
  H        3.2041590     1.4168830     0.3297970
  H       -2.8327200     1.5423190    -0.3012060
  H       -3.3500700     0.6943310     1.1626160
  H       -4.2121190     0.4296020    -0.3601990
  H        2.0333780    -1.8594800     0.1548220
units angstrom
no_reorient  #important for SAPT in psi4, default
symmetry c1  #important for SAPT in psi4, default
}

set PROPERTIES_ORIGIN ["COM"]
properties('MP2/aug-cc-pvtz', properties = ['dipole'])
--------------------------------------------------------------------------

    Molecular point group: c1
  Charge       = 0
  Multiplicity = 1
  Basis Set: AUG-CC-PVTZ
    Blend: AUG-CC-PVTZ
  Basis Set: (AUG-CC-PVTZ AUX)
    Blend: AUG-CC-PVTZ-JKFIT

    Orbital Energies [Eh]
    ---------------------

    Doubly Occupied:

       1A    -20.553747     2A    -11.282399     3A    -11.237327
       4A    -11.232603     5A    -11.231115     6A    -11.219997
       7A    -11.211177     8A     -1.352355     9A     -1.093287
      10A     -1.034256    11A     -0.973964    12A     -0.872811
      13A     -0.807469    14A     -0.755121    15A     -0.692033
      16A     -0.653861    17A     -0.610206    18A     -0.591503
      19A     -0.578106    20A     -0.536304    21A     -0.535171
      22A     -0.527796    23A     -0.520614    24A     -0.509782
      25A     -0.487391    26A     -0.471446    27A     -0.440520
      28A     -0.356926

  @DF-RHF Final Energy:  -309.14934325725426

   => Energetics <=

    Nuclear Repulsion Energy =            298.6024625177674920
    One-Electron Energy =               -1010.7650366160592057
    Two-Electron Energy =                 403.0132308410375117
    Total Energy =                       -309.1493432572542588
  Basis Set: (AUG-CC-PVTZ AUX)
    Blend: AUG-CC-PVTZ-RI
    Molecular point group: c1

    Geometry (in Angstrom), charge = 0, multiplicity = 1:

       Center              X                  Y                   Z               Mass
    ------------   -----------------  -----------------  -----------------  -----------------
         O            2.420779668676    -0.987563974900    -0.057275523156    15.994914619570
         C            1.508718668676     0.057677025100     0.320613476844    12.000000000000
         C            0.171595668676    -0.159147974900    -0.319742523156    12.000000000000
         C           -2.322540331324    -0.523396974900    -0.254903523156    12.000000000000
         C           -0.970876331324    -0.326995974900     0.363186476844    12.000000000000
         C            2.162999668676     1.353299025100    -0.124733523156    12.000000000000
         C           -3.277132331324     0.625973025100     0.082085476844    12.000000000000
         H            1.383726668676     0.070347025100     1.415716476844     1.007825032230
         H            0.168095368676    -0.193975174900    -1.460941023156     1.007825032230
         H           -2.755825331324    -1.467235974900     0.100919476844     1.007825032230
         H           -2.216113331324    -0.613730974900    -1.342028523156     1.007825032230
         H           -0.938753331324    -0.292455974900     1.454916476844     1.007825032230
         H            2.282242668676     1.350330025100    -1.211480523156     1.007825032230
         H            1.550030668676     2.210960025100     0.164560476844     1.007825032230
         H            3.151590668676     1.447341025100     0.331724476844     1.007825032230
         H           -2.885288331324     1.572777025100    -0.299278523156     1.007825032230
         H           -3.402638331324     0.724789025100     1.164543476844     1.007825032230
         H           -4.264687331324     0.460060025100    -0.358271523156     1.007825032230
         H            1.980809668676    -1.829021974900     0.156749476844     1.007825032230

  Basis Set: AUG-CC-PVTZ
    Blend: AUG-CC-PVTZ
  Basis Set: (AUG-CC-PVTZ AUX)
    Blend: AUG-CC-PVTZ-JKFIT
	 Reference Energy          =    -309.1493432572542588 [Eh]
	 Singles Energy            =      -0.0000000000000000 [Eh]
	 Same-Spin Energy          =      -0.3167721655464211 [Eh]
	 Opposite-Spin Energy      =      -1.1029076445847377 [Eh]
	 Correlation Energy        =      -1.4196798101311587 [Eh]
	 Total Energy              =    -310.5690230673854444 [Eh]

	 ================> DF-SCS-MP2 Energies <==================
	-----------------------------------------------------------
	 SCS Same-Spin Scale       =       0.3333333333333333 [-]
	 SCS Opposite-Spin Scale   =       1.2000000000000000 [-]
	 SCS Same-Spin Energy      =      -0.1055907218488070 [Eh]
	 SCS Opposite-Spin Energy  =      -1.3234891735016852 [Eh]
	 SCS Correlation Energy    =      -1.4290798953504922 [Eh]
	 SCS Total Energy          =    -310.5784231526047279 [Eh]
	-----------------------------------------------------------

  Dipole Moment: [D]
     X:    -1.9030      Y:    -0.0561      Z:     0.6105     Total:     1.9994

*** Psi4 exiting successfully. Buy a developer a beer!
