                               Psi4 1.4a3.dev225

  ==> Input File <==

--------------------------------------------------------------------------
#psi4
#
memory 32 gb

molecule  {
0 1
  O        2.4733480    -1.0180220    -0.0592030
  C        1.5612870     0.0272190     0.3186860
  C        0.2241640    -0.1896060    -0.3216700
  C       -2.2699720    -0.5538550    -0.2568310
  C       -0.9183080    -0.3574540     0.3612590
  C        2.2155680     1.3228410    -0.1266610
  C       -3.2245640     0.5955150     0.0801580
  H        1.4362950     0.0398890     1.4137890
  H        0.2208170    -0.2229080    -1.4128920
  H       -2.7032570    -1.4976940     0.0989920
  H       -2.1635450    -0.6441890    -1.3439560
  H       -0.8861850    -0.3229140     1.4529890
  H        2.3348110     1.3198720    -1.2134080
  H        1.6025990     2.1805020     0.1626330
  H        3.2041590     1.4168830     0.3297970
  H       -2.8327200     1.5423190    -0.3012060
  H       -3.3500700     0.6943310     1.1626160
  H       -4.2121190     0.4296020    -0.3601990
  H        2.0243378    -1.8767697     0.1592196
units angstrom
no_reorient  #important for SAPT in psi4, default
symmetry c1  #important for SAPT in psi4, default
}

set PROPERTIES_ORIGIN ["COM"]
properties('MP2/aug-cc-pvtz', properties = ['dipole'])
--------------------------------------------------------------------------

    Molecular point group: c1
  Charge       = 0
  Multiplicity = 1
  Basis Set: AUG-CC-PVTZ
    Blend: AUG-CC-PVTZ
  Basis Set: (AUG-CC-PVTZ AUX)
    Blend: AUG-CC-PVTZ-JKFIT

    Orbital Energies [Eh]
    ---------------------

    Doubly Occupied:

       1A    -20.555436     2A    -11.281510     3A    -11.236657
       4A    -11.231060     5A    -11.226794     6A    -11.219956
       7A    -11.211092     8A     -1.348096     9A     -1.093623
      10A     -1.033781    11A     -0.974060    12A     -0.873041
      13A     -0.806599    14A     -0.760324    15A     -0.688705
      16A     -0.653494    17A     -0.610069    18A     -0.594354
      19A     -0.577420    20A     -0.538681    21A     -0.535910
      22A     -0.527240    23A     -0.521318    24A     -0.509849
      25A     -0.487436    26A     -0.470604    27A     -0.440378
      28A     -0.356421

  @DF-RHF Final Energy:  -309.15007483203141

   => Energetics <=

    Nuclear Repulsion Energy =            298.7223255202068231
    One-Electron Energy =               -1011.0169829598778506
    Two-Electron Energy =                 403.1445826076396202
    Total Energy =                       -309.1500748320314074
  Basis Set: (AUG-CC-PVTZ AUX)
    Blend: AUG-CC-PVTZ-RI
    Molecular point group: c1

    Geometry (in Angstrom), charge = 0, multiplicity = 1:

       Center              X                  Y                   Z               Mass
    ------------   -----------------  -----------------  -----------------  -----------------
         O            2.420869153603    -0.987405237305    -0.057823032676    15.994914619570
         C            1.508808153603     0.057835762695     0.320065967324    12.000000000000
         C            0.171685153603    -0.158989237305    -0.320290032676    12.000000000000
         C           -2.322450846397    -0.523238237305    -0.255451032676    12.000000000000
         C           -0.970786846397    -0.326837237305     0.362638967324    12.000000000000
         C            2.163089153603     1.353457762695    -0.125281032676    12.000000000000
         C           -3.277042846397     0.626131762695     0.081537967324    12.000000000000
         H            1.383816153603     0.070505762695     1.415168967324     1.007825032230
         H            0.168338153603    -0.192291237305    -1.411512032676     1.007825032230
         H           -2.755735846397    -1.467077237305     0.100371967324     1.007825032230
         H           -2.216023846397    -0.613572237305    -1.342576032676     1.007825032230
         H           -0.938663846397    -0.292297237305     1.454368967324     1.007825032230
         H            2.282332153603     1.350488762695    -1.212028032676     1.007825032230
         H            1.550120153603     2.211118762695     0.164012967324     1.007825032230
         H            3.151680153603     1.447499762695     0.331176967324     1.007825032230
         H           -2.885198846397     1.572935762695    -0.299826032676     1.007825032230
         H           -3.402548846397     0.724947762695     1.163995967324     1.007825032230
         H           -4.264597846397     0.460218762695    -0.358819032676     1.007825032230
         H            1.971858953603    -1.846152937305     0.160599567324     1.007825032230

  Basis Set: AUG-CC-PVTZ
    Blend: AUG-CC-PVTZ
  Basis Set: (AUG-CC-PVTZ AUX)
    Blend: AUG-CC-PVTZ-JKFIT
	 Reference Energy          =    -309.1500748320314074 [Eh]
	 Singles Energy            =      -0.0000000000000000 [Eh]
	 Same-Spin Energy          =      -0.3168996561954741 [Eh]
	 Opposite-Spin Energy      =      -1.1031435667285607 [Eh]
	 Correlation Energy        =      -1.4200432229240347 [Eh]
	 Total Energy              =    -310.5701180549554579 [Eh]

	 ================> DF-SCS-MP2 Energies <==================
	-----------------------------------------------------------
	 SCS Same-Spin Scale       =       0.3333333333333333 [-]
	 SCS Opposite-Spin Scale   =       1.2000000000000000 [-]
	 SCS Same-Spin Energy      =      -0.1056332187318247 [Eh]
	 SCS Opposite-Spin Energy  =      -1.3237722800742728 [Eh]
	 SCS Correlation Energy    =      -1.4294054988060976 [Eh]
	 SCS Total Energy          =    -310.5794803308374981 [Eh]
	-----------------------------------------------------------

  Dipole Moment: [D]
     X:    -1.9093      Y:    -0.0698      Z:     0.5906     Total:     1.9998

*** Psi4 exiting successfully. Buy a developer a beer!
