                               Psi4 1.4a3.dev225

  ==> Input File <==

--------------------------------------------------------------------------
#psi4
#
memory 32 gb

molecule  {
0 1
  O        2.4733480    -1.0180220    -0.0592030
  C        1.5612870     0.0272190     0.3186860
  C        0.2241640    -0.1896060    -0.3216700
  C       -2.2699720    -0.5538550    -0.2568310
  C       -0.9183080    -0.3574540     0.3612590
  C        2.2155680     1.3228410    -0.1266610
  C       -3.2245640     0.5955150     0.0801580
  H        1.4362950     0.0398890     1.4137890
  H        0.2208170    -0.2229080    -1.4128920
  H       -2.7032570    -1.4976940     0.0989920
  H       -2.1635450    -0.6441890    -1.3439560
  H       -0.8861850    -0.3229140     1.4529890
  H        2.3348110     1.3198720    -1.2134080
  H        1.6025990     2.1805020     0.1626330
  H        3.2041590     1.4168830     0.3297970
  H       -2.8327200     1.5423190    -0.3012060
  H       -3.3500700     0.6943310     1.1626160
  H       -4.2121190     0.4296020    -0.3601990
  H        2.0424182    -1.8421903     0.1504244
units angstrom
no_reorient  #important for SAPT in psi4, default
symmetry c1  #important for SAPT in psi4, default
}

set PROPERTIES_ORIGIN ["COM"]
properties('MP2/aug-cc-pvtz', properties = ['dipole'])
--------------------------------------------------------------------------

    Molecular point group: c1
  Charge       = 0
  Multiplicity = 1
  Basis Set: AUG-CC-PVTZ
    Blend: AUG-CC-PVTZ
  Basis Set: (AUG-CC-PVTZ AUX)
    Blend: AUG-CC-PVTZ-JKFIT

    Orbital Energies [Eh]
    ---------------------

    Doubly Occupied:

       1A    -20.551778     2A    -11.281890     3A    -11.236882
       4A    -11.231157     5A    -11.226974     6A    -11.220034
       7A    -11.211164     8A     -1.356700     9A     -1.094174
      10A     -1.035130    11A     -0.974610    12A     -0.873299
      13A     -0.808145    14A     -0.760850    15A     -0.696122
      16A     -0.653830    17A     -0.610653    18A     -0.594574
      19A     -0.578467    20A     -0.538903    21A     -0.536054
      22A     -0.528306    23A     -0.521773    24A     -0.510704
      25A     -0.487571    26A     -0.471804    27A     -0.441142
      28A     -0.356621

  @DF-RHF Final Energy:  -309.15259729231963

   => Energetics <=

    Nuclear Repulsion Energy =            298.9466885161532446
    One-Electron Energy =               -1011.4199518132910498
    Two-Electron Energy =                 403.3206660048181789
    Total Energy =                       -309.1525972923196264
  Basis Set: (AUG-CC-PVTZ AUX)
    Blend: AUG-CC-PVTZ-RI
    Molecular point group: c1

    Geometry (in Angstrom), charge = 0, multiplicity = 1:

       Center              X                  Y                   Z               Mass
    ------------   -----------------  -----------------  -----------------  -----------------
         O            2.420687096500    -0.987753427909    -0.057734471105    15.994914619570
         C            1.508626096500     0.057487572091     0.320154528895    12.000000000000
         C            0.171503096500    -0.159337427909    -0.320201471105    12.000000000000
         C           -2.322632903500    -0.523586427909    -0.255362471105    12.000000000000
         C           -0.970968903500    -0.327185427909     0.362727528895    12.000000000000
         C            2.162907096500     1.353109572091    -0.125192471105    12.000000000000
         C           -3.277224903500     0.625783572091     0.081626528895    12.000000000000
         H            1.383634096500     0.070157572091     1.415257528895     1.007825032230
         H            0.168156096500    -0.192639427909    -1.411423471105     1.007825032230
         H           -2.755917903500    -1.467425427909     0.100460528895     1.007825032230
         H           -2.216205903500    -0.613920427909    -1.342487471105     1.007825032230
         H           -0.938845903500    -0.292645427909     1.454457528895     1.007825032230
         H            2.282150096500     1.350140572091    -1.211939471105     1.007825032230
         H            1.549938096500     2.210770572091     0.164101528895     1.007825032230
         H            3.151498096500     1.447151572091     0.331265528895     1.007825032230
         H           -2.885380903500     1.572587572091    -0.299737471105     1.007825032230
         H           -3.402730903500     0.724599572091     1.164084528895     1.007825032230
         H           -4.264779903500     0.459870572091    -0.358730471105     1.007825032230
         H            1.989757296500    -1.811921727909     0.151892928895     1.007825032230

  Basis Set: AUG-CC-PVTZ
    Blend: AUG-CC-PVTZ
  Basis Set: (AUG-CC-PVTZ AUX)
    Blend: AUG-CC-PVTZ-JKFIT
	 Reference Energy          =    -309.1525972923196264 [Eh]
	 Singles Energy            =      -0.0000000000000000 [Eh]
	 Same-Spin Energy          =      -0.3164140088426298 [Eh]
	 Opposite-Spin Energy      =      -1.1018760939936336 [Eh]
	 Correlation Energy        =      -1.4182901028362633 [Eh]
	 Total Energy              =    -310.5708873951558644 [Eh]

	 ================> DF-SCS-MP2 Energies <==================
	-----------------------------------------------------------
	 SCS Same-Spin Scale       =       0.3333333333333333 [-]
	 SCS Opposite-Spin Scale   =       1.2000000000000000 [-]
	 SCS Same-Spin Energy      =      -0.1054713362808766 [Eh]
	 SCS Opposite-Spin Energy  =      -1.3222513127923603 [Eh]
	 SCS Correlation Energy    =      -1.4277226490732369 [Eh]
	 SCS Total Energy          =    -310.5803199413928724 [Eh]
	-----------------------------------------------------------

  Dipole Moment: [D]
     X:    -1.9075      Y:    -0.0440      Z:     0.5872     Total:     1.9964

*** Psi4 exiting successfully. Buy a developer a beer!
