                               Psi4 1.4a3.dev225

  ==> Input File <==

--------------------------------------------------------------------------
#psi4
#
memory 32 gb

molecule  {
0 1
  O        2.4733480    -1.0180220    -0.0592030
  C        1.5612870     0.0272190     0.3186860
  C        0.2241640    -0.1896060    -0.3216700
  C       -2.2699720    -0.5538550    -0.2568310
  C       -0.9183080    -0.3574540     0.3612590
  C        2.2155680     1.3228410    -0.1266610
  C       -3.2245640     0.5955150     0.0801580
  H        1.4362950     0.0398890     1.4137890
  H        0.2208170    -0.2229080    -1.4128920
  H       -2.7032570    -1.4976940     0.0989920
  H       -2.1635450    -0.6441890    -1.3439560
  H       -0.8876548    -0.3244944     1.4030356
  H        2.3348110     1.3198720    -1.2134080
  H        1.6025990     2.1805020     0.1626330
  H        3.2041590     1.4168830     0.3297970
  H       -2.8327200     1.5423190    -0.3012060
  H       -3.3500700     0.6943310     1.1626160
  H       -4.2121190     0.4296020    -0.3601990
  H        2.0333780    -1.8594800     0.1548220
units angstrom
no_reorient  #important for SAPT in psi4, default
symmetry c1  #important for SAPT in psi4, default
}

set PROPERTIES_ORIGIN ["COM"]
properties('MP2/aug-cc-pvtz', properties = ['dipole'])
--------------------------------------------------------------------------

    Molecular point group: c1
  Charge       = 0
  Multiplicity = 1
  Basis Set: AUG-CC-PVTZ
    Blend: AUG-CC-PVTZ
  Basis Set: (AUG-CC-PVTZ AUX)
    Blend: AUG-CC-PVTZ-JKFIT

    Orbital Energies [Eh]
    ---------------------

    Doubly Occupied:

       1A    -20.553653     2A    -11.281707     3A    -11.230966
       4A    -11.230245     5A    -11.226351     6A    -11.219914
       7A    -11.211128     8A     -1.352255     9A     -1.095040
      10A     -1.034308    11A     -0.974916    12A     -0.873445
      13A     -0.807893    14A     -0.766708    15A     -0.692359
      16A     -0.656103    17A     -0.610190    18A     -0.595228
      19A     -0.577928    20A     -0.541644    21A     -0.535809
      22A     -0.527779    23A     -0.521559    24A     -0.510358
      25A     -0.488586    26A     -0.471601    27A     -0.440680
      28A     -0.356159

  @DF-RHF Final Energy:  -309.15089179037381

   => Energetics <=

    Nuclear Repulsion Energy =            299.0680282624236384
    One-Electron Energy =               -1011.6688131993344086
    Two-Electron Energy =                 403.4498931465369083
    Total Energy =                       -309.1508917903738052
  Basis Set: (AUG-CC-PVTZ AUX)
    Blend: AUG-CC-PVTZ-RI
    Molecular point group: c1

    Geometry (in Angstrom), charge = 0, multiplicity = 1:

       Center              X                  Y                   Z               Mass
    ------------   -----------------  -----------------  -----------------  -----------------
         O            2.420792924919    -0.987563419074    -0.057275755757    15.994914619570
         C            1.508731924919     0.057677580926     0.320613244243    12.000000000000
         C            0.171608924919    -0.159147419074    -0.319742755757    12.000000000000
         C           -2.322527075081    -0.523396419074    -0.254903755757    12.000000000000
         C           -0.970863075081    -0.326995419074     0.363186244243    12.000000000000
         C            2.163012924919     1.353299580926    -0.124733755757    12.000000000000
         C           -3.277119075081     0.625973580926     0.082085244243    12.000000000000
         H            1.383739924919     0.070347580926     1.415716244243     1.007825032230
         H            0.168261924919    -0.192449419074    -1.410964755757     1.007825032230
         H           -2.755812075081    -1.467235419074     0.100919244243     1.007825032230
         H           -2.216100075081    -0.613730419074    -1.342028755757     1.007825032230
         H           -0.940209875081    -0.294035819074     1.404962844243     1.007825032230
         H            2.282255924919     1.350330580926    -1.211480755757     1.007825032230
         H            1.550043924919     2.210960580926     0.164560244243     1.007825032230
         H            3.151603924919     1.447341580926     0.331724244243     1.007825032230
         H           -2.885275075081     1.572777580926    -0.299278755757     1.007825032230
         H           -3.402625075081     0.724789580926     1.164543244243     1.007825032230
         H           -4.264674075081     0.460060580926    -0.358271755757     1.007825032230
         H            1.980822924919    -1.829021419074     0.156749244243     1.007825032230

  Basis Set: AUG-CC-PVTZ
    Blend: AUG-CC-PVTZ
  Basis Set: (AUG-CC-PVTZ AUX)
    Blend: AUG-CC-PVTZ-JKFIT
	 Reference Energy          =    -309.1508917903738052 [Eh]
	 Singles Energy            =      -0.0000000000000000 [Eh]
	 Same-Spin Energy          =      -0.3165670687828914 [Eh]
	 Opposite-Spin Energy      =      -1.1021935318516936 [Eh]
	 Correlation Energy        =      -1.4187606006345850 [Eh]
	 Total Energy              =    -310.5696523910083897 [Eh]

	 ================> DF-SCS-MP2 Energies <==================
	-----------------------------------------------------------
	 SCS Same-Spin Scale       =       0.3333333333333333 [-]
	 SCS Opposite-Spin Scale   =       1.2000000000000000 [-]
	 SCS Same-Spin Energy      =      -0.1055223562609638 [Eh]
	 SCS Opposite-Spin Energy  =      -1.3226322382220321 [Eh]
	 SCS Correlation Energy    =      -1.4281545944829959 [Eh]
	 SCS Total Energy          =    -310.5790463848567811 [Eh]
	-----------------------------------------------------------

  Dipole Moment: [D]
     X:    -1.9022      Y:    -0.0568      Z:     0.6129     Total:     1.9993

*** Psi4 exiting successfully. Buy a developer a beer!
