                               Psi4 1.3.2 release

  ==> Input File <==

--------------------------------------------------------------------------
#psi4
#
memory 32 gb

molecule  {
0 1
  O       -2.3916800    -1.0522970    -0.0243250
  C       -1.5013820     0.0265210    -0.3499700
  C       -0.1839526    -0.1735246     0.2879643
  C        2.3285040    -0.4694590     0.2834420
  C        0.9860590    -0.2881690    -0.3549330
  C       -2.1959480     1.2879740     0.1259890
  C        3.2526380     0.7192940     0.0124360
  H       -1.3570540     0.0791090    -1.4412390
  H       -0.1904860    -0.2488370     1.3972520
  H        2.7976780    -1.3847260    -0.0993500
  H        2.2027970    -0.6058810     1.3632980
  H        0.9557382    -0.2129491    -1.4443457
  H       -2.3344480     1.2448060     1.2091660
  H       -1.6005480     2.1700530    -0.1223020
  H       -3.1779120     1.3727550    -0.3453210
  H        2.8243150     1.6377400     0.4218030
  H        3.3966440     0.8648080    -1.0620310
  H        4.2355510     0.5661250     0.4665360
  H       -1.9269720    -1.8751040    -0.2580250
units angstrom
no_reorient  #important for SAPT in psi4, default
symmetry c1  #important for SAPT in psi4, default
}

set PROPERTIES_ORIGIN ["COM"]
properties('MP2/aug-cc-pvtz', properties = ['dipole'])
--------------------------------------------------------------------------

    Molecular point group: c1
  Charge       = 0
  Multiplicity = 1
  Basis Set: AUG-CC-PVTZ
    Blend: AUG-CC-PVTZ
  Basis Set: (AUG-CC-PVTZ AUX)
    Blend: AUG-CC-PVTZ-JKFIT

    Orbital Energies [Eh]
    ---------------------

    Doubly Occupied:

       1A    -20.553986     2A    -11.280377     3A    -11.236289
       4A    -11.231809     5A    -11.226832     6A    -11.220017
       7A    -11.211045     8A     -1.353492     9A     -1.095464
      10A     -1.036963    11A     -0.975002    12A     -0.874940
      13A     -0.809190    14A     -0.757975    15A     -0.694023
      16A     -0.654466    17A     -0.611788    18A     -0.593511
      19A     -0.579434    20A     -0.537091    21A     -0.534652
      22A     -0.528160    23A     -0.521362    24A     -0.509884
      25A     -0.486861    26A     -0.473868    27A     -0.442364
      28A     -0.356620

  @DF-RHF Final Energy:  -309.15082894172997

   => Energetics <=

    Nuclear Repulsion Energy =            299.3369376215960074
    One-Electron Energy =               -1012.2006066005549201
    Two-Electron Energy =                 403.7128400372289434
    Total Energy =                       -309.1508289417299693
  Basis Set: (AUG-CC-PVTZ AUX)
    Blend: AUG-CC-PVTZ-RI
    Molecular point group: c1

    Geometry (in Angstrom), charge = 0, multiplicity = 1:

       Center              X                  Y                   Z               Mass
    ------------   -----------------  -----------------  -----------------  -----------------
         O           -2.390153253859    -1.052660346851    -0.021888895454    15.994914619570
         C           -1.499855253859     0.026157653149    -0.347533895454    12.000000000000
         C           -0.182425853859    -0.173887946851     0.290400404546    12.000000000000
         C            2.330030746141    -0.469822346851     0.285878104546    12.000000000000
         C            0.987585746141    -0.288532346851    -0.352496895454    12.000000000000
         C           -2.194421253859     1.287610653149     0.128425104546    12.000000000000
         C            3.254164746141     0.718930653149     0.014872104546    12.000000000000
         H           -1.355527253859     0.078745653149    -1.438802895454     1.007825032230
         H           -0.188959253859    -0.249200346851     1.399688104546     1.007825032230
         H            2.799204746141    -1.385089346851    -0.096913895454     1.007825032230
         H            2.204323746141    -0.606244346851     1.365734104546     1.007825032230
         H            0.957264946141    -0.213312446851    -1.441909595454     1.007825032230
         H           -2.332921253859     1.244442653149     1.211602104546     1.007825032230
         H           -1.599021253859     2.169689653149    -0.119865895454     1.007825032230
         H           -3.176385253859     1.372391653149    -0.342884895454     1.007825032230
         H            2.825841746141     1.637376653149     0.424239104546     1.007825032230
         H            3.398170746141     0.864444653149    -1.059594895454     1.007825032230
         H            4.237077746141     0.565761653149     0.468972104546     1.007825032230
         H           -1.925445253859    -1.875467346851    -0.255588895454     1.007825032230

  Basis Set: AUG-CC-PVTZ
    Blend: AUG-CC-PVTZ
  Basis Set: (AUG-CC-PVTZ AUX)
    Blend: AUG-CC-PVTZ-JKFIT
	 Reference Energy          =    -309.1508289417299693 [Eh]
	 Singles Energy            =      -0.0000000000000000 [Eh]
	 Same-Spin Energy          =      -0.3169533280668920 [Eh]
	 Opposite-Spin Energy      =      -1.1027047019860707 [Eh]
	 Correlation Energy        =      -1.4196580300529626 [Eh]
	 Total Energy              =    -310.5704869717829411 [Eh]

	 ================> DF-SCS-MP2 Energies <==================
	-----------------------------------------------------------
	 SCS Same-Spin Scale       =       0.3333333333333333 [-]
	 SCS Opposite-Spin Scale   =       1.2000000000000000 [-]
	 SCS Same-Spin Energy      =      -0.1056511093556307 [Eh]
	 SCS Opposite-Spin Energy  =      -1.3232456423832848 [Eh]
	 SCS Correlation Energy    =      -1.4288967517389155 [Eh]
	 SCS Total Energy          =    -310.5797256934689017 [Eh]
	-----------------------------------------------------------

  Dipole Moment: [D]
     X:     1.9243      Y:     0.0120      Z:    -0.5563     Total:     2.0031

*** Psi4 exiting successfully. Buy a developer a beer!
