                               Psi4 1.3.2 release

  ==> Input File <==

--------------------------------------------------------------------------
#psi4
#
memory 32 gb

molecule  {
0 1
  O       -2.4095042    -1.0415007    -0.0382535
  C       -1.5013820     0.0265210    -0.3499700
  C       -0.1643611    -0.1540643     0.2976332
  C        2.3285040    -0.4694590     0.2834420
  C        0.9860590    -0.2881690    -0.3549330
  C       -2.1959480     1.2879740     0.1259890
  C        3.2526380     0.7192940     0.0124360
  H       -1.3570540     0.0791090    -1.4412390
  H       -0.1904860    -0.2488370     1.3972520
  H        2.7976780    -1.3847260    -0.0993500
  H        2.2027970    -0.6058810     1.3632980
  H        0.9746330    -0.2154440    -1.4448770
  H       -2.3344480     1.2448060     1.2091660
  H       -1.6005480     2.1700530    -0.1223020
  H       -3.1779120     1.3727550    -0.3453210
  H        2.8243150     1.6377400     0.4218030
  H        3.3966440     0.8648080    -1.0620310
  H        4.2355510     0.5661250     0.4665360
  H       -1.9269720    -1.8751040    -0.2580250
units angstrom
no_reorient  #important for SAPT in psi4, default
symmetry c1  #important for SAPT in psi4, default
}

set PROPERTIES_ORIGIN ["COM"]
properties('MP2/aug-cc-pvtz', properties = ['dipole'])
--------------------------------------------------------------------------

    Molecular point group: c1
  Charge       = 0
  Multiplicity = 1
  Basis Set: AUG-CC-PVTZ
    Blend: AUG-CC-PVTZ
  Basis Set: (AUG-CC-PVTZ AUX)
    Blend: AUG-CC-PVTZ-JKFIT

    Orbital Energies [Eh]
    ---------------------

    Doubly Occupied:

       1A    -20.556385     2A    -11.280825     3A    -11.235408
       4A    -11.231150     5A    -11.226447     6A    -11.219921
       7A    -11.209855     8A     -1.350700     9A     -1.096431
      10A     -1.034849    11A     -0.975496    12A     -0.873164
      13A     -0.807691    14A     -0.759039    15A     -0.690428
      16A     -0.654842    17A     -0.611507    18A     -0.593756
      19A     -0.578514    20A     -0.537994    21A     -0.535980
      22A     -0.525966    23A     -0.521329    24A     -0.511040
      25A     -0.487590    26A     -0.471565    27A     -0.439949
      28A     -0.359851

  @DF-RHF Final Energy:  -309.15032605519917

   => Energetics <=

    Nuclear Repulsion Energy =            299.0985737497233004
    One-Electron Energy =               -1011.7424586999431995
    Two-Electron Energy =                 403.4935588950207261
    Total Energy =                       -309.1503260551991730
  Basis Set: (AUG-CC-PVTZ AUX)
    Blend: AUG-CC-PVTZ-RI
    Molecular point group: c1

    Geometry (in Angstrom), charge = 0, multiplicity = 1:

       Center              X                  Y                   Z               Mass
    ------------   -----------------  -----------------  -----------------  -----------------
         O           -2.407668169503    -1.045897415355    -0.034745409282    15.994914619570
         C           -1.499545969503     0.022124284645    -0.346461909282    12.000000000000
         C           -0.162525069503    -0.158461015355     0.301141290718    12.000000000000
         C            2.330340030497    -0.473855715355     0.286950090718    12.000000000000
         C            0.987895030497    -0.292565715355    -0.351424909282    12.000000000000
         C           -2.194111969503     1.283577284645     0.129497090718    12.000000000000
         C            3.254474030497     0.714897284645     0.015944090718    12.000000000000
         H           -1.355217969503     0.074712284645    -1.437730909282     1.007825032230
         H           -0.188649969503    -0.253233715355     1.400760090718     1.007825032230
         H            2.799514030497    -1.389122715355    -0.095841909282     1.007825032230
         H            2.204633030497    -0.610277715355     1.366806090718     1.007825032230
         H            0.976469030497    -0.219840715355    -1.441368909282     1.007825032230
         H           -2.332611969503     1.240409284645     1.212674090718     1.007825032230
         H           -1.598711969503     2.165656284645    -0.118793909282     1.007825032230
         H           -3.176075969503     1.368358284645    -0.341812909282     1.007825032230
         H            2.826151030497     1.633343284645     0.425311090718     1.007825032230
         H            3.398480030497     0.860411284645    -1.058522909282     1.007825032230
         H            4.237387030497     0.561728284645     0.470044090718     1.007825032230
         H           -1.925135969503    -1.879500715355    -0.254516909282     1.007825032230

  Basis Set: AUG-CC-PVTZ
    Blend: AUG-CC-PVTZ
  Basis Set: (AUG-CC-PVTZ AUX)
    Blend: AUG-CC-PVTZ-JKFIT
	 Reference Energy          =    -309.1503260551991730 [Eh]
	 Singles Energy            =      -0.0000000000000000 [Eh]
	 Same-Spin Energy          =      -0.3168980953898604 [Eh]
	 Opposite-Spin Energy      =      -1.1028586201650619 [Eh]
	 Correlation Energy        =      -1.4197567155549222 [Eh]
	 Total Energy              =    -310.5700827707540839 [Eh]

	 ================> DF-SCS-MP2 Energies <==================
	-----------------------------------------------------------
	 SCS Same-Spin Scale       =       0.3333333333333333 [-]
	 SCS Opposite-Spin Scale   =       1.2000000000000000 [-]
	 SCS Same-Spin Energy      =      -0.1056326984632868 [Eh]
	 SCS Opposite-Spin Energy  =      -1.3234303441980741 [Eh]
	 SCS Correlation Energy    =      -1.4290630426613609 [Eh]
	 SCS Total Energy          =    -310.5793890978605418 [Eh]
	-----------------------------------------------------------

  Dipole Moment: [D]
     X:     1.9630      Y:    -0.0468      Z:    -0.5266     Total:     2.0330

*** Psi4 exiting successfully. Buy a developer a beer!
