                               Psi4 1.3.2 release

  ==> Input File <==

--------------------------------------------------------------------------
#psi4
#
memory 32 gb

molecule  {
0 1
  O       -2.3916800    -1.0522970    -0.0243250
  C       -1.5013820     0.0265210    -0.3499700
  C       -0.1784708    -0.1753067     0.2981519
  C        2.3340397    -0.4696743     0.2716061
  C        0.9860590    -0.2881690    -0.3549330
  C       -2.1959480     1.2879740     0.1259890
  C        3.2526380     0.7192940     0.0124360
  H       -1.3570540     0.0791090    -1.4412390
  H       -0.1904860    -0.2488370     1.3972520
  H        2.7976780    -1.3847260    -0.0993500
  H        2.2027970    -0.6058810     1.3632980
  H        0.9746330    -0.2154440    -1.4448770
  H       -2.3344480     1.2448060     1.2091660
  H       -1.6005480     2.1700530    -0.1223020
  H       -3.1779120     1.3727550    -0.3453210
  H        2.8243150     1.6377400     0.4218030
  H        3.3966440     0.8648080    -1.0620310
  H        4.2355510     0.5661250     0.4665360
  H       -1.9269720    -1.8751040    -0.2580250
units angstrom
no_reorient  #important for SAPT in psi4, default
symmetry c1  #important for SAPT in psi4, default
}

set PROPERTIES_ORIGIN ["COM"]
properties('MP2/aug-cc-pvtz', properties = ['dipole'])
--------------------------------------------------------------------------

    Molecular point group: c1
  Charge       = 0
  Multiplicity = 1
  Basis Set: AUG-CC-PVTZ
    Blend: AUG-CC-PVTZ
  Basis Set: (AUG-CC-PVTZ AUX)
    Blend: AUG-CC-PVTZ-JKFIT

    Orbital Energies [Eh]
    ---------------------

    Doubly Occupied:

       1A    -20.553880     2A    -11.280874     3A    -11.236305
       4A    -11.231264     5A    -11.226969     6A    -11.219653
       7A    -11.210947     8A     -1.353250     9A     -1.095102
      10A     -1.036465    11A     -0.975155    12A     -0.874256
      13A     -0.808154    14A     -0.758992    15A     -0.693559
      16A     -0.654355    17A     -0.612466    18A     -0.593252
      19A     -0.578979    20A     -0.538553    21A     -0.536163
      22A     -0.528142    23A     -0.522062    24A     -0.510845
      25A     -0.484020    26A     -0.472314    27A     -0.441752
      28A     -0.357156

  @DF-RHF Final Energy:  -309.15124943118155

   => Energetics <=

    Nuclear Repulsion Energy =            299.2395367376274748
    One-Electron Energy =               -1012.0118066615090129
    Two-Electron Energy =                 403.6210204927000404
    Total Energy =                       -309.1512494311815544
  Basis Set: (AUG-CC-PVTZ AUX)
    Blend: AUG-CC-PVTZ-RI
    Molecular point group: c1

    Geometry (in Angstrom), charge = 0, multiplicity = 1:

       Center              X                  Y                   Z               Mass
    ------------   -----------------  -----------------  -----------------  -----------------
         O           -2.391664438225    -1.052395749626    -0.021685925148    15.994914619570
         C           -1.501366438225     0.026422250374    -0.347330925148    12.000000000000
         C           -0.178455238225    -0.175405449626     0.300790974852    12.000000000000
         C            2.334055261775    -0.469773049626     0.274245174852    12.000000000000
         C            0.986074561775    -0.288267749626    -0.352293925148    12.000000000000
         C           -2.195932438225     1.287875250374     0.128628074852    12.000000000000
         C            3.252653561775     0.719195250374     0.015075074852    12.000000000000
         H           -1.357038438225     0.079010250374    -1.438599925148     1.007825032230
         H           -0.190470438225    -0.248935749626     1.399891074852     1.007825032230
         H            2.797693561775    -1.384824749626    -0.096710925148     1.007825032230
         H            2.202812561775    -0.605979749626     1.365937074852     1.007825032230
         H            0.974648561775    -0.215542749626    -1.442237925148     1.007825032230
         H           -2.334432438225     1.244707250374     1.211805074852     1.007825032230
         H           -1.600532438225     2.169954250374    -0.119662925148     1.007825032230
         H           -3.177896438225     1.372656250374    -0.342681925148     1.007825032230
         H            2.824330561775     1.637641250374     0.424442074852     1.007825032230
         H            3.396659561775     0.864709250374    -1.059391925148     1.007825032230
         H            4.235566561775     0.566026250374     0.469175074852     1.007825032230
         H           -1.926956438225    -1.875202749626    -0.255385925148     1.007825032230

  Basis Set: AUG-CC-PVTZ
    Blend: AUG-CC-PVTZ
  Basis Set: (AUG-CC-PVTZ AUX)
    Blend: AUG-CC-PVTZ-JKFIT
	 Reference Energy          =    -309.1512494311815544 [Eh]
	 Singles Energy            =      -0.0000000000000000 [Eh]
	 Same-Spin Energy          =      -0.3168465517677652 [Eh]
	 Opposite-Spin Energy      =      -1.1026106175604986 [Eh]
	 Correlation Energy        =      -1.4194571693282638 [Eh]
	 Total Energy              =    -310.5707066005098227 [Eh]

	 ================> DF-SCS-MP2 Energies <==================
	-----------------------------------------------------------
	 SCS Same-Spin Scale       =       0.3333333333333333 [-]
	 SCS Opposite-Spin Scale   =       1.2000000000000000 [-]
	 SCS Same-Spin Energy      =      -0.1056155172559217 [Eh]
	 SCS Opposite-Spin Energy  =      -1.3231327410725984 [Eh]
	 SCS Correlation Energy    =      -1.4287482583285200 [Eh]
	 SCS Total Energy          =    -310.5799976895100940 [Eh]
	-----------------------------------------------------------

  Dipole Moment: [D]
     X:     1.9180      Y:     0.0102      Z:    -0.5612     Total:     1.9984

*** Psi4 exiting successfully. Buy a developer a beer!
