                               Psi4 1.3.2 release

  ==> Input File <==

--------------------------------------------------------------------------
#psi4
#
memory 32 gb

molecule  {
0 1
  O       -2.3916800    -1.0522970    -0.0243250
  C       -1.5013820     0.0265210    -0.3499700
  C       -0.1504031    -0.1760270     0.2611406
  C        2.3285040    -0.4694590     0.2834420
  C        0.9860590    -0.2881690    -0.3549330
  C       -2.1959480     1.2879740     0.1259890
  C        3.2526380     0.7192940     0.0124360
  H       -1.3192923     0.0741949    -1.4358036
  H       -0.1904860    -0.2488370     1.3972520
  H        2.7976780    -1.3847260    -0.0993500
  H        2.2027970    -0.6058810     1.3632980
  H        0.9746330    -0.2154440    -1.4448770
  H       -2.3344480     1.2448060     1.2091660
  H       -1.6005480     2.1700530    -0.1223020
  H       -3.1779120     1.3727550    -0.3453210
  H        2.8243150     1.6377400     0.4218030
  H        3.3966440     0.8648080    -1.0620310
  H        4.2355510     0.5661250     0.4665360
  H       -1.9269720    -1.8751040    -0.2580250
units angstrom
no_reorient  #important for SAPT in psi4, default
symmetry c1  #important for SAPT in psi4, default
}

set PROPERTIES_ORIGIN ["COM"]
properties('MP2/aug-cc-pvtz', properties = ['dipole'])
--------------------------------------------------------------------------

    Molecular point group: c1
  Charge       = 0
  Multiplicity = 1
  Basis Set: AUG-CC-PVTZ
    Blend: AUG-CC-PVTZ
  Basis Set: (AUG-CC-PVTZ AUX)
    Blend: AUG-CC-PVTZ-JKFIT

    Orbital Energies [Eh]
    ---------------------

    Doubly Occupied:

       1A    -20.555699     2A    -11.281980     3A    -11.231144
       4A    -11.229745     5A    -11.223838     6A    -11.219806
       7A    -11.211813     8A     -1.353860     9A     -1.100568
      10A     -1.035301    11A     -0.979472    12A     -0.873604
      13A     -0.811640    14A     -0.752912    15A     -0.695770
      16A     -0.654587    17A     -0.613589    18A     -0.590765
      19A     -0.579457    20A     -0.537745    21A     -0.534369
      22A     -0.528245    23A     -0.519613    24A     -0.510360
      25A     -0.487645    26A     -0.474638    27A     -0.435341
      28A     -0.367203

  @DF-RHF Final Energy:  -309.14894166177089

   => Energetics <=

    Nuclear Repulsion Energy =            299.5755104054829303
    One-Electron Energy =               -1012.6674874997130473
    Two-Electron Energy =                 403.9430354324591690
    Total Energy =                       -309.1489416617708912
  Basis Set: (AUG-CC-PVTZ AUX)
    Blend: AUG-CC-PVTZ-RI
    Molecular point group: c1

    Geometry (in Angstrom), charge = 0, multiplicity = 1:

       Center              X                  Y                   Z               Mass
    ------------   -----------------  -----------------  -----------------  -----------------
         O           -2.394746113100    -1.052285721818    -0.018722288624    15.994914619570
         C           -1.504448113100     0.026532278182    -0.344367288624    12.000000000000
         C           -0.153469213100    -0.176015721818     0.266743311376    12.000000000000
         C            2.325437886900    -0.469447721818     0.289044711376    12.000000000000
         C            0.982992886900    -0.288157721818    -0.349330288624    12.000000000000
         C           -2.199014113100     1.287985278182     0.131591711376    12.000000000000
         C            3.249571886900     0.719305278182     0.018038711376    12.000000000000
         H           -1.322358413100     0.074206178182    -1.430200888624     1.007825032230
         H           -0.193552113100    -0.248825721818     1.402854711376     1.007825032230
         H            2.794611886900    -1.384714721818    -0.093747288624     1.007825032230
         H            2.199730886900    -0.605869721818     1.368900711376     1.007825032230
         H            0.971566886900    -0.215432721818    -1.439274288624     1.007825032230
         H           -2.337514113100     1.244817278182     1.214768711376     1.007825032230
         H           -1.603614113100     2.170064278182    -0.116699288624     1.007825032230
         H           -3.180978113100     1.372766278182    -0.339718288624     1.007825032230
         H            2.821248886900     1.637751278182     0.427405711376     1.007825032230
         H            3.393577886900     0.864819278182    -1.056428288624     1.007825032230
         H            4.232484886900     0.566136278182     0.472138711376     1.007825032230
         H           -1.930038113100    -1.875092721818    -0.252422288624     1.007825032230

  Basis Set: AUG-CC-PVTZ
    Blend: AUG-CC-PVTZ
  Basis Set: (AUG-CC-PVTZ AUX)
    Blend: AUG-CC-PVTZ-JKFIT
	 Reference Energy          =    -309.1489416617708912 [Eh]
	 Singles Energy            =      -0.0000000000000000 [Eh]
	 Same-Spin Energy          =      -0.3165325677080864 [Eh]
	 Opposite-Spin Energy      =      -1.1018178905623834 [Eh]
	 Correlation Energy        =      -1.4183504582704698 [Eh]
	 Total Energy              =    -310.5672921200413725 [Eh]

	 ================> DF-SCS-MP2 Energies <==================
	-----------------------------------------------------------
	 SCS Same-Spin Scale       =       0.3333333333333333 [-]
	 SCS Opposite-Spin Scale   =       1.2000000000000000 [-]
	 SCS Same-Spin Energy      =      -0.1055108559026954 [Eh]
	 SCS Opposite-Spin Energy  =      -1.3221814686748601 [Eh]
	 SCS Correlation Energy    =      -1.4276923245775555 [Eh]
	 SCS Total Energy          =    -310.5766339863484404 [Eh]
	-----------------------------------------------------------

  Dipole Moment: [D]
     X:     1.9045      Y:     0.0020      Z:    -0.5708     Total:     1.9882

*** Psi4 exiting successfully. Buy a developer a beer!
