                               Psi4 1.3.2 release

  ==> Input File <==

--------------------------------------------------------------------------
#psi4
#
memory 32 gb

molecule  {
0 1
  O       -2.3916800    -1.0522970    -0.0243250
  C       -1.5013820     0.0265210    -0.3499700
  C       -0.1728060    -0.1763470     0.3083280
  C        2.3051613    -0.4701046     0.3302063
  C        0.9860590    -0.2881690    -0.3549330
  C       -2.1959480     1.2879740     0.1259890
  C        3.2526380     0.7192940     0.0124360
  H       -1.3570540     0.0791090    -1.4412390
  H       -0.1904860    -0.2488370     1.3972520
  H        2.7976780    -1.3847260    -0.0993500
  H        2.2027970    -0.6058810     1.3632980
  H        0.9367199    -0.2115941    -1.4435557
  H       -2.3344480     1.2448060     1.2091660
  H       -1.6005480     2.1700530    -0.1223020
  H       -3.1779120     1.3727550    -0.3453210
  H        2.8243150     1.6377400     0.4218030
  H        3.3966440     0.8648080    -1.0620310
  H        4.2355510     0.5661250     0.4665360
  H       -1.9269720    -1.8751040    -0.2580250
units angstrom
no_reorient  #important for SAPT in psi4, default
symmetry c1  #important for SAPT in psi4, default
}

set PROPERTIES_ORIGIN ["COM"]
properties('MP2/aug-cc-pvtz', properties = ['dipole'])
--------------------------------------------------------------------------

    Molecular point group: c1
  Charge       = 0
  Multiplicity = 1
  Basis Set: AUG-CC-PVTZ
    Blend: AUG-CC-PVTZ
  Basis Set: (AUG-CC-PVTZ AUX)
    Blend: AUG-CC-PVTZ-JKFIT

    Orbital Energies [Eh]
    ---------------------

    Doubly Occupied:

       1A    -20.553385     2A    -11.280716     3A    -11.236007
       4A    -11.230889     5A    -11.224568     6A    -11.220563
       7A    -11.210506     8A     -1.352614     9A     -1.094468
      10A     -1.033084    11A     -0.973305    12A     -0.873111
      13A     -0.808721    14A     -0.762431    15A     -0.692696
      16A     -0.654093    17A     -0.607341    18A     -0.596963
      19A     -0.578007    20A     -0.537974    21A     -0.532388
      22A     -0.527085    23A     -0.520265    24A     -0.508852
      25A     -0.497360    26A     -0.470845    27A     -0.440187
      28A     -0.354526

  @DF-RHF Final Energy:  -309.14867406689569

   => Energetics <=

    Nuclear Repulsion Energy =            299.1461229043564458
    One-Electron Energy =               -1011.8436950847459457
    Two-Electron Energy =                 403.5488981134937490
    Total Energy =                       -309.1486740668956941
  Basis Set: (AUG-CC-PVTZ AUX)
    Blend: AUG-CC-PVTZ-RI
    Molecular point group: c1

    Geometry (in Angstrom), charge = 0, multiplicity = 1:

       Center              X                  Y                   Z               Mass
    ------------   -----------------  -----------------  -----------------  -----------------
         O           -2.388499519435    -1.052258200047    -0.029945062187    15.994914619570
         C           -1.498201519435     0.026559799953    -0.355590062187    12.000000000000
         C           -0.169625519435    -0.176308200047     0.302707937813    12.000000000000
         C            2.308341780565    -0.470065800047     0.324586237813    12.000000000000
         C            0.989239480565    -0.288130200047    -0.360553062187    12.000000000000
         C           -2.192767519435     1.288012799953     0.120368937813    12.000000000000
         C            3.255818480565     0.719332799953     0.006815937813    12.000000000000
         H           -1.353873519435     0.079147799953    -1.446859062187     1.007825032230
         H           -0.187305519435    -0.248798200047     1.391631937813     1.007825032230
         H            2.800858480565    -1.384687200047    -0.104970062187     1.007825032230
         H            2.205977480565    -0.605842200047     1.357677937813     1.007825032230
         H            0.939900380565    -0.211555300047    -1.449175762187     1.007825032230
         H           -2.331267519435     1.244844799953     1.203545937813     1.007825032230
         H           -1.597367519435     2.170091799953    -0.127922062187     1.007825032230
         H           -3.174731519435     1.372793799953    -0.350941062187     1.007825032230
         H            2.827495480565     1.637778799953     0.416182937813     1.007825032230
         H            3.399824480565     0.864846799953    -1.067651062187     1.007825032230
         H            4.238731480565     0.566163799953     0.460915937813     1.007825032230
         H           -1.923791519435    -1.875065200047    -0.263645062187     1.007825032230

  Basis Set: AUG-CC-PVTZ
    Blend: AUG-CC-PVTZ
  Basis Set: (AUG-CC-PVTZ AUX)
    Blend: AUG-CC-PVTZ-JKFIT
	 Reference Energy          =    -309.1486740668956941 [Eh]
	 Singles Energy            =      -0.0000000000000000 [Eh]
	 Same-Spin Energy          =      -0.3167153690340039 [Eh]
	 Opposite-Spin Energy      =      -1.1024424891090847 [Eh]
	 Correlation Energy        =      -1.4191578581430886 [Eh]
	 Total Energy              =    -310.5678319250387744 [Eh]

	 ================> DF-SCS-MP2 Energies <==================
	-----------------------------------------------------------
	 SCS Same-Spin Scale       =       0.3333333333333333 [-]
	 SCS Opposite-Spin Scale   =       1.2000000000000000 [-]
	 SCS Same-Spin Energy      =      -0.1055717896780013 [Eh]
	 SCS Opposite-Spin Energy  =      -1.3229309869309016 [Eh]
	 SCS Correlation Energy    =      -1.4285027766089029 [Eh]
	 SCS Total Energy          =    -310.5771768435046170 [Eh]
	-----------------------------------------------------------

  Dipole Moment: [D]
     X:     1.9167      Y:     0.0090      Z:    -0.5322     Total:     1.9893

*** Psi4 exiting successfully. Buy a developer a beer!
