                               Psi4 1.3.2 release

  ==> Input File <==

--------------------------------------------------------------------------
#psi4
#
memory 32 gb

molecule  {
0 1
  O       -2.3916800    -1.0522970    -0.0243250
  C       -1.5013820     0.0265210    -0.3499700
  C       -0.1728060    -0.1763470     0.3083280
  C        2.3285040    -0.4694590     0.2834420
  C        0.9505519    -0.2792299    -0.4147692
  C       -2.1959480     1.2879740     0.1259890
  C        3.2526380     0.7192940     0.0124360
  H       -1.3570540     0.0791090    -1.4412390
  H       -0.2470602    -0.2410206     1.3953545
  H        2.7976780    -1.3847260    -0.0993500
  H        2.2027970    -0.6058810     1.3632980
  H        0.9746330    -0.2154440    -1.4448770
  H       -2.3344480     1.2448060     1.2091660
  H       -1.6005480     2.1700530    -0.1223020
  H       -3.1779120     1.3727550    -0.3453210
  H        2.8243150     1.6377400     0.4218030
  H        3.3966440     0.8648080    -1.0620310
  H        4.2355510     0.5661250     0.4665360
  H       -1.9269720    -1.8751040    -0.2580250
units angstrom
no_reorient  #important for SAPT in psi4, default
symmetry c1  #important for SAPT in psi4, default
}

set PROPERTIES_ORIGIN ["COM"]
properties('MP2/aug-cc-pvtz', properties = ['dipole'])
--------------------------------------------------------------------------

    Molecular point group: c1
  Charge       = 0
  Multiplicity = 1
  Basis Set: AUG-CC-PVTZ
    Blend: AUG-CC-PVTZ
  Basis Set: (AUG-CC-PVTZ AUX)
    Blend: AUG-CC-PVTZ-JKFIT

    Orbital Energies [Eh]
    ---------------------

    Doubly Occupied:

       1A    -20.553056     2A    -11.278343     3A    -11.234844
       4A    -11.232210     5A    -11.228011     6A    -11.218113
       7A    -11.210213     8A     -1.352353     9A     -1.090235
      10A     -1.032016    11A     -0.974451    12A     -0.868303
      13A     -0.805871    14A     -0.771167    15A     -0.691625
      16A     -0.657020    17A     -0.603589    18A     -0.594794
      19A     -0.577771    20A     -0.552131    21A     -0.532347
      22A     -0.526607    23A     -0.520097    24A     -0.508761
      25A     -0.490986    26A     -0.463715    27A     -0.435454
      28A     -0.358744

  @DF-RHF Final Energy:  -309.14633063988890

   => Energetics <=

    Nuclear Repulsion Energy =            298.8586004255034823
    One-Electron Energy =               -1011.2842119231195284
    Two-Electron Energy =                 403.2792808577271444
    Total Energy =                       -309.1463306398889017
  Basis Set: (AUG-CC-PVTZ AUX)
    Blend: AUG-CC-PVTZ-RI
    Molecular point group: c1

    Geometry (in Angstrom), charge = 0, multiplicity = 1:

       Center              X                  Y                   Z               Mass
    ------------   -----------------  -----------------  -----------------  -----------------
         O           -2.386853182393    -1.053447283342    -0.017131942288    15.994914619570
         C           -1.496555182393     0.025370716658    -0.342776942288    12.000000000000
         C           -0.167979182393    -0.177497283342     0.315521057712    12.000000000000
         C            2.333330817607    -0.470609283342     0.290635057712    12.000000000000
         C            0.955378717607    -0.280380183342    -0.407576142288    12.000000000000
         C           -2.191121182393     1.286823716658     0.133182057712    12.000000000000
         C            3.257464817607     0.718143716658     0.019629057712    12.000000000000
         H           -1.352227182393     0.077958716658    -1.434045942288     1.007825032230
         H           -0.242233382393    -0.242170883342     1.402547557712     1.007825032230
         H            2.802504817607    -1.385876283342    -0.092156942288     1.007825032230
         H            2.207623817607    -0.607031283342     1.370491057712     1.007825032230
         H            0.979459817607    -0.216594283342    -1.437683942288     1.007825032230
         H           -2.329621182393     1.243655716658     1.216359057712     1.007825032230
         H           -1.595721182393     2.168902716658    -0.115108942288     1.007825032230
         H           -3.173085182393     1.371604716658    -0.338127942288     1.007825032230
         H            2.829141817607     1.636589716658     0.428996057712     1.007825032230
         H            3.401470817607     0.863657716658    -1.054837942288     1.007825032230
         H            4.240377817607     0.564974716658     0.473729057712     1.007825032230
         H           -1.922145182393    -1.876254283342    -0.250831942288     1.007825032230

  Basis Set: AUG-CC-PVTZ
    Blend: AUG-CC-PVTZ
  Basis Set: (AUG-CC-PVTZ AUX)
    Blend: AUG-CC-PVTZ-JKFIT
	 Reference Energy          =    -309.1463306398889017 [Eh]
	 Singles Energy            =      -0.0000000000000000 [Eh]
	 Same-Spin Energy          =      -0.3163161620726244 [Eh]
	 Opposite-Spin Energy      =      -1.1022847118151491 [Eh]
	 Correlation Energy        =      -1.4186008738877733 [Eh]
	 Total Energy              =    -310.5649315137766848 [Eh]

	 ================> DF-SCS-MP2 Energies <==================
	-----------------------------------------------------------
	 SCS Same-Spin Scale       =       0.3333333333333333 [-]
	 SCS Opposite-Spin Scale   =       1.2000000000000000 [-]
	 SCS Same-Spin Energy      =      -0.1054387206908748 [Eh]
	 SCS Opposite-Spin Energy  =      -1.3227416541781789 [Eh]
	 SCS Correlation Energy    =      -1.4281803748690538 [Eh]
	 SCS Total Energy          =    -310.5745110147579453 [Eh]
	-----------------------------------------------------------

  Dipole Moment: [D]
     X:     1.8560      Y:     0.0064      Z:    -0.5730     Total:     1.9424

*** Psi4 exiting successfully. Buy a developer a beer!
