                               Psi4 1.3.2 release

  ==> Input File <==

--------------------------------------------------------------------------
#psi4
#
memory 32 gb

molecule  {
0 1
  O       -2.3916800    -1.0522970    -0.0243250
  C       -1.5013820     0.0265210    -0.3499700
  C       -0.1398173    -0.1757744     0.2372641
  C        2.3285040    -0.4694590     0.2834420
  C        0.9860590    -0.2881690    -0.3549330
  C       -2.1959480     1.2879740     0.1259890
  C        3.2526380     0.7192940     0.0124360
  H       -1.3004918     0.0717157    -1.4325893
  H       -0.1904860    -0.2488370     1.3972520
  H        2.7976780    -1.3847260    -0.0993500
  H        2.2027970    -0.6058810     1.3632980
  H        0.9746330    -0.2154440    -1.4448770
  H       -2.3344480     1.2448060     1.2091660
  H       -1.6005480     2.1700530    -0.1223020
  H       -3.1779120     1.3727550    -0.3453210
  H        2.8243150     1.6377400     0.4218030
  H        3.3966440     0.8648080    -1.0620310
  H        4.2355510     0.5661250     0.4665360
  H       -1.9269720    -1.8751040    -0.2580250
units angstrom
no_reorient  #important for SAPT in psi4, default
symmetry c1  #important for SAPT in psi4, default
}

set PROPERTIES_ORIGIN ["COM"]
properties('MP2/aug-cc-pvtz', properties = ['dipole'])
--------------------------------------------------------------------------

    Molecular point group: c1
  Charge       = 0
  Multiplicity = 1
  Basis Set: AUG-CC-PVTZ
    Blend: AUG-CC-PVTZ
  Basis Set: (AUG-CC-PVTZ AUX)
    Blend: AUG-CC-PVTZ-JKFIT

    Orbital Energies [Eh]
    ---------------------

    Doubly Occupied:

       1A    -20.556765     2A    -11.282598     3A    -11.231376
       4A    -11.226919     5A    -11.222721     6A    -11.219944
       7A    -11.212400     8A     -1.354415     9A     -1.103939
      10A     -1.035562    11A     -0.981929    12A     -0.873931
      13A     -0.813976    14A     -0.749183    15A     -0.697374
      16A     -0.654611    17A     -0.614988    18A     -0.589445
      19A     -0.580068    20A     -0.538439    21A     -0.533232
      22A     -0.528432    23A     -0.518767    24A     -0.509843
      25A     -0.488277    26A     -0.475412    27A     -0.431582
      28A     -0.372617

  @DF-RHF Final Energy:  -309.14411336987678

   => Energetics <=

    Nuclear Repulsion Energy =            299.7970685717392030
    One-Electron Energy =               -1013.0848757175539276
    Two-Electron Energy =                 404.1436937759378907
    Total Energy =                       -309.1441133698767771
  Basis Set: (AUG-CC-PVTZ AUX)
    Blend: AUG-CC-PVTZ-RI
    Molecular point group: c1

    Geometry (in Angstrom), charge = 0, multiplicity = 1:

       Center              X                  Y                   Z               Mass
    ------------   -----------------  -----------------  -----------------  -----------------
         O           -2.396204589899    -1.052291043093    -0.015892016850    15.994914619570
         C           -1.505906589899     0.026526956907    -0.341537016850    12.000000000000
         C           -0.144341889899    -0.175768443093     0.245697083150    12.000000000000
         C            2.323979410101    -0.469453043093     0.291874983150    12.000000000000
         C            0.981534410101    -0.288163043093    -0.346500016850    12.000000000000
         C           -2.200472589899     1.287979956907     0.134421983150    12.000000000000
         C            3.248113410101     0.719299956907     0.020868983150    12.000000000000
         H           -1.305016389899     0.071721656907    -1.424156316850     1.007825032230
         H           -0.195010589899    -0.248831043093     1.405684983150     1.007825032230
         H            2.793153410101    -1.384720043093    -0.090917016850     1.007825032230
         H            2.198272410101    -0.605875043093     1.371730983150     1.007825032230
         H            0.970108410101    -0.215438043093    -1.436444016850     1.007825032230
         H           -2.338972589899     1.244811956907     1.217598983150     1.007825032230
         H           -1.605072589899     2.170058956907    -0.113869016850     1.007825032230
         H           -3.182436589899     1.372760956907    -0.336888016850     1.007825032230
         H            2.819790410101     1.637745956907     0.430235983150     1.007825032230
         H            3.392119410101     0.864813956907    -1.053598016850     1.007825032230
         H            4.231026410101     0.566130956907     0.474968983150     1.007825032230
         H           -1.931496589899    -1.875098043093    -0.249592016850     1.007825032230

  Basis Set: AUG-CC-PVTZ
    Blend: AUG-CC-PVTZ
  Basis Set: (AUG-CC-PVTZ AUX)
    Blend: AUG-CC-PVTZ-JKFIT
	 Reference Energy          =    -309.1441133698767771 [Eh]
	 Singles Energy            =      -0.0000000000000000 [Eh]
	 Same-Spin Energy          =      -0.3165297299125532 [Eh]
	 Opposite-Spin Energy      =      -1.1016942255204065 [Eh]
	 Correlation Energy        =      -1.4182239554329596 [Eh]
	 Total Energy              =    -310.5623373253097270 [Eh]

	 ================> DF-SCS-MP2 Energies <==================
	-----------------------------------------------------------
	 SCS Same-Spin Scale       =       0.3333333333333333 [-]
	 SCS Opposite-Spin Scale   =       1.2000000000000000 [-]
	 SCS Same-Spin Energy      =      -0.1055099099708511 [Eh]
	 SCS Opposite-Spin Energy  =      -1.3220330706244878 [Eh]
	 SCS Correlation Energy    =      -1.4275429805953390 [Eh]
	 SCS Total Energy          =    -310.5716563504720966 [Eh]
	-----------------------------------------------------------

  Dipole Moment: [D]
     X:     1.8998      Y:     0.0000      Z:    -0.5848     Total:     1.9877

*** Psi4 exiting successfully. Buy a developer a beer!
