                               Psi4 1.3.2 release

  ==> Input File <==

--------------------------------------------------------------------------
#psi4
#
memory 32 gb

molecule  {
0 1
  O       -2.3893901    -1.0465627    -0.0000322
  C       -1.5013820     0.0265210    -0.3499700
  C       -0.1728060    -0.1763470     0.3083280
  C        2.3285040    -0.4694590     0.2834420
  C        0.9860590    -0.2881690    -0.3549330
  C       -2.1959480     1.2879740     0.1259890
  C        3.2526380     0.7192940     0.0124360
  H       -1.3453055     0.0941396    -1.4387914
  H       -0.1904860    -0.2488370     1.3972520
  H        2.7976780    -1.3847260    -0.0993500
  H        2.2027970    -0.6058810     1.3632980
  H        0.9746330    -0.2154440    -1.4448770
  H       -2.3344480     1.2448060     1.2091660
  H       -1.6005480     2.1700530    -0.1223020
  H       -3.1779120     1.3727550    -0.3453210
  H        2.8243150     1.6377400     0.4218030
  H        3.3966440     0.8648080    -1.0620310
  H        4.2355510     0.5661250     0.4665360
  H       -1.9269720    -1.8751040    -0.2580250
units angstrom
no_reorient  #important for SAPT in psi4, default
symmetry c1  #important for SAPT in psi4, default
}

set PROPERTIES_ORIGIN ["COM"]
properties('MP2/aug-cc-pvtz', properties = ['dipole'])
--------------------------------------------------------------------------

    Molecular point group: c1
  Charge       = 0
  Multiplicity = 1
  Basis Set: AUG-CC-PVTZ
    Blend: AUG-CC-PVTZ
  Basis Set: (AUG-CC-PVTZ AUX)
    Blend: AUG-CC-PVTZ-JKFIT

    Orbital Energies [Eh]
    ---------------------

    Doubly Occupied:

       1A    -20.555710     2A    -11.281201     3A    -11.235747
       4A    -11.230407     5A    -11.225841     6A    -11.219463
       7A    -11.210323     8A     -1.351826     9A     -1.094341
      10A     -1.034659    11A     -0.974404    12A     -0.873156
      13A     -0.806736    14A     -0.760233    15A     -0.692444
      16A     -0.653734    17A     -0.610493    18A     -0.594373
      19A     -0.578648    20A     -0.538541    21A     -0.536007
      22A     -0.527264    23A     -0.520922    24A     -0.509446
      25A     -0.487147    26A     -0.472406    27A     -0.441148
      28A     -0.356303

  @DF-RHF Final Energy:  -309.15069120141357

   => Energetics <=

    Nuclear Repulsion Energy =            299.1982701141669736
    One-Electron Energy =               -1011.9520779589870472
    Two-Electron Energy =                 403.6031166434065653
    Total Energy =                       -309.1506912014135651
  Basis Set: (AUG-CC-PVTZ AUX)
    Blend: AUG-CC-PVTZ-RI
    Molecular point group: c1

    Geometry (in Angstrom), charge = 0, multiplicity = 1:

       Center              X                  Y                   Z               Mass
    ------------   -----------------  -----------------  -----------------  -----------------
         O           -2.389874258272    -1.047630267709    -0.003939031545    15.994914619570
         C           -1.501866158272     0.025453432291    -0.353876831545    12.000000000000
         C           -0.173290158272    -0.177414567709     0.304421168455    12.000000000000
         C            2.328019841728    -0.470526567709     0.279535168455    12.000000000000
         C            0.985574841728    -0.289236567709    -0.358839831545    12.000000000000
         C           -2.196432158272     1.286906432291     0.122082168455    12.000000000000
         C            3.252153841728     0.718226432291     0.008529168455    12.000000000000
         H           -1.345789658272     0.093072032291    -1.442698231545     1.007825032230
         H           -0.190970158272    -0.249904567709     1.393345168455     1.007825032230
         H            2.797193841728    -1.385793567709    -0.103256831545     1.007825032230
         H            2.202312841728    -0.606948567709     1.359391168455     1.007825032230
         H            0.974148841728    -0.216511567709    -1.448783831545     1.007825032230
         H           -2.334932158272     1.243738432291     1.205259168455     1.007825032230
         H           -1.601032158272     2.168985432291    -0.126208831545     1.007825032230
         H           -3.178396158272     1.371687432291    -0.349227831545     1.007825032230
         H            2.823830841728     1.636672432291     0.417896168455     1.007825032230
         H            3.396159841728     0.863740432291    -1.065937831545     1.007825032230
         H            4.235066841728     0.565057432291     0.462629168455     1.007825032230
         H           -1.927456158272    -1.876171567709    -0.261931831545     1.007825032230

  Basis Set: AUG-CC-PVTZ
    Blend: AUG-CC-PVTZ
  Basis Set: (AUG-CC-PVTZ AUX)
    Blend: AUG-CC-PVTZ-JKFIT
	 Reference Energy          =    -309.1506912014135651 [Eh]
	 Singles Energy            =      -0.0000000000000000 [Eh]
	 Same-Spin Energy          =      -0.3169258276092364 [Eh]
	 Opposite-Spin Energy      =      -1.1028929326931016 [Eh]
	 Correlation Energy        =      -1.4198187603023380 [Eh]
	 Total Energy              =    -310.5705099617159135 [Eh]

	 ================> DF-SCS-MP2 Energies <==================
	-----------------------------------------------------------
	 SCS Same-Spin Scale       =       0.3333333333333333 [-]
	 SCS Opposite-Spin Scale   =       1.2000000000000000 [-]
	 SCS Same-Spin Energy      =      -0.1056419425364121 [Eh]
	 SCS Opposite-Spin Energy  =      -1.3234715192317219 [Eh]
	 SCS Correlation Energy    =      -1.4291134617681340 [Eh]
	 SCS Total Energy          =    -310.5798046631816760 [Eh]
	-----------------------------------------------------------

  Dipole Moment: [D]
     X:     1.8873      Y:    -0.0095      Z:    -0.6007     Total:     1.9806

*** Psi4 exiting successfully. Buy a developer a beer!
