                               Psi4 1.3.2 release

  ==> Input File <==

--------------------------------------------------------------------------
#psi4
#
memory 32 gb

molecule  {
0 1
  O       -2.3916800    -1.0522970    -0.0243250
  C       -1.5013820     0.0265210    -0.3499700
  C       -0.1728060    -0.1763470     0.3083280
  C        2.3285040    -0.4694590     0.2834420
  C        0.9745716    -0.2852221    -0.3750886
  C       -2.1959480     1.2879740     0.1259890
  C        3.2526380     0.7192940     0.0124360
  H       -1.3570540     0.0791090    -1.4412390
  H       -0.2093571    -0.2462526     1.3969510
  H        2.7976780    -1.3847260    -0.0993500
  H        2.2027970    -0.6058810     1.3632980
  H        0.9746330    -0.2154440    -1.4448770
  H       -2.3344480     1.2448060     1.2091660
  H       -1.6005480     2.1700530    -0.1223020
  H       -3.1779120     1.3727550    -0.3453210
  H        2.8243150     1.6377400     0.4218030
  H        3.3966440     0.8648080    -1.0620310
  H        4.2355510     0.5661250     0.4665360
  H       -1.9269720    -1.8751040    -0.2580250
units angstrom
no_reorient  #important for SAPT in psi4, default
symmetry c1  #important for SAPT in psi4, default
}

set PROPERTIES_ORIGIN ["COM"]
properties('MP2/aug-cc-pvtz', properties = ['dipole'])
--------------------------------------------------------------------------

    Molecular point group: c1
  Charge       = 0
  Multiplicity = 1
  Basis Set: AUG-CC-PVTZ
    Blend: AUG-CC-PVTZ
  Basis Set: (AUG-CC-PVTZ AUX)
    Blend: AUG-CC-PVTZ-JKFIT

    Orbital Energies [Eh]
    ---------------------

    Doubly Occupied:

       1A    -20.553429     2A    -11.280179     3A    -11.235596
       4A    -11.231152     5A    -11.226724     6A    -11.219096
       7A    -11.210531     8A     -1.352672     9A     -1.092912
      10A     -1.034018    11A     -0.974545    12A     -0.871484
      13A     -0.806768    14A     -0.764230    15A     -0.692436
      16A     -0.654825    17A     -0.608230    18A     -0.594706
      19A     -0.578126    20A     -0.543028    21A     -0.534673
      22A     -0.527471    23A     -0.521263    24A     -0.509887
      25A     -0.489089    26A     -0.468828    27A     -0.439282
      28A     -0.357322

  @DF-RHF Final Energy:  -309.15144336981393

   => Energetics <=

    Nuclear Repulsion Energy =            299.0449331771764605
    One-Electron Energy =               -1011.6477414288176533
    Two-Electron Energy =                 403.4513648818272031
    Total Energy =                       -309.1514433698139328
  Basis Set: (AUG-CC-PVTZ AUX)
    Blend: AUG-CC-PVTZ-RI
    Molecular point group: c1

    Geometry (in Angstrom), charge = 0, multiplicity = 1:

       Center              X                  Y                   Z               Mass
    ------------   -----------------  -----------------  -----------------  -----------------
         O           -2.390112632791    -1.052676174797    -0.021905464611    15.994914619570
         C           -1.499814632791     0.026141825203    -0.347550464611    12.000000000000
         C           -0.171238632791    -0.176726174797     0.310747535389    12.000000000000
         C            2.330071367209    -0.469838174797     0.285861535389    12.000000000000
         C            0.976138967209    -0.285601274797    -0.372669064611    12.000000000000
         C           -2.194380632791     1.287594825203     0.128408535389    12.000000000000
         C            3.254205367209     0.718914825203     0.014855535389    12.000000000000
         H           -1.355486632791     0.078729825203    -1.438819464611     1.007825032230
         H           -0.207789732791    -0.246631774797     1.399370535389     1.007825032230
         H            2.799245367209    -1.385105174797    -0.096930464611     1.007825032230
         H            2.204364367209    -0.606260174797     1.365717535389     1.007825032230
         H            0.976200367209    -0.215823174797    -1.442457464611     1.007825032230
         H           -2.332880632791     1.244426825203     1.211585535389     1.007825032230
         H           -1.598980632791     2.169673825203    -0.119882464611     1.007825032230
         H           -3.176344632791     1.372375825203    -0.342901464611     1.007825032230
         H            2.825882367209     1.637360825203     0.424222535389     1.007825032230
         H            3.398211367209     0.864428825203    -1.059611464611     1.007825032230
         H            4.237118367209     0.565745825203     0.468955535389     1.007825032230
         H           -1.925404632791    -1.875483174797    -0.255605464611     1.007825032230

  Basis Set: AUG-CC-PVTZ
    Blend: AUG-CC-PVTZ
  Basis Set: (AUG-CC-PVTZ AUX)
    Blend: AUG-CC-PVTZ-JKFIT
	 Reference Energy          =    -309.1514433698139328 [Eh]
	 Singles Energy            =      -0.0000000000000000 [Eh]
	 Same-Spin Energy          =      -0.3165369093144028 [Eh]
	 Opposite-Spin Energy      =      -1.1022840580094211 [Eh]
	 Correlation Energy        =      -1.4188209673238239 [Eh]
	 Total Energy              =    -310.5702643371377576 [Eh]

	 ================> DF-SCS-MP2 Energies <==================
	-----------------------------------------------------------
	 SCS Same-Spin Scale       =       0.3333333333333333 [-]
	 SCS Opposite-Spin Scale   =       1.2000000000000000 [-]
	 SCS Same-Spin Energy      =      -0.1055123031048009 [Eh]
	 SCS Opposite-Spin Energy  =      -1.3227408696113052 [Eh]
	 SCS Correlation Energy    =      -1.4282531727161061 [Eh]
	 SCS Total Energy          =    -310.5796965425300300 [Eh]
	-----------------------------------------------------------

  Dipole Moment: [D]
     X:     1.8957      Y:     0.0067      Z:    -0.5617     Total:     1.9772

*** Psi4 exiting successfully. Buy a developer a beer!
