                               Psi4 1.3.2 release

  ==> Input File <==

--------------------------------------------------------------------------
#psi4
#
memory 32 gb

molecule  {
0 1
  O       -2.3916800    -1.0522970    -0.0243250
  C       -1.5013820     0.0265210    -0.3499700
  C       -0.1728060    -0.1763470     0.3083280
  C        2.3285040    -0.4694590     0.2834420
  C        0.9918280    -0.2870082    -0.3666013
  C       -2.1959480     1.2879740     0.1259890
  C        3.2526380     0.7192940     0.0124360
  H       -1.3570540     0.0791090    -1.4412390
  H       -0.1904860    -0.2488370     1.3972520
  H        2.7976780    -1.3847260    -0.0993500
  H        2.2122763    -0.6066836     1.3642578
  H        0.9746330    -0.2154440    -1.4448770
  H       -2.3344480     1.2448060     1.2091660
  H       -1.6005480     2.1700530    -0.1223020
  H       -3.1779120     1.3727550    -0.3453210
  H        2.8243150     1.6377400     0.4218030
  H        3.3966440     0.8648080    -1.0620310
  H        4.2355510     0.5661250     0.4665360
  H       -1.9269720    -1.8751040    -0.2580250
units angstrom
no_reorient  #important for SAPT in psi4, default
symmetry c1  #important for SAPT in psi4, default
}

set PROPERTIES_ORIGIN ["COM"]
properties('MP2/aug-cc-pvtz', properties = ['dipole'])
--------------------------------------------------------------------------

    Molecular point group: c1
  Charge       = 0
  Multiplicity = 1
  Basis Set: AUG-CC-PVTZ
    Blend: AUG-CC-PVTZ
  Basis Set: (AUG-CC-PVTZ AUX)
    Blend: AUG-CC-PVTZ-JKFIT

    Orbital Energies [Eh]
    ---------------------

    Doubly Occupied:

       1A    -20.553547     2A    -11.281006     3A    -11.236866
       4A    -11.230590     5A    -11.227814     6A    -11.219380
       7A    -11.210647     8A     -1.352775     9A     -1.093483
      10A     -1.034877    11A     -0.973537    12A     -0.873186
      13A     -0.806913    14A     -0.762755    15A     -0.692735
      16A     -0.654083    17A     -0.610045    18A     -0.595088
      19A     -0.578164    20A     -0.539755    21A     -0.535684
      22A     -0.527715    23A     -0.521644    24A     -0.510483
      25A     -0.488381    26A     -0.471314    27A     -0.440715
      28A     -0.354206

  @DF-RHF Final Energy:  -309.15118756411852

   => Energetics <=

    Nuclear Repulsion Energy =            299.0123801651012059
    One-Electron Energy =               -1011.5723612083642138
    Two-Electron Energy =                 403.4087934791444354
    Total Energy =                       -309.1511875641185156
  Basis Set: (AUG-CC-PVTZ AUX)
    Blend: AUG-CC-PVTZ-RI
    Molecular point group: c1

    Geometry (in Angstrom), charge = 0, multiplicity = 1:

       Center              X                  Y                   Z               Mass
    ------------   -----------------  -----------------  -----------------  -----------------
         O           -2.392467032159    -1.052427928243    -0.022935732237    15.994914619570
         C           -1.502169032159     0.026390071757    -0.348580732237    12.000000000000
         C           -0.173593032159    -0.176477928243     0.309717267763    12.000000000000
         C            2.327716967841    -0.469589928243     0.284831267763    12.000000000000
         C            0.991040967841    -0.287139128243    -0.365212032237    12.000000000000
         C           -2.196735032159     1.287843071757     0.127378267763    12.000000000000
         C            3.251850967841     0.719163071757     0.013825267763    12.000000000000
         H           -1.357841032159     0.078978071757    -1.439849732237     1.007825032230
         H           -0.191273032159    -0.248967928243     1.398641267763     1.007825032230
         H            2.796890967841    -1.384856928243    -0.097960732237     1.007825032230
         H            2.211489267841    -0.606814528243     1.365647067763     1.007825032230
         H            0.973845967841    -0.215574928243    -1.443487732237     1.007825032230
         H           -2.335235032159     1.244675071757     1.210555267763     1.007825032230
         H           -1.601335032159     2.169922071757    -0.120912732237     1.007825032230
         H           -3.178699032159     1.372624071757    -0.343931732237     1.007825032230
         H            2.823527967841     1.637609071757     0.423192267763     1.007825032230
         H            3.395856967841     0.864677071757    -1.060641732237     1.007825032230
         H            4.234763967841     0.565994071757     0.467925267763     1.007825032230
         H           -1.927759032159    -1.875234928243    -0.256635732237     1.007825032230

  Basis Set: AUG-CC-PVTZ
    Blend: AUG-CC-PVTZ
  Basis Set: (AUG-CC-PVTZ AUX)
    Blend: AUG-CC-PVTZ-JKFIT
	 Reference Energy          =    -309.1511875641185156 [Eh]
	 Singles Energy            =      -0.0000000000000000 [Eh]
	 Same-Spin Energy          =      -0.3168013715656219 [Eh]
	 Opposite-Spin Energy      =      -1.1026688674303671 [Eh]
	 Correlation Energy        =      -1.4194702389959890 [Eh]
	 Total Energy              =    -310.5706578031145000 [Eh]

	 ================> DF-SCS-MP2 Energies <==================
	-----------------------------------------------------------
	 SCS Same-Spin Scale       =       0.3333333333333333 [-]
	 SCS Opposite-Spin Scale   =       1.2000000000000000 [-]
	 SCS Same-Spin Energy      =      -0.1056004571885406 [Eh]
	 SCS Opposite-Spin Energy  =      -1.3232026409164404 [Eh]
	 SCS Correlation Energy    =      -1.4288030981049811 [Eh]
	 SCS Total Energy          =    -310.5799906622235085 [Eh]
	-----------------------------------------------------------

  Dipole Moment: [D]
     X:     1.9154      Y:     0.0041      Z:    -0.5570     Total:     1.9948

*** Psi4 exiting successfully. Buy a developer a beer!
