                               Psi4 1.3.2 release

  ==> Input File <==

--------------------------------------------------------------------------
#psi4
#
memory 32 gb

molecule  {
0 1
  O       -2.3916800    -1.0522970    -0.0243250
  C       -1.5013820     0.0265210    -0.3499700
  C       -0.1645037    -0.2421568     0.2666291
  C        2.3285040    -0.4694590     0.2834420
  C        0.9860590    -0.2881690    -0.3549330
  C       -2.2562286     1.2706567     0.0772950
  C        3.2526380     0.7192940     0.0124360
  H       -1.3570540     0.0791090    -1.4412390
  H       -0.1904860    -0.2488370     1.3972520
  H        2.7976780    -1.3847260    -0.0993500
  H        2.2027970    -0.6058810     1.3632980
  H        0.9746330    -0.2154440    -1.4448770
  H       -2.3344480     1.2448060     1.2091660
  H       -1.6005480     2.1700530    -0.1223020
  H       -3.1779120     1.3727550    -0.3453210
  H        2.8243150     1.6377400     0.4218030
  H        3.3966440     0.8648080    -1.0620310
  H        4.2355510     0.5661250     0.4665360
  H       -1.9269720    -1.8751040    -0.2580250
units angstrom
no_reorient  #important for SAPT in psi4, default
symmetry c1  #important for SAPT in psi4, default
}

set PROPERTIES_ORIGIN ["COM"]
properties('MP2/aug-cc-pvtz', properties = ['dipole'])
--------------------------------------------------------------------------

    Molecular point group: c1
  Charge       = 0
  Multiplicity = 1
  Basis Set: AUG-CC-PVTZ
    Blend: AUG-CC-PVTZ
  Basis Set: (AUG-CC-PVTZ AUX)
    Blend: AUG-CC-PVTZ-JKFIT

    Orbital Energies [Eh]
    ---------------------

    Doubly Occupied:

       1A    -20.551259     2A    -11.281713     3A    -11.233734
       4A    -11.231874     5A    -11.226340     6A    -11.220697
       7A    -11.213402     8A     -1.352238     9A     -1.099011
      10A     -1.033820    11A     -0.980442    12A     -0.875674
      13A     -0.811303    14A     -0.754527    15A     -0.691812
      16A     -0.656110    17A     -0.615460    18A     -0.594521
      19A     -0.584171    20A     -0.548142    21A     -0.535014
      22A     -0.520519    23A     -0.509815    24A     -0.506195
      25A     -0.488463    26A     -0.473555    27A     -0.435948
      28A     -0.366073

  @DF-RHF Final Energy:  -309.14099296003678

   => Energetics <=

    Nuclear Repulsion Energy =            299.2298494548690542
    One-Electron Energy =               -1011.9580163148177689
    Two-Electron Energy =                 403.5871738999119316
    Total Energy =                       -309.1409929600367832
  Basis Set: (AUG-CC-PVTZ AUX)
    Blend: AUG-CC-PVTZ-RI
    Molecular point group: c1

    Geometry (in Angstrom), charge = 0, multiplicity = 1:

       Center              X                  Y                   Z               Mass
    ------------   -----------------  -----------------  -----------------  -----------------
         O           -2.385448055306    -1.042330437134    -0.013487498581    15.994914619570
         C           -1.495150055306     0.036487562866    -0.339132498581    12.000000000000
         C           -0.158271755306    -0.232190237134     0.277466601419    12.000000000000
         C            2.334735944694    -0.459492437134     0.294279501419    12.000000000000
         C            0.992290944694    -0.278202437134    -0.344095498581    12.000000000000
         C           -2.249996655306     1.280623262866     0.088132501419    12.000000000000
         C            3.258869944694     0.729260562866     0.023273501419    12.000000000000
         H           -1.350822055306     0.089075562866    -1.430401498581     1.007825032230
         H           -0.184254055306    -0.238870437134     1.408089501419     1.007825032230
         H            2.803909944694    -1.374759437134    -0.088512498581     1.007825032230
         H            2.209028944694    -0.595914437134     1.374135501419     1.007825032230
         H            0.980864944694    -0.205477437134    -1.434039498581     1.007825032230
         H           -2.328216055306     1.254772562866     1.220003501419     1.007825032230
         H           -1.594316055306     2.180019562866    -0.111464498581     1.007825032230
         H           -3.171680055306     1.382721562866    -0.334483498581     1.007825032230
         H            2.830546944694     1.647706562866     0.432640501419     1.007825032230
         H            3.402875944694     0.874774562866    -1.051193498581     1.007825032230
         H            4.241782944694     0.576091562866     0.477373501419     1.007825032230
         H           -1.920740055306    -1.865137437134    -0.247187498581     1.007825032230

  Basis Set: AUG-CC-PVTZ
    Blend: AUG-CC-PVTZ
  Basis Set: (AUG-CC-PVTZ AUX)
    Blend: AUG-CC-PVTZ-JKFIT
	 Reference Energy          =    -309.1409929600367832 [Eh]
	 Singles Energy            =      -0.0000000000000000 [Eh]
	 Same-Spin Energy          =      -0.3166238834240310 [Eh]
	 Opposite-Spin Energy      =      -1.1023089743791945 [Eh]
	 Correlation Energy        =      -1.4189328578032256 [Eh]
	 Total Energy              =    -310.5599258178399964 [Eh]

	 ================> DF-SCS-MP2 Energies <==================
	-----------------------------------------------------------
	 SCS Same-Spin Scale       =       0.3333333333333333 [-]
	 SCS Opposite-Spin Scale   =       1.2000000000000000 [-]
	 SCS Same-Spin Energy      =      -0.1055412944746770 [Eh]
	 SCS Opposite-Spin Energy  =      -1.3227707692550335 [Eh]
	 SCS Correlation Energy    =      -1.4283120637297104 [Eh]
	 SCS Total Energy          =    -310.5693050237665034 [Eh]
	-----------------------------------------------------------

  Dipole Moment: [D]
     X:     1.9692      Y:     0.0804      Z:    -0.5904     Total:     2.0574

*** Psi4 exiting successfully. Buy a developer a beer!
