                               Psi4 1.3.2 release

  ==> Input File <==

--------------------------------------------------------------------------
#psi4
#
memory 32 gb

molecule  {
0 1
  O       -2.3916800    -1.0522970    -0.0243250
  C       -1.5013820     0.0265210    -0.3499700
  C       -0.1728060    -0.1763470     0.3083280
  C        2.3285040    -0.4694590     0.2834420
  C        0.9748281    -0.2905319    -0.3314514
  C       -2.1959480     1.2879740     0.1259890
  C        3.2526380     0.7192940     0.0124360
  H       -1.3570540     0.0791090    -1.4412390
  H       -0.1904860    -0.2488370     1.3972520
  H        2.7976780    -1.3847260    -0.0993500
  H        2.1838678    -0.6042448     1.3611318
  H        0.9746330    -0.2154440    -1.4448770
  H       -2.3344480     1.2448060     1.2091660
  H       -1.6005480     2.1700530    -0.1223020
  H       -3.1779120     1.3727550    -0.3453210
  H        2.8243150     1.6377400     0.4218030
  H        3.3966440     0.8648080    -1.0620310
  H        4.2355510     0.5661250     0.4665360
  H       -1.9269720    -1.8751040    -0.2580250
units angstrom
no_reorient  #important for SAPT in psi4, default
symmetry c1  #important for SAPT in psi4, default
}

set PROPERTIES_ORIGIN ["COM"]
properties('MP2/aug-cc-pvtz', properties = ['dipole'])
--------------------------------------------------------------------------

    Molecular point group: c1
  Charge       = 0
  Multiplicity = 1
  Basis Set: AUG-CC-PVTZ
    Blend: AUG-CC-PVTZ
  Basis Set: (AUG-CC-PVTZ AUX)
    Blend: AUG-CC-PVTZ-JKFIT

    Orbital Energies [Eh]
    ---------------------

    Doubly Occupied:

       1A    -20.553890     2A    -11.281460     3A    -11.234822
       4A    -11.230767     5A    -11.223193     6A    -11.220117
       7A    -11.210886     8A     -1.353096     9A     -1.097086
      10A     -1.035274    11A     -0.977006    12A     -0.873627
      13A     -0.808777    14A     -0.756761    15A     -0.693343
      16A     -0.654317    17A     -0.612460    18A     -0.593657
      19A     -0.578763    20A     -0.538269    21A     -0.535973
      22A     -0.528074    23A     -0.521799    24A     -0.510201
      25A     -0.486022    26A     -0.469982    27A     -0.440676
      28A     -0.361757

  @DF-RHF Final Energy:  -309.15155376846337

   => Energetics <=

    Nuclear Repulsion Energy =            299.4153586494986143
    One-Electron Energy =               -1012.3697162060351502
    Two-Electron Energy =                 403.8028037880731063
    Total Energy =                       -309.1515537684633728
  Basis Set: (AUG-CC-PVTZ AUX)
    Blend: AUG-CC-PVTZ-RI
    Molecular point group: c1

    Geometry (in Angstrom), charge = 0, multiplicity = 1:

       Center              X                  Y                   Z               Mass
    ------------   -----------------  -----------------  -----------------  -----------------
         O           -2.390142800452    -1.052030016485    -0.027118500700    15.994914619570
         C           -1.499844800452     0.026787983515    -0.352763500700    12.000000000000
         C           -0.171268800452    -0.176080016485     0.305534499300    12.000000000000
         C            2.330041199548    -0.469192016485     0.280648499300    12.000000000000
         C            0.976365299548    -0.290264916485    -0.334244900700    12.000000000000
         C           -2.194410800452     1.288240983515     0.123195499300    12.000000000000
         C            3.254175199548     0.719560983515     0.009642499300    12.000000000000
         H           -1.355516800452     0.079375983515    -1.444032500700     1.007825032230
         H           -0.188948800452    -0.248570016485     1.394458499300     1.007825032230
         H            2.799215199548    -1.384459016485    -0.102143500700     1.007825032230
         H            2.185404999548    -0.603977816485     1.358338299300     1.007825032230
         H            0.976170199548    -0.215177016485    -1.447670500700     1.007825032230
         H           -2.332910800452     1.245072983515     1.206372499300     1.007825032230
         H           -1.599010800452     2.170319983515    -0.125095500700     1.007825032230
         H           -3.176374800452     1.373021983515    -0.348114500700     1.007825032230
         H            2.825852199548     1.638006983515     0.419009499300     1.007825032230
         H            3.398181199548     0.865074983515    -1.064824500700     1.007825032230
         H            4.237088199548     0.566391983515     0.463742499300     1.007825032230
         H           -1.925434800452    -1.874837016485    -0.260818500700     1.007825032230

  Basis Set: AUG-CC-PVTZ
    Blend: AUG-CC-PVTZ
  Basis Set: (AUG-CC-PVTZ AUX)
    Blend: AUG-CC-PVTZ-JKFIT
	 Reference Energy          =    -309.1515537684633728 [Eh]
	 Singles Energy            =      -0.0000000000000000 [Eh]
	 Same-Spin Energy          =      -0.3165780177531294 [Eh]
	 Opposite-Spin Energy      =      -1.1020558386067201 [Eh]
	 Correlation Energy        =      -1.4186338563598495 [Eh]
	 Total Energy              =    -310.5701876248232338 [Eh]

	 ================> DF-SCS-MP2 Energies <==================
	-----------------------------------------------------------
	 SCS Same-Spin Scale       =       0.3333333333333333 [-]
	 SCS Opposite-Spin Scale   =       1.2000000000000000 [-]
	 SCS Same-Spin Energy      =      -0.1055260059177098 [Eh]
	 SCS Opposite-Spin Energy  =      -1.3224670063280641 [Eh]
	 SCS Correlation Energy    =      -1.4279930122457740 [Eh]
	 SCS Total Energy          =    -310.5795467807091654 [Eh]
	-----------------------------------------------------------

  Dipole Moment: [D]
     X:     1.9111      Y:     0.0135      Z:    -0.5438     Total:     1.9870

*** Psi4 exiting successfully. Buy a developer a beer!
