                               Psi4 1.3.2 release

  ==> Input File <==

--------------------------------------------------------------------------
#psi4
#
memory 32 gb

molecule  {
0 1
  O       -2.3916800    -1.0522970    -0.0243250
  C       -1.5238145     0.0259538    -0.3027990
  C       -0.1728060    -0.1763470     0.3083280
  C        2.3285040    -0.4694590     0.2834420
  C        0.9860590    -0.2881690    -0.3549330
  C       -2.1959480     1.2879740     0.1259890
  C        3.2526380     0.7192940     0.0124360
  H       -1.3570540     0.0791090    -1.4412390
  H       -0.2282976    -0.2442797     1.3962750
  H        2.7976780    -1.3847260    -0.0993500
  H        2.2027970    -0.6058810     1.3632980
  H        0.9746330    -0.2154440    -1.4448770
  H       -2.3344480     1.2448060     1.2091660
  H       -1.6005480     2.1700530    -0.1223020
  H       -3.1779120     1.3727550    -0.3453210
  H        2.8243150     1.6377400     0.4218030
  H        3.3966440     0.8648080    -1.0620310
  H        4.2355510     0.5661250     0.4665360
  H       -1.9269720    -1.8751040    -0.2580250
units angstrom
no_reorient  #important for SAPT in psi4, default
symmetry c1  #important for SAPT in psi4, default
}

set PROPERTIES_ORIGIN ["COM"]
properties('MP2/aug-cc-pvtz', properties = ['dipole'])
--------------------------------------------------------------------------

    Molecular point group: c1
  Charge       = 0
  Multiplicity = 1
  Basis Set: AUG-CC-PVTZ
    Blend: AUG-CC-PVTZ
  Basis Set: (AUG-CC-PVTZ AUX)
    Blend: AUG-CC-PVTZ-JKFIT

    Orbital Energies [Eh]
    ---------------------

    Doubly Occupied:

       1A    -20.556043     2A    -11.282648     3A    -11.237334
       4A    -11.230769     5A    -11.226176     6A    -11.219595
       7A    -11.210291     8A     -1.362497     9A     -1.094134
      10A     -1.037082    11A     -0.977082    12A     -0.873665
      13A     -0.806251    14A     -0.759368    15A     -0.697807
      16A     -0.654136    17A     -0.611315    18A     -0.593070
      19A     -0.584780    20A     -0.539827    21A     -0.536401
      22A     -0.534244    23A     -0.522257    24A     -0.511189
      25A     -0.487406    26A     -0.469805    27A     -0.429168
      28A     -0.357531

  @DF-RHF Final Energy:  -309.14863911700928

   => Energetics <=

    Nuclear Repulsion Energy =            299.4724321431397129
    One-Electron Energy =               -1012.4383980867089576
    Two-Electron Energy =                 403.8173268265599631
    Total Energy =                       -309.1486391170092816
  Basis Set: (AUG-CC-PVTZ AUX)
    Blend: AUG-CC-PVTZ-RI
    Molecular point group: c1

    Geometry (in Angstrom), charge = 0, multiplicity = 1:

       Center              X                  Y                   Z               Mass
    ------------   -----------------  -----------------  -----------------  -----------------
         O           -2.388609668549    -1.052274722726    -0.029970680592    15.994914619570
         C           -1.520744168549     0.025976077274    -0.308444680592    12.000000000000
         C           -0.169735668549    -0.176324722726     0.302682319408    12.000000000000
         C            2.331574331451    -0.469436722726     0.277796319408    12.000000000000
         C            0.989129331451    -0.288146722726    -0.360578680592    12.000000000000
         C           -2.192877668549     1.287996277274     0.120343319408    12.000000000000
         C            3.255708331451     0.719316277274     0.006790319408    12.000000000000
         H           -1.353983668549     0.079131277274    -1.446884680592     1.007825032230
         H           -0.225227268549    -0.244257422726     1.390629319408     1.007825032230
         H            2.800748331451    -1.384703722726    -0.104995680592     1.007825032230
         H            2.205867331451    -0.605858722726     1.357652319408     1.007825032230
         H            0.977703331451    -0.215421722726    -1.450522680592     1.007825032230
         H           -2.331377668549     1.244828277274     1.203520319408     1.007825032230
         H           -1.597477668549     2.170075277274    -0.127947680592     1.007825032230
         H           -3.174841668549     1.372777277274    -0.350966680592     1.007825032230
         H            2.827385331451     1.637762277274     0.416157319408     1.007825032230
         H            3.399714331451     0.864830277274    -1.067676680592     1.007825032230
         H            4.238621331451     0.566147277274     0.460890319408     1.007825032230
         H           -1.923901668549    -1.875081722726    -0.263670680592     1.007825032230

  Basis Set: AUG-CC-PVTZ
    Blend: AUG-CC-PVTZ
  Basis Set: (AUG-CC-PVTZ AUX)
    Blend: AUG-CC-PVTZ-JKFIT
	 Reference Energy          =    -309.1486391170092816 [Eh]
	 Singles Energy            =      -0.0000000000000000 [Eh]
	 Same-Spin Energy          =      -0.3168623149931831 [Eh]
	 Opposite-Spin Energy      =      -1.1023817861705696 [Eh]
	 Correlation Energy        =      -1.4192441011637527 [Eh]
	 Total Energy              =    -310.5678832181730513 [Eh]

	 ================> DF-SCS-MP2 Energies <==================
	-----------------------------------------------------------
	 SCS Same-Spin Scale       =       0.3333333333333333 [-]
	 SCS Opposite-Spin Scale   =       1.2000000000000000 [-]
	 SCS Same-Spin Energy      =      -0.1056207716643944 [Eh]
	 SCS Opposite-Spin Energy  =      -1.3228581434046836 [Eh]
	 SCS Correlation Energy    =      -1.4284789150690780 [Eh]
	 SCS Total Energy          =    -310.5771180320783742 [Eh]
	-----------------------------------------------------------

  Dipole Moment: [D]
     X:     1.8534      Y:    -0.0272      Z:    -0.4811     Total:     1.9150

*** Psi4 exiting successfully. Buy a developer a beer!
