                               Psi4 1.4a3.dev225

  ==> Input File <==

--------------------------------------------------------------------------
#psi4
#
memory 32 gb

molecule  {
0 1
  O        2.4733480    -1.0180220    -0.0592030
  C        1.5612870     0.0272190     0.3186860
  C        0.2241640    -0.1896060    -0.3216700
  C       -2.2699720    -0.5538550    -0.2568310
  C       -0.9183080    -0.3574540     0.3612590
  C        2.2155680     1.3228410    -0.1266610
  C       -3.2245640     0.5955150     0.0801580
  H        1.4362950     0.0398890     1.4137890
  H        0.2207557    -0.2235181    -1.4328826
  H       -2.7032570    -1.4976940     0.0989920
  H       -2.1635450    -0.6441890    -1.3439560
  H       -0.8861850    -0.3229140     1.4529890
  H        2.3348110     1.3198720    -1.2134080
  H        1.6025990     2.1805020     0.1626330
  H        3.2041590     1.4168830     0.3297970
  H       -2.8327200     1.5423190    -0.3012060
  H       -3.3500700     0.6943310     1.1626160
  H       -4.2121190     0.4296020    -0.3601990
  H        2.0333780    -1.8594800     0.1548220
units angstrom
no_reorient  #important for SAPT in psi4, default
symmetry c1  #important for SAPT in psi4, default
}

set PROPERTIES_ORIGIN ["COM"]
properties('MP2/aug-cc-pvtz', properties = ['dipole'])
--------------------------------------------------------------------------

    Molecular point group: c1
  Charge       = 0
  Multiplicity = 1
  Basis Set: AUG-CC-PVTZ
    Blend: AUG-CC-PVTZ
  Basis Set: (AUG-CC-PVTZ AUX)
    Blend: AUG-CC-PVTZ-JKFIT

    Orbital Energies [Eh]
    ---------------------

    Doubly Occupied:

       1A    -20.553683     2A    -11.281970     3A    -11.236969
       4A    -11.231110     5A    -11.229206     6A    -11.219993
       7A    -11.211144     8A     -1.352290     9A     -1.093623
      10A     -1.034354    11A     -0.974166    12A     -0.873006
      13A     -0.807383    14A     -0.758298    15A     -0.692251
      16A     -0.653735    17A     -0.610287    18A     -0.593239
      19A     -0.578004    20A     -0.537478    21A     -0.535956
      22A     -0.527785    23A     -0.521217    24A     -0.510115
      25A     -0.487464    26A     -0.471305    27A     -0.440671
      28A     -0.356673

  @DF-RHF Final Energy:  -309.15108135090168

   => Energetics <=

    Nuclear Repulsion Energy =            298.7390878522906519
    One-Electron Energy =               -1011.0335837483522710
    Two-Electron Energy =                 403.1434145451598852
    Total Energy =                       -309.1510813509016771
  Basis Set: (AUG-CC-PVTZ AUX)
    Blend: AUG-CC-PVTZ-RI
    Molecular point group: c1

    Geometry (in Angstrom), charge = 0, multiplicity = 1:

       Center              X                  Y                   Z               Mass
    ------------   -----------------  -----------------  -----------------  -----------------
         O            2.420778742300    -0.987573189323    -0.057577460397    15.994914619570
         C            1.508717742300     0.057667810677     0.320311539603    12.000000000000
         C            0.171594742300    -0.159157189323    -0.320044460397    12.000000000000
         C           -2.322541257700    -0.523406189323    -0.255205460397    12.000000000000
         C           -0.970877257700    -0.327005189323     0.362884539603    12.000000000000
         C            2.162998742300     1.353289810677    -0.125035460397    12.000000000000
         C           -3.277133257700     0.625963810677     0.081783539603    12.000000000000
         H            1.383725742300     0.070337810677     1.415414539603     1.007825032230
         H            0.168186442300    -0.193069289323    -1.431257060397     1.007825032230
         H           -2.755826257700    -1.467245189323     0.100617539603     1.007825032230
         H           -2.216114257700    -0.613740189323    -1.342330460397     1.007825032230
         H           -0.938754257700    -0.292465189323     1.454614539603     1.007825032230
         H            2.282241742300     1.350320810677    -1.211782460397     1.007825032230
         H            1.550029742300     2.210950810677     0.164258539603     1.007825032230
         H            3.151589742300     1.447331810677     0.331422539603     1.007825032230
         H           -2.885289257700     1.572767810677    -0.299580460397     1.007825032230
         H           -3.402639257700     0.724779810677     1.164241539603     1.007825032230
         H           -4.264688257700     0.460050810677    -0.358573460397     1.007825032230
         H            1.980808742300    -1.829031189323     0.156447539603     1.007825032230

  Basis Set: AUG-CC-PVTZ
    Blend: AUG-CC-PVTZ
  Basis Set: (AUG-CC-PVTZ AUX)
    Blend: AUG-CC-PVTZ-JKFIT
	 Reference Energy          =    -309.1510813509016771 [Eh]
	 Singles Energy            =      -0.0000000000000000 [Eh]
	 Same-Spin Energy          =      -0.3167019902193506 [Eh]
	 Opposite-Spin Energy      =      -1.1026544172001624 [Eh]
	 Correlation Energy        =      -1.4193564074195131 [Eh]
	 Total Energy              =    -310.5704377583211908 [Eh]

	 ================> DF-SCS-MP2 Energies <==================
	-----------------------------------------------------------
	 SCS Same-Spin Scale       =       0.3333333333333333 [-]
	 SCS Opposite-Spin Scale   =       1.2000000000000000 [-]
	 SCS Same-Spin Energy      =      -0.1055673300731169 [Eh]
	 SCS Opposite-Spin Energy  =      -1.3231853006401948 [Eh]
	 SCS Correlation Energy    =      -1.4287526307133116 [Eh]
	 SCS Total Energy          =    -310.5798339816149678 [Eh]
	-----------------------------------------------------------

  Dipole Moment: [D]
     X:    -1.9062      Y:    -0.0568      Z:     0.5971     Total:     1.9983

*** Psi4 exiting successfully. Buy a developer a beer!
