                               Psi4 1.3.2 release

  ==> Input File <==

--------------------------------------------------------------------------
#psi4
#
memory 32 gb

molecule  {
0 1
  O       -2.3916800    -1.0522970    -0.0243250
  C       -1.5013820     0.0265210    -0.3499700
  C       -0.1728060    -0.1763470     0.3083280
  C        2.3285040    -0.4694590     0.2834420
  C        0.9640095    -0.2929493    -0.3077825
  C       -2.1959480     1.2879740     0.1259890
  C        3.2526380     0.7192940     0.0124360
  H       -1.3570540     0.0791090    -1.4412390
  H       -0.1904860    -0.2488370     1.3972520
  H        2.7976780    -1.3847260    -0.0993500
  H        2.1649826    -0.6025675     1.3586374
  H        0.9746330    -0.2154440    -1.4448770
  H       -2.3344480     1.2448060     1.2091660
  H       -1.6005480     2.1700530    -0.1223020
  H       -3.1779120     1.3727550    -0.3453210
  H        2.8243150     1.6377400     0.4218030
  H        3.3966440     0.8648080    -1.0620310
  H        4.2355510     0.5661250     0.4665360
  H       -1.9269720    -1.8751040    -0.2580250
units angstrom
no_reorient  #important for SAPT in psi4, default
symmetry c1  #important for SAPT in psi4, default
}

set PROPERTIES_ORIGIN ["COM"]
properties('MP2/aug-cc-pvtz', properties = ['dipole'])
--------------------------------------------------------------------------

    Molecular point group: c1
  Charge       = 0
  Multiplicity = 1
  Basis Set: AUG-CC-PVTZ
    Blend: AUG-CC-PVTZ
  Basis Set: (AUG-CC-PVTZ AUX)
    Blend: AUG-CC-PVTZ-JKFIT

    Orbital Energies [Eh]
    ---------------------

    Doubly Occupied:

       1A    -20.554162     2A    -11.281829     3A    -11.233634
       4A    -11.231042     5A    -11.220644     6A    -11.220220
       7A    -11.211078     8A     -1.353352     9A     -1.099845
      10A     -1.035599    11A     -0.979390    12A     -0.874063
      13A     -0.810317    14A     -0.752898    15A     -0.693850
      16A     -0.654216    17A     -0.614424    18A     -0.592823
      19A     -0.579224    20A     -0.539430    21A     -0.534609
      22A     -0.528275    23A     -0.521884    24A     -0.510191
      25A     -0.485966    26A     -0.466689    27A     -0.440196
      28A     -0.366927

  @DF-RHF Final Energy:  -309.14905460400672

   => Energetics <=

    Nuclear Repulsion Energy =            299.6873734535633389
    One-Electron Energy =               -1012.8993022583937318
    Two-Electron Energy =                 404.0628742008237282
    Total Energy =                       -309.1490546040067215
  Basis Set: (AUG-CC-PVTZ AUX)
    Blend: AUG-CC-PVTZ-RI
    Molecular point group: c1

    Geometry (in Angstrom), charge = 0, multiplicity = 1:

       Center              X                  Y                   Z               Mass
    ------------   -----------------  -----------------  -----------------  -----------------
         O           -2.388655559572    -1.051757075147    -0.029931131474    15.994914619570
         C           -1.498357559572     0.027060924853    -0.355576131474    12.000000000000
         C           -0.169781559572    -0.175807075147     0.302721868526    12.000000000000
         C            2.331528440428    -0.468919075147     0.277835868526    12.000000000000
         C            0.967033940428    -0.292409375147    -0.313388631474    12.000000000000
         C           -2.192923559572     1.288513924853     0.120382868526    12.000000000000
         C            3.255662440428     0.719833924853     0.006829868526    12.000000000000
         H           -1.354029559572     0.079648924853    -1.446845131474     1.007825032230
         H           -0.187461559572    -0.248297075147     1.391645868526     1.007825032230
         H            2.800702440428    -1.384186075147    -0.104956131474     1.007825032230
         H            2.168007040428    -0.602027575147     1.353031268526     1.007825032230
         H            0.977657440428    -0.214904075147    -1.450483131474     1.007825032230
         H           -2.331423559572     1.245345924853     1.203559868526     1.007825032230
         H           -1.597523559572     2.170592924853    -0.127908131474     1.007825032230
         H           -3.174887559572     1.373294924853    -0.350927131474     1.007825032230
         H            2.827339440428     1.638279924853     0.416196868526     1.007825032230
         H            3.399668440428     0.865347924853    -1.067637131474     1.007825032230
         H            4.238575440428     0.566664924853     0.460929868526     1.007825032230
         H           -1.923947559572    -1.874564075147    -0.263631131474     1.007825032230

  Basis Set: AUG-CC-PVTZ
    Blend: AUG-CC-PVTZ
  Basis Set: (AUG-CC-PVTZ AUX)
    Blend: AUG-CC-PVTZ-JKFIT
	 Reference Energy          =    -309.1490546040067215 [Eh]
	 Singles Energy            =      -0.0000000000000000 [Eh]
	 Same-Spin Energy          =      -0.3165008736758819 [Eh]
	 Opposite-Spin Energy      =      -1.1018037722914071 [Eh]
	 Correlation Energy        =      -1.4183046459672890 [Eh]
	 Total Energy              =    -310.5673592499740039 [Eh]

	 ================> DF-SCS-MP2 Energies <==================
	-----------------------------------------------------------
	 SCS Same-Spin Scale       =       0.3333333333333333 [-]
	 SCS Opposite-Spin Scale   =       1.2000000000000000 [-]
	 SCS Same-Spin Energy      =      -0.1055002912252939 [Eh]
	 SCS Opposite-Spin Energy  =      -1.3221645267496884 [Eh]
	 SCS Correlation Energy    =      -1.4276648179749825 [Eh]
	 SCS Total Energy          =    -310.5767194219816929 [Eh]
	-----------------------------------------------------------

  Dipole Moment: [D]
     X:     1.9073      Y:     0.0197      Z:    -0.5302     Total:     1.9797

*** Psi4 exiting successfully. Buy a developer a beer!
