                               Psi4 1.3.2 release

  ==> Input File <==

--------------------------------------------------------------------------
#psi4
#
memory 32 gb

molecule  {
0 1
  O       -2.3916800    -1.0522970    -0.0243250
  C       -1.5342481     0.0269390    -0.2788483
  C       -0.1728060    -0.1763470     0.3083280
  C        2.3285040    -0.4694590     0.2834420
  C        1.0185562    -0.2955328    -0.2932018
  C       -2.1959480     1.2879740     0.1259890
  C        3.2526380     0.7192940     0.0124360
  H       -1.3570540     0.0791090    -1.4412390
  H       -0.1904860    -0.2488370     1.3972520
  H        2.7976780    -1.3847260    -0.0993500
  H        2.2027970    -0.6058810     1.3632980
  H        0.9746330    -0.2154440    -1.4448770
  H       -2.3344480     1.2448060     1.2091660
  H       -1.6005480     2.1700530    -0.1223020
  H       -3.1779120     1.3727550    -0.3453210
  H        2.8243150     1.6377400     0.4218030
  H        3.3966440     0.8648080    -1.0620310
  H        4.2355510     0.5661250     0.4665360
  H       -1.9269720    -1.8751040    -0.2580250
units angstrom
no_reorient  #important for SAPT in psi4, default
symmetry c1  #important for SAPT in psi4, default
}

set PROPERTIES_ORIGIN ["COM"]
properties('MP2/aug-cc-pvtz', properties = ['dipole'])
--------------------------------------------------------------------------

    Molecular point group: c1
  Charge       = 0
  Multiplicity = 1
  Basis Set: AUG-CC-PVTZ
    Blend: AUG-CC-PVTZ
  Basis Set: (AUG-CC-PVTZ AUX)
    Blend: AUG-CC-PVTZ-JKFIT

    Orbital Energies [Eh]
    ---------------------

    Doubly Occupied:

       1A    -20.557875     2A    -11.286801     3A    -11.240333
       4A    -11.229283     5A    -11.225655     6A    -11.221271
       7A    -11.210846     8A     -1.367475     9A     -1.100588
      10A     -1.041368    11A     -0.978878    12A     -0.880018
      13A     -0.807973    14A     -0.750267    15A     -0.701445
      16A     -0.652998    17A     -0.620105    18A     -0.591701
      19A     -0.588740    20A     -0.542889    21A     -0.538798
      22A     -0.531168    23A     -0.522666    24A     -0.512758
      25A     -0.483155    26A     -0.471977    27A     -0.423983
      28A     -0.356375

  @DF-RHF Final Energy:  -309.13863143272039

   => Energetics <=

    Nuclear Repulsion Energy =            299.9570727518114950
    One-Electron Energy =               -1013.3166353441364436
    Two-Electron Energy =                 404.2209311596045040
    Total Energy =                       -309.1386314327203877
  Basis Set: (AUG-CC-PVTZ AUX)
    Blend: AUG-CC-PVTZ-RI
    Molecular point group: c1

    Geometry (in Angstrom), charge = 0, multiplicity = 1:

       Center              X                  Y                   Z               Mass
    ------------   -----------------  -----------------  -----------------  -----------------
         O           -2.391635687760    -1.051464081088    -0.040253222602    15.994914619570
         C           -1.534203787760     0.027771918912    -0.294776522602    12.000000000000
         C           -0.172761687760    -0.175514081088     0.292399777398    12.000000000000
         C            2.328548312240    -0.468626081088     0.267513777398    12.000000000000
         C            1.018600512240    -0.294699881088    -0.309130022602    12.000000000000
         C           -2.195903687760     1.288806918912     0.110060777398    12.000000000000
         C            3.252682312240     0.720126918912    -0.003492222602    12.000000000000
         H           -1.357009687760     0.079941918912    -1.457167222602     1.007825032230
         H           -0.190441687760    -0.248004081088     1.381323777398     1.007825032230
         H            2.797722312240    -1.383893081088    -0.115278222602     1.007825032230
         H            2.202841312240    -0.605048081088     1.347369777398     1.007825032230
         H            0.974677312240    -0.214611081088    -1.460805222602     1.007825032230
         H           -2.334403687760     1.245638918912     1.193237777398     1.007825032230
         H           -1.600503687760     2.170885918912    -0.138230222602     1.007825032230
         H           -3.177867687760     1.373587918912    -0.361249222602     1.007825032230
         H            2.824359312240     1.638572918912     0.405874777398     1.007825032230
         H            3.396688312240     0.865640918912    -1.077959222602     1.007825032230
         H            4.235595312240     0.566957918912     0.450607777398     1.007825032230
         H           -1.926927687760    -1.874271081088    -0.273953222602     1.007825032230

  Basis Set: AUG-CC-PVTZ
    Blend: AUG-CC-PVTZ
  Basis Set: (AUG-CC-PVTZ AUX)
    Blend: AUG-CC-PVTZ-JKFIT
	 Reference Energy          =    -309.1386314327203877 [Eh]
	 Singles Energy            =      -0.0000000000000000 [Eh]
	 Same-Spin Energy          =      -0.3177444124818523 [Eh]
	 Opposite-Spin Energy      =      -1.1034619738964433 [Eh]
	 Correlation Energy        =      -1.4212063863782955 [Eh]
	 Total Energy              =    -310.5598378190986750 [Eh]

	 ================> DF-SCS-MP2 Energies <==================
	-----------------------------------------------------------
	 SCS Same-Spin Scale       =       0.3333333333333333 [-]
	 SCS Opposite-Spin Scale   =       1.2000000000000000 [-]
	 SCS Same-Spin Energy      =      -0.1059148041606174 [Eh]
	 SCS Opposite-Spin Energy  =      -1.3241543686757320 [Eh]
	 SCS Correlation Energy    =      -1.4300691728363495 [Eh]
	 SCS Total Energy          =    -310.5687006055567281 [Eh]
	-----------------------------------------------------------

  Dipole Moment: [D]
     X:     1.8760      Y:    -0.0399      Z:    -0.4002     Total:     1.9186

*** Psi4 exiting successfully. Buy a developer a beer!
