                               Psi4 1.4a3.dev225

  ==> Input File <==

--------------------------------------------------------------------------
#psi4
#
memory 32 gb

molecule  {
0 1
  O        2.4733480    -1.0180220    -0.0592030
  C        1.5612870     0.0272190     0.3186860
  C        0.2241640    -0.1896060    -0.3216700
  C       -2.2699720    -0.5538550    -0.2568310
  C       -0.9183080    -0.3574540     0.3612590
  C        2.2155680     1.3228410    -0.1266610
  C       -3.2245640     0.5955150     0.0801580
  H        1.4362950     0.0398890     1.4137890
  H        0.2208170    -0.2229080    -1.4128920
  H       -2.7032570    -1.4976940     0.0989920
  H       -2.1635450    -0.6441890    -1.3439560
  H       -0.8867729    -0.3235462     1.4330076
  H        2.3348110     1.3198720    -1.2134080
  H        1.6025990     2.1805020     0.1626330
  H        3.2041590     1.4168830     0.3297970
  H       -2.8327200     1.5423190    -0.3012060
  H       -3.3500700     0.6943310     1.1626160
  H       -4.2121190     0.4296020    -0.3601990
  H        2.0333780    -1.8594800     0.1548220
units angstrom
no_reorient  #important for SAPT in psi4, default
symmetry c1  #important for SAPT in psi4, default
}

set PROPERTIES_ORIGIN ["COM"]
properties('MP2/aug-cc-pvtz', properties = ['dipole'])
--------------------------------------------------------------------------

    Molecular point group: c1
  Charge       = 0
  Multiplicity = 1
  Basis Set: AUG-CC-PVTZ
    Blend: AUG-CC-PVTZ
  Basis Set: (AUG-CC-PVTZ AUX)
    Blend: AUG-CC-PVTZ-JKFIT

    Orbital Energies [Eh]
    ---------------------

    Doubly Occupied:

       1A    -20.553645     2A    -11.281698     3A    -11.234377
       4A    -11.230829     5A    -11.226676     6A    -11.219962
       7A    -11.211123     8A     -1.352250     9A     -1.094311
      10A     -1.034383    11A     -0.974542    12A     -0.873259
      13A     -0.807522    14A     -0.762951    15A     -0.692381
      16A     -0.654629    17A     -0.610291    18A     -0.594765
      19A     -0.577932    20A     -0.539930    21A     -0.535916
      22A     -0.527776    23A     -0.521547    24A     -0.510319
      25A     -0.487960    26A     -0.471389    27A     -0.440721
      28A     -0.356366

  @DF-RHF Final Energy:  -309.15179636460039

   => Energetics <=

    Nuclear Repulsion Energy =            298.9251326835520217
    One-Electron Energy =               -1011.3949579040572644
    Two-Electron Energy =                 403.3180288559049131
    Total Energy =                       -309.1517963646003864
  Basis Set: (AUG-CC-PVTZ AUX)
    Blend: AUG-CC-PVTZ-RI
    Molecular point group: c1

    Geometry (in Angstrom), charge = 0, multiplicity = 1:

       Center              X                  Y                   Z               Mass
    ------------   -----------------  -----------------  -----------------  -----------------
         O            2.420784044797    -0.987572966791    -0.057577553034    15.994914619570
         C            1.508723044797     0.057668033209     0.320311446966    12.000000000000
         C            0.171600044797    -0.159156966791    -0.320044553034    12.000000000000
         C           -2.322535955203    -0.523405966791    -0.255205553034    12.000000000000
         C           -0.970871955203    -0.327004966791     0.362884446966    12.000000000000
         C            2.163004044797     1.353290033209    -0.125035553034    12.000000000000
         C           -3.277127955203     0.625964033209     0.081783446966    12.000000000000
         H            1.383731044797     0.070338033209     1.415414446966     1.007825032230
         H            0.168253044797    -0.192458966791    -1.411266553034     1.007825032230
         H           -2.755820955203    -1.467244966791     0.100617446966     1.007825032230
         H           -2.216108955203    -0.613739966791    -1.342330553034     1.007825032230
         H           -0.939336855203    -0.293097166791     1.434633046966     1.007825032230
         H            2.282247044797     1.350321033209    -1.211782553034     1.007825032230
         H            1.550035044797     2.210951033209     0.164258446966     1.007825032230
         H            3.151595044797     1.447332033209     0.331422446966     1.007825032230
         H           -2.885283955203     1.572768033209    -0.299580553034     1.007825032230
         H           -3.402633955203     0.724780033209     1.164241446966     1.007825032230
         H           -4.264682955203     0.460051033209    -0.358573553034     1.007825032230
         H            1.980814044797    -1.829030966791     0.156447446966     1.007825032230

  Basis Set: AUG-CC-PVTZ
    Blend: AUG-CC-PVTZ
  Basis Set: (AUG-CC-PVTZ AUX)
    Blend: AUG-CC-PVTZ-JKFIT
	 Reference Energy          =    -309.1517963646003864 [Eh]
	 Singles Energy            =      -0.0000000000000000 [Eh]
	 Same-Spin Energy          =      -0.3166195119903884 [Eh]
	 Opposite-Spin Energy      =      -1.1023676722507048 [Eh]
	 Correlation Energy        =      -1.4189871842410930 [Eh]
	 Total Energy              =    -310.5707835488414617 [Eh]

	 ================> DF-SCS-MP2 Energies <==================
	-----------------------------------------------------------
	 SCS Same-Spin Scale       =       0.3333333333333333 [-]
	 SCS Opposite-Spin Scale   =       1.2000000000000000 [-]
	 SCS Same-Spin Energy      =      -0.1055398373301295 [Eh]
	 SCS Opposite-Spin Energy  =      -1.3228412067008457 [Eh]
	 SCS Correlation Energy    =      -1.4283810440309752 [Eh]
	 SCS Total Energy          =    -310.5801774086313571 [Eh]
	-----------------------------------------------------------

  Dipole Moment: [D]
     X:    -1.9059      Y:    -0.0570      Z:     0.5990     Total:     1.9987

*** Psi4 exiting successfully. Buy a developer a beer!
