                               Psi4 1.4a3.dev225

  ==> Input File <==

--------------------------------------------------------------------------
#psi4
#
memory 32 gb

molecule  {
0 1
  O        2.4733480    -1.0180220    -0.0592030
  C        1.5612870     0.0272190     0.3186860
  C        0.2241640    -0.1896060    -0.3216700
  C       -2.2699720    -0.5538550    -0.2568310
  C       -0.8757283    -0.3511983     0.3358064
  C        2.2155680     1.3228410    -0.1266610
  C       -3.2245640     0.5955150     0.0801580
  H        1.4362950     0.0398890     1.4137890
  H        0.2208170    -0.2229080    -1.4128920
  H       -2.7032570    -1.4976940     0.0989920
  H       -2.1635450    -0.6441890    -1.3439560
  H       -0.8861850    -0.3229140     1.4529890
  H        2.3348110     1.3198720    -1.2134080
  H        1.6025990     2.1805020     0.1626330
  H        3.2041590     1.4168830     0.3297970
  H       -2.8327200     1.5423190    -0.3012060
  H       -3.3500700     0.6943310     1.1626160
  H       -4.2121190     0.4296020    -0.3601990
  H        2.0333780    -1.8594800     0.1548220
units angstrom
no_reorient  #important for SAPT in psi4, default
symmetry c1  #important for SAPT in psi4, default
}

set PROPERTIES_ORIGIN ["COM"]
properties('MP2/aug-cc-pvtz', properties = ['dipole'])
--------------------------------------------------------------------------

    Molecular point group: c1
  Charge       = 0
  Multiplicity = 1
  Basis Set: AUG-CC-PVTZ
    Blend: AUG-CC-PVTZ
  Basis Set: (AUG-CC-PVTZ AUX)
    Blend: AUG-CC-PVTZ-JKFIT

    Orbital Energies [Eh]
    ---------------------

    Doubly Occupied:

       1A    -20.553862     2A    -11.281485     3A    -11.232709
       4A    -11.232008     5A    -11.219912     6A    -11.219732
       7A    -11.211208     8A     -1.352484     9A     -1.097755
      10A     -1.033380    11A     -0.979729    12A     -0.870131
      13A     -0.809581    14A     -0.756098    15A     -0.692960
      16A     -0.654062    17A     -0.610664    18A     -0.593678
      19A     -0.578601    20A     -0.540197    21A     -0.534767
      22A     -0.527713    23A     -0.520904    24A     -0.509263
      25A     -0.486747    26A     -0.465680    27A     -0.438504
      28A     -0.369471

  @DF-RHF Final Energy:  -309.15003462207130

   => Energetics <=

    Nuclear Repulsion Energy =            299.2817679846757528
    One-Electron Energy =               -1012.1170374319920029
    Two-Electron Energy =                 403.6852348252449474
    Total Energy =                       -309.1500346220713027
  Basis Set: (AUG-CC-PVTZ AUX)
    Blend: AUG-CC-PVTZ-RI
    Molecular point group: c1

    Geometry (in Angstrom), charge = 0, multiplicity = 1:

       Center              X                  Y                   Z               Mass
    ------------   -----------------  -----------------  -----------------  -----------------
         O            2.415673095084    -0.988329350479    -0.054727150171    15.994914619570
         C            1.503612095084     0.056911649521     0.323161849829    12.000000000000
         C            0.166489095084    -0.159913350479    -0.317194150171    12.000000000000
         C           -2.327646904916    -0.524162350479    -0.252355150171    12.000000000000
         C           -0.933403204916    -0.321505650479     0.340282249829    12.000000000000
         C            2.157893095084     1.352533649521    -0.122185150171    12.000000000000
         C           -3.282238904916     0.625207649521     0.084633849829    12.000000000000
         H            1.378620095084     0.069581649521     1.418264849829     1.007825032230
         H            0.163142095084    -0.193215350479    -1.408416150171     1.007825032230
         H           -2.760931904916    -1.468001350479     0.103467849829     1.007825032230
         H           -2.221219904916    -0.614496350479    -1.339480150171     1.007825032230
         H           -0.943859904916    -0.293221350479     1.457464849829     1.007825032230
         H            2.277136095084     1.349564649521    -1.208932150171     1.007825032230
         H            1.544924095084     2.210194649521     0.167108849829     1.007825032230
         H            3.146484095084     1.446575649521     0.334272849829     1.007825032230
         H           -2.890394904916     1.572011649521    -0.296730150171     1.007825032230
         H           -3.407744904916     0.724023649521     1.167091849829     1.007825032230
         H           -4.269793904916     0.459294649521    -0.355723150171     1.007825032230
         H            1.975703095084    -1.829787350479     0.159297849829     1.007825032230

  Basis Set: AUG-CC-PVTZ
    Blend: AUG-CC-PVTZ
  Basis Set: (AUG-CC-PVTZ AUX)
    Blend: AUG-CC-PVTZ-JKFIT
	 Reference Energy          =    -309.1500346220713027 [Eh]
	 Singles Energy            =      -0.0000000000000000 [Eh]
	 Same-Spin Energy          =      -0.3160615822225911 [Eh]
	 Opposite-Spin Energy      =      -1.1013209459849422 [Eh]
	 Correlation Energy        =      -1.4173825282075332 [Eh]
	 Total Energy              =    -310.5674171502788568 [Eh]

	 ================> DF-SCS-MP2 Energies <==================
	-----------------------------------------------------------
	 SCS Same-Spin Scale       =       0.3333333333333333 [-]
	 SCS Opposite-Spin Scale   =       1.2000000000000000 [-]
	 SCS Same-Spin Energy      =      -0.1053538607408637 [Eh]
	 SCS Opposite-Spin Energy  =      -1.3215851351819305 [Eh]
	 SCS Correlation Energy    =      -1.4269389959227943 [Eh]
	 SCS Total Energy          =    -310.5769736179940992 [Eh]
	-----------------------------------------------------------

  Dipole Moment: [D]
     X:    -1.8783      Y:    -0.0535      Z:     0.5745     Total:     1.9649

*** Psi4 exiting successfully. Buy a developer a beer!
