                               Psi4 1.3.2 release

  ==> Input File <==

--------------------------------------------------------------------------
#psi4
#
memory 32 gb

molecule  {
0 1
  O       -2.3916800    -1.0522970    -0.0243250
  C       -1.5099631     0.0347355    -0.3459755
  C       -0.1728060    -0.1763470     0.3083280
  C        2.3285040    -0.4694590     0.2834420
  C        0.9860590    -0.2881690    -0.3549330
  C       -2.1959480     1.2879740     0.1259890
  C        3.2526380     0.7192940     0.0124360
  H       -1.3570540     0.0791090    -1.4412390
  H       -0.1904860    -0.2488370     1.3972520
  H        2.7976780    -1.3847260    -0.0993500
  H        2.2027970    -0.6058810     1.3632980
  H        0.9746330    -0.2154440    -1.4448770
  H       -2.3344480     1.2448060     1.2091660
  H       -1.6005480     2.1700530    -0.1223020
  H       -3.1779120     1.3727550    -0.3453210
  H        2.8243150     1.6377400     0.4218030
  H        3.3966440     0.8648080    -1.0620310
  H        4.2355510     0.5661250     0.4665360
  H       -1.9336866    -1.8795976    -0.2554015
units angstrom
no_reorient  #important for SAPT in psi4, default
symmetry c1  #important for SAPT in psi4, default
}

set PROPERTIES_ORIGIN ["COM"]
properties('MP2/aug-cc-pvtz', properties = ['dipole'])
--------------------------------------------------------------------------

    Molecular point group: c1
  Charge       = 0
  Multiplicity = 1
  Basis Set: AUG-CC-PVTZ
    Blend: AUG-CC-PVTZ
  Basis Set: (AUG-CC-PVTZ AUX)
    Blend: AUG-CC-PVTZ-JKFIT

    Orbital Energies [Eh]
    ---------------------

    Doubly Occupied:

       1A    -20.553180     2A    -11.281660     3A    -11.235835
       4A    -11.230446     5A    -11.226328     6A    -11.219486
       7A    -11.210646     8A     -1.352278     9A     -1.094061
      10A     -1.035814    11A     -0.975907    12A     -0.872710
      13A     -0.807205    14A     -0.760131    15A     -0.693402
      16A     -0.653670    17A     -0.610687    18A     -0.594367
      19A     -0.578471    20A     -0.538749    21A     -0.536094
      22A     -0.529274    23A     -0.521447    24A     -0.510625
      25A     -0.487221    26A     -0.471758    27A     -0.438685
      28A     -0.356660

  @DF-RHF Final Energy:  -309.15181679920994

   => Energetics <=

    Nuclear Repulsion Energy =            299.1181288880949296
    One-Electron Energy =               -1011.7862966982614807
    Two-Electron Energy =                 403.5163510109566118
    Total Energy =                       -309.1518167992099393
  Basis Set: (AUG-CC-PVTZ AUX)
    Blend: AUG-CC-PVTZ-RI
    Molecular point group: c1

    Geometry (in Angstrom), charge = 0, multiplicity = 1:

       Center              X                  Y                   Z               Mass
    ------------   -----------------  -----------------  -----------------  -----------------
         O           -2.390583486852    -1.053236455328    -0.024830352714    15.994914619570
         C           -1.508866586852     0.033796044672    -0.346480852714    12.000000000000
         C           -0.171709486852    -0.177286455328     0.307822647286    12.000000000000
         C            2.329600513148    -0.470398455328     0.282936647286    12.000000000000
         C            0.987155513148    -0.289108455328    -0.355438352714    12.000000000000
         C           -2.194851486852     1.287034544672     0.125483647286    12.000000000000
         C            3.253734513148     0.718354544672     0.011930647286    12.000000000000
         H           -1.355957486852     0.078169544672    -1.441744352714     1.007825032230
         H           -0.189389486852    -0.249776455328     1.396746647286     1.007825032230
         H            2.798774513148    -1.385665455328    -0.099855352714     1.007825032230
         H            2.203893513148    -0.606820455328     1.362792647286     1.007825032230
         H            0.975729513148    -0.216383455328    -1.445382352714     1.007825032230
         H           -2.333351486852     1.243866544672     1.208660647286     1.007825032230
         H           -1.599451486852     2.169113544672    -0.122807352714     1.007825032230
         H           -3.176815486852     1.371815544672    -0.345826352714     1.007825032230
         H            2.825411513148     1.636800544672     0.421297647286     1.007825032230
         H            3.397740513148     0.863868544672    -1.062536352714     1.007825032230
         H            4.236647513148     0.565185544672     0.466030647286     1.007825032230
         H           -1.932590086852    -1.880537055328    -0.255906852714     1.007825032230

  Basis Set: AUG-CC-PVTZ
    Blend: AUG-CC-PVTZ
  Basis Set: (AUG-CC-PVTZ AUX)
    Blend: AUG-CC-PVTZ-JKFIT
	 Reference Energy          =    -309.1518167992099393 [Eh]
	 Singles Energy            =      -0.0000000000000000 [Eh]
	 Same-Spin Energy          =      -0.3166863346243329 [Eh]
	 Opposite-Spin Energy      =      -1.1023625496808300 [Eh]
	 Correlation Energy        =      -1.4190488843051630 [Eh]
	 Total Energy              =    -310.5708656835150805 [Eh]

	 ================> DF-SCS-MP2 Energies <==================
	-----------------------------------------------------------
	 SCS Same-Spin Scale       =       0.3333333333333333 [-]
	 SCS Opposite-Spin Scale   =       1.2000000000000000 [-]
	 SCS Same-Spin Energy      =      -0.1055621115414443 [Eh]
	 SCS Opposite-Spin Energy  =      -1.3228350596169960 [Eh]
	 SCS Correlation Energy    =      -1.4283971711584402 [Eh]
	 SCS Total Energy          =    -310.5802139703683906 [Eh]
	-----------------------------------------------------------

  Dipole Moment: [D]
     X:     1.8878      Y:     0.0189      Z:    -0.5464     Total:     1.9654

*** Psi4 exiting successfully. Buy a developer a beer!
