                               Psi4 1.3.2 release

  ==> Input File <==

--------------------------------------------------------------------------
#psi4
#
memory 32 gb

molecule  {
0 1
  O       -2.3916800    -1.0522970    -0.0243250
  C       -1.5633740    -0.0485978    -0.3272951
  C       -0.1728060    -0.1763470     0.3083280
  C        2.3285040    -0.4694590     0.2834420
  C        0.9860590    -0.2881690    -0.3549330
  C       -2.1959480     1.2879740     0.1259890
  C        3.2526380     0.7192940     0.0124360
  H       -1.3570540     0.0791090    -1.4412390
  H       -0.1904860    -0.2488370     1.3972520
  H        2.7976780    -1.3847260    -0.0993500
  H        2.2027970    -0.6058810     1.3632980
  H        0.9746330    -0.2154440    -1.4448770
  H       -2.3344480     1.2448060     1.2091660
  H       -1.6005480     2.1700530    -0.1223020
  H       -3.1779120     1.3727550    -0.3453210
  H        2.8243150     1.6377400     0.4218030
  H        3.3966440     0.8648080    -1.0620310
  H        4.2355510     0.5661250     0.4665360
  H       -1.9269720    -1.8751040    -0.2580250
units angstrom
no_reorient  #important for SAPT in psi4, default
symmetry c1  #important for SAPT in psi4, default
}

set PROPERTIES_ORIGIN ["COM"]
properties('MP2/aug-cc-pvtz', properties = ['dipole'])
--------------------------------------------------------------------------

    Molecular point group: c1
  Charge       = 0
  Multiplicity = 1
  Basis Set: AUG-CC-PVTZ
    Blend: AUG-CC-PVTZ
  Basis Set: (AUG-CC-PVTZ AUX)
    Blend: AUG-CC-PVTZ-JKFIT

    Orbital Energies [Eh]
    ---------------------

    Doubly Occupied:

       1A    -20.565989     2A    -11.284004     3A    -11.233331
       4A    -11.228970     5A    -11.224214     6A    -11.217830
       7A    -11.209481     8A     -1.398534     9A     -1.089148
      10A     -1.026272    11A     -0.970212    12A     -0.868787
      13A     -0.810421    14A     -0.759237    15A     -0.714926
      16A     -0.654398    17A     -0.609799    18A     -0.600291
      19A     -0.594020    20A     -0.538988    21A     -0.534332
      22A     -0.530669    23A     -0.529076    24A     -0.508558
      25A     -0.485242    26A     -0.458623    27A     -0.423681
      28A     -0.354108

  @DF-RHF Final Energy:  -309.14398458564165

   => Energetics <=

    Nuclear Repulsion Energy =            299.4952916749857650
    One-Electron Energy =               -1012.4322738558474839
    Two-Electron Energy =                 403.7929975952200721
    Total Energy =                       -309.1439845856416468
  Basis Set: (AUG-CC-PVTZ AUX)
    Blend: AUG-CC-PVTZ-RI
    Molecular point group: c1

    Geometry (in Angstrom), charge = 0, multiplicity = 1:

       Center              X                  Y                   Z               Mass
    ------------   -----------------  -----------------  -----------------  -----------------
         O           -2.384247477599    -1.043290580383    -0.027043594734    15.994914619570
         C           -1.555941477599    -0.039591380383    -0.330013694734    12.000000000000
         C           -0.165373477599    -0.167340580383     0.305609405266    12.000000000000
         C            2.335936522401    -0.460452580383     0.280723405266    12.000000000000
         C            0.993491522401    -0.279162580383    -0.357651594734    12.000000000000
         C           -2.188515477599     1.296980419617     0.123270405266    12.000000000000
         C            3.260070522401     0.728300419617     0.009717405266    12.000000000000
         H           -1.349621477599     0.088115419617    -1.443957594734     1.007825032230
         H           -0.183053477599    -0.239830580383     1.394533405266     1.007825032230
         H            2.805110522401    -1.375719580383    -0.102068594734     1.007825032230
         H            2.210229522401    -0.596874580383     1.360579405266     1.007825032230
         H            0.982065522401    -0.206437580383    -1.447595594734     1.007825032230
         H           -2.327015477599     1.253812419617     1.206447405266     1.007825032230
         H           -1.593115477599     2.179059419617    -0.125020594734     1.007825032230
         H           -3.170479477599     1.381761419617    -0.348039594734     1.007825032230
         H            2.831747522401     1.646746419617     0.419084405266     1.007825032230
         H            3.404076522401     0.873814419617    -1.064749594734     1.007825032230
         H            4.242983522401     0.575131419617     0.463817405266     1.007825032230
         H           -1.919539477599    -1.866097580383    -0.260743594734     1.007825032230

  Basis Set: AUG-CC-PVTZ
    Blend: AUG-CC-PVTZ
  Basis Set: (AUG-CC-PVTZ AUX)
    Blend: AUG-CC-PVTZ-JKFIT
	 Reference Energy          =    -309.1439845856416468 [Eh]
	 Singles Energy            =      -0.0000000000000000 [Eh]
	 Same-Spin Energy          =      -0.3164826710612835 [Eh]
	 Opposite-Spin Energy      =      -1.1012087141950029 [Eh]
	 Correlation Energy        =      -1.4176913852562865 [Eh]
	 Total Energy              =    -310.5616759708979089 [Eh]

	 ================> DF-SCS-MP2 Energies <==================
	-----------------------------------------------------------
	 SCS Same-Spin Scale       =       0.3333333333333333 [-]
	 SCS Opposite-Spin Scale   =       1.2000000000000000 [-]
	 SCS Same-Spin Energy      =      -0.1054942236870945 [Eh]
	 SCS Opposite-Spin Energy  =      -1.3214504570340033 [Eh]
	 SCS Correlation Energy    =      -1.4269446807210979 [Eh]
	 SCS Total Energy          =    -310.5709292663627252 [Eh]
	-----------------------------------------------------------

  Dipole Moment: [D]
     X:     1.6267      Y:    -0.3202      Z:    -0.4817     Total:     1.7265

*** Psi4 exiting successfully. Buy a developer a beer!
