                               Psi4 1.3.2 release

  ==> Input File <==

--------------------------------------------------------------------------
#psi4
#
memory 32 gb

molecule  {
0 1
  O       -2.3916800    -1.0522970    -0.0243250
  C       -1.5013820     0.0265210    -0.3499700
  C       -0.1728060    -0.1763470     0.3083280
  C        2.3285040    -0.4694590     0.2834420
  C        0.9860590    -0.2881690    -0.3549330
  C       -2.1959480     1.2879740     0.1259890
  C        3.2526380     0.7192940     0.0124360
  H       -1.3570540     0.0791090    -1.4412390
  H       -0.1904860    -0.2488370     1.3972520
  H        2.7976780    -1.3847260    -0.0993500
  H        2.2027970    -0.6058810     1.3632980
  H        0.9767249    -0.2287584    -1.2453316
  H       -2.3344480     1.2448060     1.2091660
  H       -1.6005480     2.1700530    -0.1223020
  H       -3.1779120     1.3727550    -0.3453210
  H        2.8243150     1.6377400     0.4218030
  H        3.3966440     0.8648080    -1.0620310
  H        4.2355510     0.5661250     0.4665360
  H       -1.9269720    -1.8751040    -0.2580250
units angstrom
no_reorient  #important for SAPT in psi4, default
symmetry c1  #important for SAPT in psi4, default
}

set PROPERTIES_ORIGIN ["COM"]
properties('MP2/aug-cc-pvtz', properties = ['dipole'])
--------------------------------------------------------------------------

    Molecular point group: c1
  Charge       = 0
  Multiplicity = 1
  Basis Set: AUG-CC-PVTZ
    Blend: AUG-CC-PVTZ
  Basis Set: (AUG-CC-PVTZ AUX)
    Blend: AUG-CC-PVTZ-JKFIT

    Orbital Energies [Eh]
    ---------------------

    Doubly Occupied:

       1A    -20.553812     2A    -11.281301     3A    -11.228436
       4A    -11.225200     5A    -11.219316     6A    -11.211267
       7A    -11.210841     8A     -1.353007     9A     -1.101561
      10A     -1.034642    11A     -0.978324    12A     -0.875744
      13A     -0.813603    14A     -0.786559    15A     -0.692863
      16A     -0.663921    17A     -0.610375    18A     -0.597657
      19A     -0.578410    20A     -0.549305    21A     -0.535548
      22A     -0.527907    23A     -0.521803    24A     -0.510465
      25A     -0.490662    26A     -0.472328    27A     -0.440587
      28A     -0.355728

  @DF-RHF Final Energy:  -309.11802215146588

   => Energetics <=

    Nuclear Repulsion Energy =            300.1880024877469850
    One-Electron Energy =               -1013.7697050554199905
    Two-Electron Energy =                 404.4636804162071257
    Total Energy =                       -309.1180221514658797
  Basis Set: (AUG-CC-PVTZ AUX)
    Blend: AUG-CC-PVTZ-RI
    Molecular point group: c1

    Geometry (in Angstrom), charge = 0, multiplicity = 1:

       Center              X                  Y                   Z               Mass
    ------------   -----------------  -----------------  -----------------  -----------------
         O           -2.391700980462    -1.052162770690    -0.026334305181    15.994914619570
         C           -1.501402980462     0.026655229310    -0.351979305181    12.000000000000
         C           -0.172826980462    -0.176212770690     0.306318694819    12.000000000000
         C            2.328483019538    -0.469324770690     0.281432694819    12.000000000000
         C            0.986038019538    -0.288034770690    -0.356942305181    12.000000000000
         C           -2.195968980462     1.288108229310     0.123979694819    12.000000000000
         C            3.252617019538     0.719428229310     0.010426694819    12.000000000000
         H           -1.357074980462     0.079243229310    -1.443248305181     1.007825032230
         H           -0.190506980462    -0.248702770690     1.395242694819     1.007825032230
         H            2.797657019538    -1.384591770690    -0.101359305181     1.007825032230
         H            2.202776019538    -0.605746770690     1.361288694819     1.007825032230
         H            0.976703919538    -0.228624170690    -1.247340905181     1.007825032230
         H           -2.334468980462     1.244940229310     1.207156694819     1.007825032230
         H           -1.600568980462     2.170187229310    -0.124311305181     1.007825032230
         H           -3.177932980462     1.372889229310    -0.347330305181     1.007825032230
         H            2.824294019538     1.637874229310     0.419793694819     1.007825032230
         H            3.396623019538     0.864942229310    -1.064040305181     1.007825032230
         H            4.235530019538     0.566259229310     0.464526694819     1.007825032230
         H           -1.926992980462    -1.874969770690    -0.260034305181     1.007825032230

  Basis Set: AUG-CC-PVTZ
    Blend: AUG-CC-PVTZ
  Basis Set: (AUG-CC-PVTZ AUX)
    Blend: AUG-CC-PVTZ-JKFIT
	 Reference Energy          =    -309.1180221514658797 [Eh]
	 Singles Energy            =      -0.0000000000000000 [Eh]
	 Same-Spin Energy          =      -0.3164845486043084 [Eh]
	 Opposite-Spin Energy      =      -1.1018495854982580 [Eh]
	 Correlation Energy        =      -1.4183341341025664 [Eh]
	 Total Energy              =    -310.5363562855684449 [Eh]

	 ================> DF-SCS-MP2 Energies <==================
	-----------------------------------------------------------
	 SCS Same-Spin Scale       =       0.3333333333333333 [-]
	 SCS Opposite-Spin Scale   =       1.2000000000000000 [-]
	 SCS Same-Spin Energy      =      -0.1054948495347695 [Eh]
	 SCS Opposite-Spin Energy  =      -1.3222195025979095 [Eh]
	 SCS Correlation Energy    =      -1.4277143521326789 [Eh]
	 SCS Total Energy          =    -310.5457365035985617 [Eh]
	-----------------------------------------------------------

  Dipole Moment: [D]
     X:     1.8867      Y:     0.0114      Z:    -0.6274     Total:     1.9884

*** Psi4 exiting successfully. Buy a developer a beer!
