                               Psi4 1.3.2 release

  ==> Input File <==

--------------------------------------------------------------------------
#psi4
#
memory 32 gb

molecule  {
0 1
  O       -2.3916800    -1.0522970    -0.0243250
  C       -1.5128023     0.0262683    -0.3264812
  C       -0.1728060    -0.1763470     0.3083280
  C        2.3285040    -0.4694590     0.2834420
  C        0.9860590    -0.2881690    -0.3549330
  C       -2.1959480     1.2879740     0.1259890
  C        3.2526380     0.7192940     0.0124360
  H       -1.3570540     0.0791090    -1.4412390
  H       -0.2093974    -0.2465691     1.3969293
  H        2.7976780    -1.3847260    -0.0993500
  H        2.2027970    -0.6058810     1.3632980
  H        0.9746330    -0.2154440    -1.4448770
  H       -2.3344480     1.2448060     1.2091660
  H       -1.6005480     2.1700530    -0.1223020
  H       -3.1779120     1.3727550    -0.3453210
  H        2.8243150     1.6377400     0.4218030
  H        3.3966440     0.8648080    -1.0620310
  H        4.2355510     0.5661250     0.4665360
  H       -1.9269720    -1.8751040    -0.2580250
units angstrom
no_reorient  #important for SAPT in psi4, default
symmetry c1  #important for SAPT in psi4, default
}

set PROPERTIES_ORIGIN ["COM"]
properties('MP2/aug-cc-pvtz', properties = ['dipole'])
--------------------------------------------------------------------------

    Molecular point group: c1
  Charge       = 0
  Multiplicity = 1
  Basis Set: AUG-CC-PVTZ
    Blend: AUG-CC-PVTZ
  Basis Set: (AUG-CC-PVTZ AUX)
    Blend: AUG-CC-PVTZ-JKFIT

    Orbital Energies [Eh]
    ---------------------

    Doubly Occupied:

       1A    -20.554817     2A    -11.281779     3A    -11.236719
       4A    -11.230682     5A    -11.226152     6A    -11.219598
       7A    -11.210446     8A     -1.357679     9A     -1.094329
      10A     -1.035954    11A     -0.975885    12A     -0.873429
      13A     -0.806634    14A     -0.759914    15A     -0.695534
      16A     -0.654076    17A     -0.611035    18A     -0.593773
      19A     -0.581490    20A     -0.539145    21A     -0.536393
      22A     -0.530950    23A     -0.521928    24A     -0.510791
      25A     -0.487365    26A     -0.470533    27A     -0.435500
      28A     -0.357118

  @DF-RHF Final Energy:  -309.15108104811623

   => Energetics <=

    Nuclear Repulsion Energy =            299.3102473809611297
    One-Electron Energy =               -1012.1433571611795514
    Two-Electron Energy =                 403.6820287321021397
    Total Energy =                       -309.1510810481162252
  Basis Set: (AUG-CC-PVTZ AUX)
    Blend: AUG-CC-PVTZ-RI
    Molecular point group: c1

    Geometry (in Angstrom), charge = 0, multiplicity = 1:

       Center              X                  Y                   Z               Mass
    ------------   -----------------  -----------------  -----------------  -----------------
         O           -2.390120271853    -1.052289376565    -0.027137926701    15.994914619570
         C           -1.511242571853     0.026275923435    -0.329294126701    12.000000000000
         C           -0.171246271853    -0.176339376565     0.305515073299    12.000000000000
         C            2.330063728147    -0.469451376565     0.280629073299    12.000000000000
         C            0.987618728147    -0.288161376565    -0.357745926701    12.000000000000
         C           -2.194388271853     1.287981623435     0.123176073299    12.000000000000
         C            3.254197728147     0.719301623435     0.009623073299    12.000000000000
         H           -1.355494271853     0.079116623435    -1.444051926701     1.007825032230
         H           -0.207837671853    -0.246561476565     1.394116373299     1.007825032230
         H            2.799237728147    -1.384718376565    -0.102162926701     1.007825032230
         H            2.204356728147    -0.605873376565     1.360485073299     1.007825032230
         H            0.976192728147    -0.215436376565    -1.447689926701     1.007825032230
         H           -2.332888271853     1.244813623435     1.206353073299     1.007825032230
         H           -1.598988271853     2.170060623435    -0.125114926701     1.007825032230
         H           -3.176352271853     1.372762623435    -0.348133926701     1.007825032230
         H            2.825874728147     1.637747623435     0.418990073299     1.007825032230
         H            3.398203728147     0.864815623435    -1.064843926701     1.007825032230
         H            4.237110728147     0.566132623435     0.463723073299     1.007825032230
         H           -1.925412271853    -1.875096376565    -0.260837926701     1.007825032230

  Basis Set: AUG-CC-PVTZ
    Blend: AUG-CC-PVTZ
  Basis Set: (AUG-CC-PVTZ AUX)
    Blend: AUG-CC-PVTZ-JKFIT
	 Reference Energy          =    -309.1510810481162252 [Eh]
	 Singles Energy            =      -0.0000000000000000 [Eh]
	 Same-Spin Energy          =      -0.3167648453747807 [Eh]
	 Opposite-Spin Energy      =      -1.1023508110480262 [Eh]
	 Correlation Energy        =      -1.4191156564228069 [Eh]
	 Total Energy              =    -310.5701967045390575 [Eh]

	 ================> DF-SCS-MP2 Energies <==================
	-----------------------------------------------------------
	 SCS Same-Spin Scale       =       0.3333333333333333 [-]
	 SCS Opposite-Spin Scale   =       1.2000000000000000 [-]
	 SCS Same-Spin Energy      =      -0.1055882817915935 [Eh]
	 SCS Opposite-Spin Energy  =      -1.3228209732576315 [Eh]
	 SCS Correlation Energy    =      -1.4284092550492251 [Eh]
	 SCS Total Energy          =    -310.5794903031654712 [Eh]
	-----------------------------------------------------------

  Dipole Moment: [D]
     X:     1.8836      Y:    -0.0096      Z:    -0.5192     Total:     1.9538

*** Psi4 exiting successfully. Buy a developer a beer!
