                               Psi4 1.3.2 release

  ==> Input File <==

--------------------------------------------------------------------------
#psi4
#
memory 32 gb

molecule  {
0 1
  O       -2.3969200    -1.0675218    -0.0977687
  C       -1.5013820     0.0265210    -0.3499700
  C       -0.1728060    -0.1763470     0.3083280
  C        2.3285040    -0.4694590     0.2834420
  C        0.9860590    -0.2881690    -0.3549330
  C       -2.1959480     1.2879740     0.1259890
  C        3.2526380     0.7192940     0.0124360
  H       -1.3925489     0.0339394    -1.4465850
  H       -0.1904860    -0.2488370     1.3972520
  H        2.7976780    -1.3847260    -0.0993500
  H        2.2027970    -0.6058810     1.3632980
  H        0.9746330    -0.2154440    -1.4448770
  H       -2.3344480     1.2448060     1.2091660
  H       -1.6005480     2.1700530    -0.1223020
  H       -3.1779120     1.3727550    -0.3453210
  H        2.8243150     1.6377400     0.4218030
  H        3.3966440     0.8648080    -1.0620310
  H        4.2355510     0.5661250     0.4665360
  H       -1.9269720    -1.8751040    -0.2580250
units angstrom
no_reorient  #important for SAPT in psi4, default
symmetry c1  #important for SAPT in psi4, default
}

set PROPERTIES_ORIGIN ["COM"]
properties('MP2/aug-cc-pvtz', properties = ['dipole'])
--------------------------------------------------------------------------

    Molecular point group: c1
  Charge       = 0
  Multiplicity = 1
  Basis Set: AUG-CC-PVTZ
    Blend: AUG-CC-PVTZ
  Basis Set: (AUG-CC-PVTZ AUX)
    Blend: AUG-CC-PVTZ-JKFIT

    Orbital Energies [Eh]
    ---------------------

    Doubly Occupied:

       1A    -20.547894     2A    -11.280844     3A    -11.237360
       4A    -11.231233     5A    -11.227466     6A    -11.220077
       7A    -11.211844     8A     -1.355870     9A     -1.095381
      10A     -1.035883    11A     -0.975429    12A     -0.873752
      13A     -0.809812    14A     -0.762548    15A     -0.693276
      16A     -0.655320    17A     -0.611486    18A     -0.595234
      19A     -0.577720    20A     -0.539416    21A     -0.536609
      22A     -0.530058    23A     -0.524157    24A     -0.512199
      25A     -0.487925    26A     -0.468196    27A     -0.438304
      28A     -0.357848

  @DF-RHF Final Energy:  -309.15207438715441

   => Energetics <=

    Nuclear Repulsion Energy =            299.0004983110387116
    One-Electron Energy =               -1011.5188674733643666
    Two-Electron Energy =                 403.3662947751711840
    Total Energy =                       -309.1520743871544141
  Basis Set: (AUG-CC-PVTZ AUX)
    Blend: AUG-CC-PVTZ-RI
    Molecular point group: c1

    Geometry (in Angstrom), charge = 0, multiplicity = 1:

       Center              X                  Y                   Z               Mass
    ------------   -----------------  -----------------  -----------------  -----------------
         O           -2.395725117625    -1.064633778031    -0.085978057679    15.994914619570
         C           -1.500187117625     0.029409021969    -0.338179357679    12.000000000000
         C           -0.171611117625    -0.173458978031     0.320118642321    12.000000000000
         C            2.329698882375    -0.466570978031     0.295232642321    12.000000000000
         C            0.987253882375    -0.285280978031    -0.343142357679    12.000000000000
         C           -2.194753117625     1.290862021969     0.137779642321    12.000000000000
         C            3.253832882375     0.722182021969     0.024226642321    12.000000000000
         H           -1.391354017625     0.036827421969    -1.434794357679     1.007825032230
         H           -0.189291117625    -0.245948978031     1.409042642321     1.007825032230
         H            2.798872882375    -1.381837978031    -0.087559357679     1.007825032230
         H            2.203991882375    -0.602992978031     1.375088642321     1.007825032230
         H            0.975827882375    -0.212555978031    -1.433086357679     1.007825032230
         H           -2.333253117625     1.247694021969     1.220956642321     1.007825032230
         H           -1.599353117625     2.172941021969    -0.110511357679     1.007825032230
         H           -3.176717117625     1.375643021969    -0.333530357679     1.007825032230
         H            2.825509882375     1.640628021969     0.433593642321     1.007825032230
         H            3.397838882375     0.867696021969    -1.050240357679     1.007825032230
         H            4.236745882375     0.569013021969     0.478326642321     1.007825032230
         H           -1.925777117625    -1.872215978031    -0.246234357679     1.007825032230

  Basis Set: AUG-CC-PVTZ
    Blend: AUG-CC-PVTZ
  Basis Set: (AUG-CC-PVTZ AUX)
    Blend: AUG-CC-PVTZ-JKFIT
	 Reference Energy          =    -309.1520743871544141 [Eh]
	 Singles Energy            =      -0.0000000000000000 [Eh]
	 Same-Spin Energy          =      -0.3162290058188557 [Eh]
	 Opposite-Spin Energy      =      -1.1013804021155722 [Eh]
	 Correlation Energy        =      -1.4176094079344279 [Eh]
	 Total Energy              =    -310.5696837950888494 [Eh]

	 ================> DF-SCS-MP2 Energies <==================
	-----------------------------------------------------------
	 SCS Same-Spin Scale       =       0.3333333333333333 [-]
	 SCS Opposite-Spin Scale   =       1.2000000000000000 [-]
	 SCS Same-Spin Energy      =      -0.1054096686062852 [Eh]
	 SCS Opposite-Spin Energy  =      -1.3216564825386865 [Eh]
	 SCS Correlation Energy    =      -1.4270661511449718 [Eh]
	 SCS Total Energy          =    -310.5791405382993844 [Eh]
	-----------------------------------------------------------

  Dipole Moment: [D]
     X:     1.9887      Y:     0.0525      Z:    -0.4038     Total:     2.0300

*** Psi4 exiting successfully. Buy a developer a beer!
