                               Psi4 1.3.2 release

  ==> Input File <==

--------------------------------------------------------------------------
#psi4
#
memory 32 gb

molecule  {
0 1
  O       -2.3916800    -1.0522970    -0.0243250
  C       -1.5013820     0.0265210    -0.3499700
  C       -0.1728060    -0.1763470     0.3083280
  C        2.2928854    -0.4703444     0.3532789
  C        0.9860590    -0.2881690    -0.3549330
  C       -2.1959480     1.2879740     0.1259890
  C        3.2526380     0.7192940     0.0124360
  H       -1.3570540     0.0791090    -1.4412390
  H       -0.1904860    -0.2488370     1.3972520
  H        2.7976780    -1.3847260    -0.0993500
  H        2.2027970    -0.6058810     1.3632980
  H        0.9177830    -0.2097038    -1.4423975
  H       -2.3344480     1.2448060     1.2091660
  H       -1.6005480     2.1700530    -0.1223020
  H       -3.1779120     1.3727550    -0.3453210
  H        2.8243150     1.6377400     0.4218030
  H        3.3966440     0.8648080    -1.0620310
  H        4.2355510     0.5661250     0.4665360
  H       -1.9269720    -1.8751040    -0.2580250
units angstrom
no_reorient  #important for SAPT in psi4, default
symmetry c1  #important for SAPT in psi4, default
}

set PROPERTIES_ORIGIN ["COM"]
properties('MP2/aug-cc-pvtz', properties = ['dipole'])
--------------------------------------------------------------------------

    Molecular point group: c1
  Charge       = 0
  Multiplicity = 1
  Basis Set: AUG-CC-PVTZ
    Blend: AUG-CC-PVTZ
  Basis Set: (AUG-CC-PVTZ AUX)
    Blend: AUG-CC-PVTZ-JKFIT

    Orbital Energies [Eh]
    ---------------------

    Doubly Occupied:

       1A    -20.553275     2A    -11.280528     3A    -11.236093
       4A    -11.231345     5A    -11.223777     6A    -11.221177
       7A    -11.210421     8A     -1.352509     9A     -1.094570
      10A     -1.032241    11A     -0.972646    12A     -0.873266
      13A     -0.809771    14A     -0.763329    15A     -0.692705
      16A     -0.654012    17A     -0.607524    18A     -0.596810
      19A     -0.577853    20A     -0.537979    21A     -0.531127
      22A     -0.526599    23A     -0.519936    24A     -0.511261
      25A     -0.497359    26A     -0.470224    27A     -0.439861
      28A     -0.353369

  @DF-RHF Final Energy:  -309.14425634506847

   => Energetics <=

    Nuclear Repulsion Energy =            299.1500464699728354
    One-Electron Energy =               -1011.8454654790498353
    Two-Electron Energy =                 403.5511626640085296
    Total Energy =                       -309.1442563450684702
  Basis Set: (AUG-CC-PVTZ AUX)
    Blend: AUG-CC-PVTZ-RI
    Molecular point group: c1

    Geometry (in Angstrom), charge = 0, multiplicity = 1:

       Center              X                  Y                   Z               Mass
    ------------   -----------------  -----------------  -----------------  -----------------
         O           -2.386837037151    -1.052248483593    -0.032722979609    15.994914619570
         C           -1.496539037151     0.026569516407    -0.358367979609    12.000000000000
         C           -0.167963037151    -0.176298483593     0.299930020391    12.000000000000
         C            2.297728362849    -0.470295883593     0.344880920391    12.000000000000
         C            0.990901962849    -0.288120483593    -0.363330979609    12.000000000000
         C           -2.191105037151     1.288022516407     0.117591020391    12.000000000000
         C            3.257480962849     0.719342516407     0.004038020391    12.000000000000
         H           -1.352211037151     0.079157516407    -1.449636979609     1.007825032230
         H           -0.185643037151    -0.248788483593     1.388854020391     1.007825032230
         H            2.802520962849    -1.384677483593    -0.107747979609     1.007825032230
         H            2.207639962849    -0.605832483593     1.354900020391     1.007825032230
         H            0.922625962849    -0.209655283593    -1.450795479609     1.007825032230
         H           -2.329605037151     1.244854516407     1.200768020391     1.007825032230
         H           -1.595705037151     2.170101516407    -0.130699979609     1.007825032230
         H           -3.173069037151     1.372803516407    -0.353718979609     1.007825032230
         H            2.829157962849     1.637788516407     0.413405020391     1.007825032230
         H            3.401486962849     0.864856516407    -1.070428979609     1.007825032230
         H            4.240393962849     0.566173516407     0.458138020391     1.007825032230
         H           -1.922129037151    -1.875055483593    -0.266422979609     1.007825032230

  Basis Set: AUG-CC-PVTZ
    Blend: AUG-CC-PVTZ
  Basis Set: (AUG-CC-PVTZ AUX)
    Blend: AUG-CC-PVTZ-JKFIT
	 Reference Energy          =    -309.1442563450684702 [Eh]
	 Singles Energy            =      -0.0000000000000000 [Eh]
	 Same-Spin Energy          =      -0.3167756185542088 [Eh]
	 Opposite-Spin Energy      =      -1.1026036591379882 [Eh]
	 Correlation Energy        =      -1.4193792776921970 [Eh]
	 Total Energy              =    -310.5636356227606711 [Eh]

	 ================> DF-SCS-MP2 Energies <==================
	-----------------------------------------------------------
	 SCS Same-Spin Scale       =       0.3333333333333333 [-]
	 SCS Opposite-Spin Scale   =       1.2000000000000000 [-]
	 SCS Same-Spin Energy      =      -0.1055918728514029 [Eh]
	 SCS Opposite-Spin Energy  =      -1.3231243909655859 [Eh]
	 SCS Correlation Energy    =      -1.4287162638169888 [Eh]
	 SCS Total Energy          =    -310.5729726088854363 [Eh]
	-----------------------------------------------------------

  Dipole Moment: [D]
     X:     1.9164      Y:     0.0123      Z:    -0.5243     Total:     1.9869

*** Psi4 exiting successfully. Buy a developer a beer!
