                               Psi4 1.3.2 release

  ==> Input File <==

--------------------------------------------------------------------------
#psi4
#
memory 32 gb

molecule  {
0 1
  O       -2.3916800    -1.0522970    -0.0243250
  C       -1.5013820     0.0265210    -0.3499700
  C       -0.1840469    -0.1742750     0.2879260
  C        2.3394727    -0.4698757     0.2597225
  C        0.9860590    -0.2881690    -0.3549330
  C       -2.1959480     1.2879740     0.1259890
  C        3.2526380     0.7192940     0.0124360
  H       -1.3570540     0.0791090    -1.4412390
  H       -0.1904860    -0.2488370     1.3972520
  H        2.7976780    -1.3847260    -0.0993500
  H        2.2027970    -0.6058810     1.3632980
  H        0.9746330    -0.2154440    -1.4448770
  H       -2.3344480     1.2448060     1.2091660
  H       -1.6005480     2.1700530    -0.1223020
  H       -3.1779120     1.3727550    -0.3453210
  H        2.8243150     1.6377400     0.4218030
  H        3.3966440     0.8648080    -1.0620310
  H        4.2355510     0.5661250     0.4665360
  H       -1.9269720    -1.8751040    -0.2580250
units angstrom
no_reorient  #important for SAPT in psi4, default
symmetry c1  #important for SAPT in psi4, default
}

set PROPERTIES_ORIGIN ["COM"]
properties('MP2/aug-cc-pvtz', properties = ['dipole'])
--------------------------------------------------------------------------

    Molecular point group: c1
  Charge       = 0
  Multiplicity = 1
  Basis Set: AUG-CC-PVTZ
    Blend: AUG-CC-PVTZ
  Basis Set: (AUG-CC-PVTZ AUX)
    Blend: AUG-CC-PVTZ-JKFIT

    Orbital Energies [Eh]
    ---------------------

    Doubly Occupied:

       1A    -20.554113     2A    -11.280601     3A    -11.236515
       4A    -11.231976     5A    -11.227715     6A    -11.219717
       7A    -11.211179     8A     -1.353632     9A     -1.095650
      10A     -1.037964    11A     -0.975639    12A     -0.875267
      13A     -0.808906    14A     -0.757341    15A     -0.694217
      16A     -0.654472    17A     -0.614269    18A     -0.591903
      19A     -0.579621    20A     -0.540023    21A     -0.534858
      22A     -0.528406    23A     -0.522482    24A     -0.511023
      25A     -0.481216    26A     -0.472662    27A     -0.442547
      28A     -0.357616

  @DF-RHF Final Energy:  -309.14992697588082

   => Energetics <=

    Nuclear Repulsion Energy =            299.3339471219625807
    One-Electron Energy =               -1012.1846923513027150
    Two-Electron Energy =                 403.7008182534593743
    Total Energy =                       -309.1499269758808168
  Basis Set: (AUG-CC-PVTZ AUX)
    Blend: AUG-CC-PVTZ-RI
    Molecular point group: c1

    Geometry (in Angstrom), charge = 0, multiplicity = 1:

       Center              X                  Y                   Z               Mass
    ------------   -----------------  -----------------  -----------------  -----------------
         O           -2.391647281463    -1.052495297213    -0.019035139444    15.994914619570
         C           -1.501349281463     0.026322702787    -0.344680139444    12.000000000000
         C           -0.184014181463    -0.174473297213     0.293215860556    12.000000000000
         C            2.339505418537    -0.470073997213     0.265012360556    12.000000000000
         C            0.986091718537    -0.288367297213    -0.349643139444    12.000000000000
         C           -2.195915281463     1.287775702787     0.131278860556    12.000000000000
         C            3.252670718537     0.719095702787     0.017725860556    12.000000000000
         H           -1.357021281463     0.078910702787    -1.435949139444     1.007825032230
         H           -0.190453281463    -0.249035297213     1.402541860556     1.007825032230
         H            2.797710718537    -1.384924297213    -0.094060139444     1.007825032230
         H            2.202829718537    -0.606079297213     1.368587860556     1.007825032230
         H            0.974665718537    -0.215642297213    -1.439587139444     1.007825032230
         H           -2.334415281463     1.244607702787     1.214455860556     1.007825032230
         H           -1.600515281463     2.169854702787    -0.117012139444     1.007825032230
         H           -3.177879281463     1.372556702787    -0.340031139444     1.007825032230
         H            2.824347718537     1.637541702787     0.427092860556     1.007825032230
         H            3.396676718537     0.864609702787    -1.056741139444     1.007825032230
         H            4.235583718537     0.565926702787     0.471825860556     1.007825032230
         H           -1.926939281463    -1.875302297213    -0.252735139444     1.007825032230

  Basis Set: AUG-CC-PVTZ
    Blend: AUG-CC-PVTZ
  Basis Set: (AUG-CC-PVTZ AUX)
    Blend: AUG-CC-PVTZ-JKFIT
	 Reference Energy          =    -309.1499269758808168 [Eh]
	 Singles Energy            =      -0.0000000000000000 [Eh]
	 Same-Spin Energy          =      -0.3169987013456238 [Eh]
	 Opposite-Spin Energy      =      -1.1028343214190053 [Eh]
	 Correlation Energy        =      -1.4198330227646290 [Eh]
	 Total Energy              =    -310.5697599986454520 [Eh]

	 ================> DF-SCS-MP2 Energies <==================
	-----------------------------------------------------------
	 SCS Same-Spin Scale       =       0.3333333333333333 [-]
	 SCS Opposite-Spin Scale   =       1.2000000000000000 [-]
	 SCS Same-Spin Energy      =      -0.1056662337818746 [Eh]
	 SCS Opposite-Spin Energy  =      -1.3234011857028063 [Eh]
	 SCS Correlation Energy    =      -1.4290674194846809 [Eh]
	 SCS Total Energy          =    -310.5789943953654983 [Eh]
	-----------------------------------------------------------

  Dipole Moment: [D]
     X:     1.9218      Y:     0.0137      Z:    -0.5700     Total:     2.0046

*** Psi4 exiting successfully. Buy a developer a beer!
