                               Psi4 1.3.2 release

  ==> Input File <==

--------------------------------------------------------------------------
#psi4
#
memory 32 gb

molecule  {
0 1
  O       -2.3916800    -1.0522970    -0.0243250
  C       -1.5013820     0.0265210    -0.3499700
  C       -0.1728060    -0.1763470     0.3083280
  C        2.3285040    -0.4694590     0.2834420
  C        0.9860590    -0.2881690    -0.3549330
  C       -2.1959480     1.2879740     0.1259890
  C        3.2526380     0.7192940     0.0124360
  H       -1.3832472     0.0695651    -1.2431915
  H       -0.1904860    -0.2488370     1.3972520
  H        2.7976780    -1.3847260    -0.0993500
  H        2.2027970    -0.6058810     1.3632980
  H        0.9746330    -0.2154440    -1.4448770
  H       -2.3344480     1.2448060     1.2091660
  H       -1.6005480     2.1700530    -0.1223020
  H       -3.1779120     1.3727550    -0.3453210
  H        2.8243150     1.6377400     0.4218030
  H        3.3966440     0.8648080    -1.0620310
  H        4.2355510     0.5661250     0.4665360
  H       -1.9269720    -1.8751040    -0.2580250
units angstrom
no_reorient  #important for SAPT in psi4, default
symmetry c1  #important for SAPT in psi4, default
}

set PROPERTIES_ORIGIN ["COM"]
properties('MP2/aug-cc-pvtz', properties = ['dipole'])
--------------------------------------------------------------------------

    Molecular point group: c1
  Charge       = 0
  Multiplicity = 1
  Basis Set: AUG-CC-PVTZ
    Blend: AUG-CC-PVTZ
  Basis Set: (AUG-CC-PVTZ AUX)
    Blend: AUG-CC-PVTZ-JKFIT

    Orbital Energies [Eh]
    ---------------------

    Doubly Occupied:

       1A    -20.550860     2A    -11.255514     3A    -11.235916
       4A    -11.230555     5A    -11.225118     6A    -11.219534
       7A    -11.209367     8A     -1.352017     9A     -1.096633
      10A     -1.041395    11A     -0.975480    12A     -0.877468
      13A     -0.825931    14A     -0.769471    15A     -0.699442
      16A     -0.661056    17A     -0.610924    18A     -0.596835
      19A     -0.576886    20A     -0.538496    21A     -0.535726
      22A     -0.528620    23A     -0.521869    24A     -0.510522
      25A     -0.487208    26A     -0.478641    27A     -0.445967
      28A     -0.356421

  @DF-RHF Final Energy:  -309.12114616337573

   => Energetics <=

    Nuclear Repulsion Energy =            300.2451220739625342
    One-Electron Energy =               -1013.9047887514398099
    Two-Electron Energy =                 404.5385205141015490
    Total Energy =                       -309.1211461633757267
  Basis Set: (AUG-CC-PVTZ AUX)
    Blend: AUG-CC-PVTZ-RI
    Molecular point group: c1

    Geometry (in Angstrom), charge = 0, multiplicity = 1:

       Center              X                  Y                   Z               Mass
    ------------   -----------------  -----------------  -----------------  -----------------
         O           -2.391416169099    -1.052200737013    -0.026319222366    15.994914619570
         C           -1.501118169099     0.026617262987    -0.351964222366    12.000000000000
         C           -0.172542169099    -0.176250737013     0.306333777634    12.000000000000
         C            2.328767830901    -0.469362737013     0.281447777634    12.000000000000
         C            0.986322830901    -0.288072737013    -0.356927222366    12.000000000000
         C           -2.195684169099     1.288070262987     0.123994777634    12.000000000000
         C            3.252901830901     0.719390262987     0.010441777634    12.000000000000
         H           -1.382983369099     0.069661362987    -1.245185722366     1.007825032230
         H           -0.190222169099    -0.248740737013     1.395257777634     1.007825032230
         H            2.797941830901    -1.384629737013    -0.101344222366     1.007825032230
         H            2.203060830901    -0.605784737013     1.361303777634     1.007825032230
         H            0.974896830901    -0.215347737013    -1.446871222366     1.007825032230
         H           -2.334184169099     1.244902262987     1.207171777634     1.007825032230
         H           -1.600284169099     2.170149262987    -0.124296222366     1.007825032230
         H           -3.177648169099     1.372851262987    -0.347315222366     1.007825032230
         H            2.824578830901     1.637836262987     0.419808777634     1.007825032230
         H            3.396907830901     0.864904262987    -1.064025222366     1.007825032230
         H            4.235814830901     0.566221262987     0.464541777634     1.007825032230
         H           -1.926708169099    -1.875007737013    -0.260019222366     1.007825032230

  Basis Set: AUG-CC-PVTZ
    Blend: AUG-CC-PVTZ
  Basis Set: (AUG-CC-PVTZ AUX)
    Blend: AUG-CC-PVTZ-JKFIT
	 Reference Energy          =    -309.1211461633757267 [Eh]
	 Singles Energy            =      -0.0000000000000000 [Eh]
	 Same-Spin Energy          =      -0.3164551451604944 [Eh]
	 Opposite-Spin Energy      =      -1.1013605576702612 [Eh]
	 Correlation Energy        =      -1.4178157028307556 [Eh]
	 Total Energy              =    -310.5389618662064777 [Eh]

	 ================> DF-SCS-MP2 Energies <==================
	-----------------------------------------------------------
	 SCS Same-Spin Scale       =       0.3333333333333333 [-]
	 SCS Opposite-Spin Scale   =       1.2000000000000000 [-]
	 SCS Same-Spin Energy      =      -0.1054850483868315 [Eh]
	 SCS Opposite-Spin Energy  =      -1.3216326692043134 [Eh]
	 SCS Correlation Energy    =      -1.4271177175911449 [Eh]
	 SCS Total Energy          =    -310.5482638809668856 [Eh]
	-----------------------------------------------------------

  Dipole Moment: [D]
     X:     1.9451      Y:     0.0411      Z:    -0.6653     Total:     2.0562

*** Psi4 exiting successfully. Buy a developer a beer!
