                               Psi4 1.3.2 release

  ==> Input File <==

--------------------------------------------------------------------------
#psi4
#
memory 32 gb

molecule  {
0 1
  O       -2.3916800    -1.0522970    -0.0243250
  C       -1.4774422     0.0259333    -0.3963939
  C       -0.1728060    -0.1763470     0.3083280
  C        2.3285040    -0.4694590     0.2834420
  C        0.9626237    -0.2830882    -0.3950874
  C       -2.1959480     1.2879740     0.1259890
  C        3.2526380     0.7192940     0.0124360
  H       -1.3570540     0.0791090    -1.4412390
  H       -0.1904860    -0.2488370     1.3972520
  H        2.7976780    -1.3847260    -0.0993500
  H        2.2027970    -0.6058810     1.3632980
  H        0.9746330    -0.2154440    -1.4448770
  H       -2.3344480     1.2448060     1.2091660
  H       -1.6005480     2.1700530    -0.1223020
  H       -3.1779120     1.3727550    -0.3453210
  H        2.8243150     1.6377400     0.4218030
  H        3.3966440     0.8648080    -1.0620310
  H        4.2355510     0.5661250     0.4665360
  H       -1.9269720    -1.8751040    -0.2580250
units angstrom
no_reorient  #important for SAPT in psi4, default
symmetry c1  #important for SAPT in psi4, default
}

set PROPERTIES_ORIGIN ["COM"]
properties('MP2/aug-cc-pvtz', properties = ['dipole'])
--------------------------------------------------------------------------

    Molecular point group: c1
  Charge       = 0
  Multiplicity = 1
  Basis Set: AUG-CC-PVTZ
    Blend: AUG-CC-PVTZ
  Basis Set: (AUG-CC-PVTZ AUX)
    Blend: AUG-CC-PVTZ-JKFIT

    Orbital Energies [Eh]
    ---------------------

    Doubly Occupied:

       1A    -20.551095     2A    -11.278621     3A    -11.234165
       4A    -11.231551     5A    -11.227855     6A    -11.218671
       7A    -11.211189     8A     -1.343213     9A     -1.092267
      10A     -1.031516    11A     -0.971839    12A     -0.869843
      13A     -0.808799    14A     -0.770438    15A     -0.686514
      16A     -0.655797    17A     -0.605486    18A     -0.596528
      19A     -0.572205    20A     -0.547732    21A     -0.532610
      22A     -0.524279    23A     -0.518620    24A     -0.507696
      25A     -0.490401    26A     -0.469536    27A     -0.442883
      28A     -0.357063

  @DF-RHF Final Energy:  -309.14627710985604

   => Energetics <=

    Nuclear Repulsion Energy =            298.6167001253011790
    One-Electron Energy =               -1010.8291238171988198
    Two-Electron Energy =                 403.0661465820415401
    Total Energy =                       -309.1462771098560438
  Basis Set: (AUG-CC-PVTZ AUX)
    Blend: AUG-CC-PVTZ-RI
    Molecular point group: c1

    Geometry (in Angstrom), charge = 0, multiplicity = 1:

       Center              X                  Y                   Z               Mass
    ------------   -----------------  -----------------  -----------------  -----------------
         O           -2.391740402757    -1.052835531034    -0.013944844390    15.994914619570
         C           -1.477502602757     0.025394768966    -0.386013744390    12.000000000000
         C           -0.172866402757    -0.176885531034     0.318708155610    12.000000000000
         C            2.328443597243    -0.469997531034     0.293822155610    12.000000000000
         C            0.962563297243    -0.283626731034    -0.384707244390    12.000000000000
         C           -2.196008402757     1.287435468966     0.136369155610    12.000000000000
         C            3.252577597243     0.718755468966     0.022816155610    12.000000000000
         H           -1.357114402757     0.078570468966    -1.430858844390     1.007825032230
         H           -0.190546402757    -0.249375531034     1.407632155610     1.007825032230
         H            2.797617597243    -1.385264531034    -0.088969844390     1.007825032230
         H            2.202736597243    -0.606419531034     1.373678155610     1.007825032230
         H            0.974572597243    -0.215982531034    -1.434496844390     1.007825032230
         H           -2.334508402757     1.244267468966     1.219546155610     1.007825032230
         H           -1.600608402757     2.169514468966    -0.111921844390     1.007825032230
         H           -3.177972402757     1.372216468966    -0.334940844390     1.007825032230
         H            2.824254597243     1.637201468966     0.432183155610     1.007825032230
         H            3.396583597243     0.864269468966    -1.051650844390     1.007825032230
         H            4.235490597243     0.565586468966     0.476916155610     1.007825032230
         H           -1.927032402757    -1.875642531034    -0.247644844390     1.007825032230

  Basis Set: AUG-CC-PVTZ
    Blend: AUG-CC-PVTZ
  Basis Set: (AUG-CC-PVTZ AUX)
    Blend: AUG-CC-PVTZ-JKFIT
	 Reference Energy          =    -309.1462771098560438 [Eh]
	 Singles Energy            =      -0.0000000000000000 [Eh]
	 Same-Spin Energy          =      -0.3164152651774810 [Eh]
	 Opposite-Spin Energy      =      -1.1027028621856552 [Eh]
	 Correlation Energy        =      -1.4191181273631361 [Eh]
	 Total Energy              =    -310.5653952372192066 [Eh]

	 ================> DF-SCS-MP2 Energies <==================
	-----------------------------------------------------------
	 SCS Same-Spin Scale       =       0.3333333333333333 [-]
	 SCS Opposite-Spin Scale   =       1.2000000000000000 [-]
	 SCS Same-Spin Energy      =      -0.1054717550591603 [Eh]
	 SCS Opposite-Spin Energy  =      -1.3232434346227862 [Eh]
	 SCS Correlation Energy    =      -1.4287151896819466 [Eh]
	 SCS Total Energy          =    -310.5749922995379961 [Eh]
	-----------------------------------------------------------

  Dipole Moment: [D]
     X:     1.9375      Y:     0.0350      Z:    -0.6251     Total:     2.0361

*** Psi4 exiting successfully. Buy a developer a beer!
