                               Psi4 1.3.2 release

  ==> Input File <==

--------------------------------------------------------------------------
#psi4
#
memory 32 gb

molecule  {
0 1
  O       -2.3916800    -1.0522970    -0.0243250
  C       -1.5013820     0.0265210    -0.3499700
  C       -0.1728060    -0.1763470     0.3083280
  C        2.3285040    -0.4694590     0.2834420
  C        1.0107491    -0.2190125    -0.3824002
  C       -2.1959480     1.2879740     0.1259890
  C        3.1934251     0.7530341    -0.0296456
  H       -1.3570540     0.0791090    -1.4412390
  H       -0.1904860    -0.2488370     1.3972520
  H        2.7976780    -1.3847260    -0.0993500
  H        2.2027970    -0.6058810     1.3632980
  H        0.9746330    -0.2154440    -1.4448770
  H       -2.3344480     1.2448060     1.2091660
  H       -1.6005480     2.1700530    -0.1223020
  H       -3.1779120     1.3727550    -0.3453210
  H        2.8243150     1.6377400     0.4218030
  H        3.3966440     0.8648080    -1.0620310
  H        4.2355510     0.5661250     0.4665360
  H       -1.9269720    -1.8751040    -0.2580250
units angstrom
no_reorient  #important for SAPT in psi4, default
symmetry c1  #important for SAPT in psi4, default
}

set PROPERTIES_ORIGIN ["COM"]
properties('MP2/aug-cc-pvtz', properties = ['dipole'])
--------------------------------------------------------------------------

    Molecular point group: c1
  Charge       = 0
  Multiplicity = 1
  Basis Set: AUG-CC-PVTZ
    Blend: AUG-CC-PVTZ
  Basis Set: (AUG-CC-PVTZ AUX)
    Blend: AUG-CC-PVTZ-JKFIT

    Orbital Energies [Eh]
    ---------------------

    Doubly Occupied:

       1A    -20.553538     2A    -11.280473     3A    -11.237492
       4A    -11.231521     5A    -11.229874     6A    -11.219489
       7A    -11.210058     8A     -1.352673     9A     -1.093140
      10A     -1.035204    11A     -0.970035    12A     -0.871941
      13A     -0.806999    14A     -0.766244    15A     -0.692514
      16A     -0.655548    17A     -0.609465    18A     -0.599266
      19A     -0.577771    20A     -0.542906    21A     -0.531733
      22A     -0.527506    23A     -0.521096    24A     -0.506496
      25A     -0.497373    26A     -0.465995    27A     -0.438519
      28A     -0.347921

  @DF-RHF Final Energy:  -309.13953758906098

   => Energetics <=

    Nuclear Repulsion Energy =            299.2758496524898533
    One-Electron Energy =               -1012.0851930425051250
    Two-Electron Energy =                 403.6698058009543502
    Total Energy =                       -309.1395375890609785
  Basis Set: (AUG-CC-PVTZ AUX)
    Blend: AUG-CC-PVTZ-RI
    Molecular point group: c1

    Geometry (in Angstrom), charge = 0, multiplicity = 1:

       Center              X                  Y                   Z               Mass
    ------------   -----------------  -----------------  -----------------  -----------------
         O           -2.387540856584    -1.064633472692    -0.015986571030    15.994914619570
         C           -1.497242856584     0.014184527308    -0.341631571030    12.000000000000
         C           -0.168666856584    -0.188683472692     0.316666428970    12.000000000000
         C            2.332643143416    -0.481795472692     0.291780428970    12.000000000000
         C            1.014888243416    -0.231348972692    -0.374061771030    12.000000000000
         C           -2.191808856584     1.275637527308     0.134327428970    12.000000000000
         C            3.197564243416     0.740697627308    -0.021307171030    12.000000000000
         H           -1.352914856584     0.066772527308    -1.432900571030     1.007825032230
         H           -0.186346856584    -0.261173472692     1.405590428970     1.007825032230
         H            2.801817143416    -1.397062472692    -0.091011571030     1.007825032230
         H            2.206936143416    -0.618217472692     1.371636428970     1.007825032230
         H            0.978772143416    -0.227780472692    -1.436538571030     1.007825032230
         H           -2.330308856584     1.232469527308     1.217504428970     1.007825032230
         H           -1.596408856584     2.157716527308    -0.113963571030     1.007825032230
         H           -3.173772856584     1.360418527308    -0.336982571030     1.007825032230
         H            2.828454143416     1.625403527308     0.430141428970     1.007825032230
         H            3.400783143416     0.852471527308    -1.053692571030     1.007825032230
         H            4.239690143416     0.553788527308     0.474874428970     1.007825032230
         H           -1.922832856584    -1.887440472692    -0.249686571030     1.007825032230

  Basis Set: AUG-CC-PVTZ
    Blend: AUG-CC-PVTZ
  Basis Set: (AUG-CC-PVTZ AUX)
    Blend: AUG-CC-PVTZ-JKFIT
	 Reference Energy          =    -309.1395375890609785 [Eh]
	 Singles Energy            =      -0.0000000000000000 [Eh]
	 Same-Spin Energy          =      -0.3173889427689424 [Eh]
	 Opposite-Spin Energy      =      -1.1040425689883593 [Eh]
	 Correlation Energy        =      -1.4214315117573018 [Eh]
	 Total Energy              =    -310.5609691008182836 [Eh]

	 ================> DF-SCS-MP2 Energies <==================
	-----------------------------------------------------------
	 SCS Same-Spin Scale       =       0.3333333333333333 [-]
	 SCS Opposite-Spin Scale   =       1.2000000000000000 [-]
	 SCS Same-Spin Energy      =      -0.1057963142563141 [Eh]
	 SCS Opposite-Spin Energy  =      -1.3248510827860311 [Eh]
	 SCS Correlation Energy    =      -1.4306473970423452 [Eh]
	 SCS Total Energy          =    -310.5701849861032997 [Eh]
	-----------------------------------------------------------

  Dipole Moment: [D]
     X:     1.8856      Y:    -0.0713      Z:    -0.5904     Total:     1.9772

*** Psi4 exiting successfully. Buy a developer a beer!
