                               Psi4 1.3.2 release

  ==> Input File <==

--------------------------------------------------------------------------
#psi4
#
memory 32 gb

molecule  {
0 1
  O       -2.3916800    -1.0522970    -0.0243250
  C       -1.5013820     0.0265210    -0.3499700
  C       -0.1728060    -0.1763470     0.3083280
  C        2.3285040    -0.4694590     0.2834420
  C        1.1590342    -0.3048598    -0.4539330
  C       -2.1959480     1.2879740     0.1259890
  C        3.2526380     0.7192940     0.0124360
  H       -1.3570540     0.0791090    -1.4412390
  H       -0.1904860    -0.2488370     1.3972520
  H        2.7976780    -1.3847260    -0.0993500
  H        2.2027970    -0.6058810     1.3632980
  H        0.9746330    -0.2154440    -1.4448770
  H       -2.3344480     1.2448060     1.2091660
  H       -1.6005480     2.1700530    -0.1223020
  H       -3.1779120     1.3727550    -0.3453210
  H        2.8243150     1.6377400     0.4218030
  H        3.3966440     0.8648080    -1.0620310
  H        4.2355510     0.5661250     0.4665360
  H       -1.9269720    -1.8751040    -0.2580250
units angstrom
no_reorient  #important for SAPT in psi4, default
symmetry c1  #important for SAPT in psi4, default
}

set PROPERTIES_ORIGIN ["COM"]
properties('MP2/aug-cc-pvtz', properties = ['dipole'])
--------------------------------------------------------------------------

    Molecular point group: c1
  Charge       = 0
  Multiplicity = 1
  Basis Set: AUG-CC-PVTZ
    Blend: AUG-CC-PVTZ
  Basis Set: (AUG-CC-PVTZ AUX)
    Blend: AUG-CC-PVTZ-JKFIT

    Orbital Energies [Eh]
    ---------------------

    Doubly Occupied:

       1A    -20.552430     2A    -11.281627     3A    -11.253265
       4A    -11.248016     5A    -11.228916     6A    -11.221398
       7A    -11.210081     8A     -1.351640     9A     -1.100575
      10A     -1.035271    11A     -0.955776    12A     -0.883630
      13A     -0.804949    14A     -0.773553    15A     -0.691166
      16A     -0.651088    17A     -0.625111    18A     -0.598449
      19A     -0.576241    20A     -0.547882    21A     -0.528985
      22A     -0.526593    23A     -0.522409    24A     -0.518666
      25A     -0.502460    26A     -0.459367    27A     -0.439792
      28A     -0.312082

  @DF-RHF Final Energy:  -309.09200990331749

   => Energetics <=

    Nuclear Repulsion Energy =            297.7545976386486473
    One-Electron Energy =               -1008.8903718370384013
    Two-Electron Energy =                 402.0437642950722648
    Total Energy =                       -309.0920099033174893
  Basis Set: (AUG-CC-PVTZ AUX)
    Blend: AUG-CC-PVTZ-RI
    Molecular point group: c1

    Geometry (in Angstrom), charge = 0, multiplicity = 1:

       Center              X                  Y                   Z               Mass
    ------------   -----------------  -----------------  -----------------  -----------------
         O           -2.412418521485    -1.050295718769    -0.012455563095    15.994914619570
         C           -1.522120521485     0.028522281231    -0.338100563095    12.000000000000
         C           -0.193544521485    -0.174345718769     0.320197436905    12.000000000000
         C            2.307765478515    -0.467457718769     0.295311436905    12.000000000000
         C            1.138295678515    -0.302858518769    -0.442063563095    12.000000000000
         C           -2.216686521485     1.289975281231     0.137858436905    12.000000000000
         C            3.231899478515     0.721295281231     0.024305436905    12.000000000000
         H           -1.377792521485     0.081110281231    -1.429369563095     1.007825032230
         H           -0.211224521485    -0.246835718769     1.409121436905     1.007825032230
         H            2.776939478515    -1.382724718769    -0.087480563095     1.007825032230
         H            2.182058478515    -0.603879718769     1.375167436905     1.007825032230
         H            0.953894478515    -0.213442718769    -1.433007563095     1.007825032230
         H           -2.355186521485     1.246807281231     1.221035436905     1.007825032230
         H           -1.621286521485     2.172054281231    -0.110432563095     1.007825032230
         H           -3.198650521485     1.374756281231    -0.333451563095     1.007825032230
         H            2.803576478515     1.639741281231     0.433672436905     1.007825032230
         H            3.375905478515     0.866809281231    -1.050161563095     1.007825032230
         H            4.214812478515     0.568126281231     0.478405436905     1.007825032230
         H           -1.947710521485    -1.873102718769    -0.246155563095     1.007825032230

  Basis Set: AUG-CC-PVTZ
    Blend: AUG-CC-PVTZ
  Basis Set: (AUG-CC-PVTZ AUX)
    Blend: AUG-CC-PVTZ-JKFIT
	 Reference Energy          =    -309.0920099033174893 [Eh]
	 Singles Energy            =      -0.0000000000000000 [Eh]
	 Same-Spin Energy          =      -0.3214268721779987 [Eh]
	 Opposite-Spin Energy      =      -1.1113484816289263 [Eh]
	 Correlation Energy        =      -1.4327753538069250 [Eh]
	 Total Energy              =    -310.5247852571243925 [Eh]

	 ================> DF-SCS-MP2 Energies <==================
	-----------------------------------------------------------
	 SCS Same-Spin Scale       =       0.3333333333333333 [-]
	 SCS Opposite-Spin Scale   =       1.2000000000000000 [-]
	 SCS Same-Spin Energy      =      -0.1071422907259996 [Eh]
	 SCS Opposite-Spin Energy  =      -1.3336181779547116 [Eh]
	 SCS Correlation Energy    =      -1.4407604686807112 [Eh]
	 SCS Total Energy          =    -310.5327703719981969 [Eh]
	-----------------------------------------------------------

  Dipole Moment: [D]
     X:     2.0731      Y:    -0.0030      Z:    -0.5724     Total:     2.1507

*** Psi4 exiting successfully. Buy a developer a beer!
