                               Psi4 1.3.2 release

  ==> Input File <==

--------------------------------------------------------------------------
#psi4
#
memory 32 gb

molecule  {
0 1
  O       -2.3916800    -1.0522970    -0.0243250
  C       -1.5013820     0.0265210    -0.3499700
  C       -0.1728060    -0.1763470     0.3083280
  C        2.3285040    -0.4694590     0.2834420
  C        0.9860590    -0.2881690    -0.3549330
  C       -2.1959480     1.2879740     0.1259890
  C        3.2526380     0.7192940     0.0124360
  H       -1.3570540     0.0791090    -1.4412390
  H       -0.1904860    -0.2488370     1.3972520
  H        2.7976780    -1.3847260    -0.0993500
  H        2.2027970    -0.6058810     1.3632980
  H        0.9746330    -0.2154440    -1.4448770
  H       -2.3344480     1.2448060     1.2091660
  H       -1.6005480     2.1700530    -0.1223020
  H       -3.1779120     1.3727550    -0.3453210
  H        2.8243150     1.6377400     0.4218030
  H        3.3966440     0.8648080    -1.0620310
  H        4.2355510     0.5661250     0.4665360
  H       -1.9269720    -1.8751040    -0.2580250
units angstrom
no_reorient  #important for SAPT in psi4, default
symmetry c1  #important for SAPT in psi4, default
}

set PROPERTIES_ORIGIN ["COM"]
properties('MP2/aug-cc-pvtz', properties = ['dipole'])
--------------------------------------------------------------------------

    Molecular point group: c1
  Charge       = 0
  Multiplicity = 1
  Basis Set: AUG-CC-PVTZ
    Blend: AUG-CC-PVTZ
  Basis Set: (AUG-CC-PVTZ AUX)
    Blend: AUG-CC-PVTZ-JKFIT

    Orbital Energies [Eh]
    ---------------------

    Doubly Occupied:

       1A    -20.553653     2A    -11.281145     3A    -11.236154
       4A    -11.230617     5A    -11.226256     6A    -11.219619
       7A    -11.210720     8A     -1.352874     9A     -1.094614
      10A     -1.034998    11A     -0.974675    12A     -0.873304
      13A     -0.807464    14A     -0.760745    15A     -0.692918
      16A     -0.654211    17A     -0.610763    18A     -0.594595
      19A     -0.578352    20A     -0.538768    21A     -0.536158
      22A     -0.527841    23A     -0.521697    24A     -0.510351
      25A     -0.487350    26A     -0.471338    27A     -0.440764
      28A     -0.356695

  @DF-RHF Final Energy:  -309.15185966149409

   => Energetics <=

    Nuclear Repulsion Energy =            299.1459426634010015
    One-Electron Energy =               -1011.8383297927443891
    Two-Electron Energy =                 403.5405274678493015
    Total Energy =                       -309.1518596614940861
  Basis Set: (AUG-CC-PVTZ AUX)
    Blend: AUG-CC-PVTZ-RI
    Molecular point group: c1

    Geometry (in Angstrom), charge = 0, multiplicity = 1:

       Center              X                  Y                   Z               Mass
    ------------   -----------------  -----------------  -----------------  -----------------
         O           -2.391679916478    -1.052296837475    -0.024325021235    15.994914619570
         C           -1.501381916478     0.026521162525    -0.349970021235    12.000000000000
         C           -0.172805916478    -0.176346837475     0.308327978765    12.000000000000
         C            2.328504083522    -0.469458837475     0.283441978765    12.000000000000
         C            0.986059083522    -0.288168837475    -0.354933021235    12.000000000000
         C           -2.195947916478     1.287974162525     0.125988978765    12.000000000000
         C            3.252638083522     0.719294162525     0.012435978765    12.000000000000
         H           -1.357053916478     0.079109162525    -1.441239021235     1.007825032230
         H           -0.190485916478    -0.248836837475     1.397251978765     1.007825032230
         H            2.797678083522    -1.384725837475    -0.099350021235     1.007825032230
         H            2.202797083522    -0.605880837475     1.363297978765     1.007825032230
         H            0.974633083522    -0.215443837475    -1.444877021235     1.007825032230
         H           -2.334447916478     1.244806162525     1.209165978765     1.007825032230
         H           -1.600547916478     2.170053162525    -0.122302021235     1.007825032230
         H           -3.177911916478     1.372755162525    -0.345321021235     1.007825032230
         H            2.824315083522     1.637740162525     0.421802978765     1.007825032230
         H            3.396644083522     0.864808162525    -1.062031021235     1.007825032230
         H            4.235551083522     0.566125162525     0.466535978765     1.007825032230
         H           -1.926971916478    -1.875103837475    -0.258025021235     1.007825032230

  Basis Set: AUG-CC-PVTZ
    Blend: AUG-CC-PVTZ
  Basis Set: (AUG-CC-PVTZ AUX)
    Blend: AUG-CC-PVTZ-JKFIT
	 Reference Energy          =    -309.1518596614940861 [Eh]
	 Singles Energy            =      -0.0000000000000000 [Eh]
	 Same-Spin Energy          =      -0.3167124169668893 [Eh]
	 Opposite-Spin Energy      =      -1.1024319166413159 [Eh]
	 Correlation Energy        =      -1.4191443336082052 [Eh]
	 Total Energy              =    -310.5710039951022736 [Eh]

	 ================> DF-SCS-MP2 Energies <==================
	-----------------------------------------------------------
	 SCS Same-Spin Scale       =       0.3333333333333333 [-]
	 SCS Opposite-Spin Scale   =       1.2000000000000000 [-]
	 SCS Same-Spin Energy      =      -0.1055708056556298 [Eh]
	 SCS Opposite-Spin Energy  =      -1.3229182999695790 [Eh]
	 SCS Correlation Energy    =      -1.4284891056252087 [Eh]
	 SCS Total Energy          =    -310.5803487671192897 [Eh]
	-----------------------------------------------------------

  Dipole Moment: [D]
     X:     1.9142      Y:     0.0072      Z:    -0.5535     Total:     1.9926

*** Psi4 exiting successfully. Buy a developer a beer!
