                               Psi4 1.4a3.dev225

  ==> Input File <==

--------------------------------------------------------------------------
#psi4
#
memory 32 gb

molecule  {
0 1
  O        2.4733480    -1.0180220    -0.0592030
  C        1.5612870     0.0272190     0.3186860
  C        0.2420123    -0.1867118    -0.3131224
  C       -2.2699720    -0.5538550    -0.2568310
  C       -0.9183080    -0.3574540     0.3612590
  C        2.2155680     1.3228410    -0.1266610
  C       -3.2245640     0.5955150     0.0801580
  H        1.4362950     0.0398890     1.4137890
  H        0.2208170    -0.2229080    -1.4128920
  H       -2.7032570    -1.4976940     0.0989920
  H       -2.1635450    -0.6441890    -1.3439560
  H       -0.8861850    -0.3229140     1.4529890
  H        2.3348110     1.3198720    -1.2134080
  H        1.6025990     2.1805020     0.1626330
  H        3.2041590     1.4168830     0.3297970
  H       -2.8327200     1.5423190    -0.3012060
  H       -3.3500700     0.6943310     1.1626160
  H       -4.2121190     0.4296020    -0.3601990
  H        2.0333780    -1.8594800     0.1548220
units angstrom
no_reorient  #important for SAPT in psi4, default
symmetry c1  #important for SAPT in psi4, default
}

set PROPERTIES_ORIGIN ["COM"]
properties('MP2/aug-cc-pvtz', properties = ['dipole'])
--------------------------------------------------------------------------

    Molecular point group: c1
  Charge       = 0
  Multiplicity = 1
  Basis Set: AUG-CC-PVTZ
    Blend: AUG-CC-PVTZ
  Basis Set: (AUG-CC-PVTZ AUX)
    Blend: AUG-CC-PVTZ-JKFIT

    Orbital Energies [Eh]
    ---------------------

    Doubly Occupied:

       1A    -20.553618     2A    -11.280737     3A    -11.238677
       4A    -11.231878     5A    -11.228254     6A    -11.220333
       7A    -11.211272     8A     -1.352722     9A     -1.093362
      10A     -1.036458    11A     -0.973239    12A     -0.875005
      13A     -0.807927    14A     -0.759745    15A     -0.693160
      16A     -0.654188    17A     -0.610437    18A     -0.593994
      19A     -0.578842    20A     -0.537012    21A     -0.535791
      22A     -0.528027    23A     -0.521739    24A     -0.509860
      25A     -0.486976    26A     -0.472776    27A     -0.443278
      28A     -0.353796

  @DF-RHF Final Energy:  -309.15041563477035

   => Energetics <=

    Nuclear Repulsion Energy =            298.9187863463380950
    One-Electron Energy =               -1011.3721941445932089
    Two-Electron Energy =                 403.3029921634847028
    Total Energy =                       -309.1504156347703542
  Basis Set: (AUG-CC-PVTZ AUX)
    Blend: AUG-CC-PVTZ-RI
    Molecular point group: c1

    Geometry (in Angstrom), charge = 0, multiplicity = 1:

       Center              X                  Y                   Z               Mass
    ------------   -----------------  -----------------  -----------------  -----------------
         O            2.418638229600    -0.987926328423    -0.058803553713    15.994914619570
         C            1.506577229600     0.057314671577     0.319085446287    12.000000000000
         C            0.187302529600    -0.156616128423    -0.312722953713    12.000000000000
         C           -2.324681770400    -0.523759328423    -0.256431553713    12.000000000000
         C           -0.973017770400    -0.327358328423     0.361658446287    12.000000000000
         C            2.160858229600     1.352936671577    -0.126261553713    12.000000000000
         C           -3.279273770400     0.625610671577     0.080557446287    12.000000000000
         H            1.381585229600     0.069984671577     1.414188446287     1.007825032230
         H            0.166107229600    -0.192812328423    -1.412492553713     1.007825032230
         H           -2.757966770400    -1.467598328423     0.099391446287     1.007825032230
         H           -2.218254770400    -0.614093328423    -1.343556553713     1.007825032230
         H           -0.940894770400    -0.292818328423     1.453388446287     1.007825032230
         H            2.280101229600     1.349967671577    -1.213008553713     1.007825032230
         H            1.547889229600     2.210597671577     0.163032446287     1.007825032230
         H            3.149449229600     1.446978671577     0.330196446287     1.007825032230
         H           -2.887429770400     1.572414671577    -0.300806553713     1.007825032230
         H           -3.404779770400     0.724426671577     1.163015446287     1.007825032230
         H           -4.266828770400     0.459697671577    -0.359799553713     1.007825032230
         H            1.978668229600    -1.829384328423     0.155221446287     1.007825032230

  Basis Set: AUG-CC-PVTZ
    Blend: AUG-CC-PVTZ
  Basis Set: (AUG-CC-PVTZ AUX)
    Blend: AUG-CC-PVTZ-JKFIT
	 Reference Energy          =    -309.1504156347703542 [Eh]
	 Singles Energy            =      -0.0000000000000000 [Eh]
	 Same-Spin Energy          =      -0.3169813821228685 [Eh]
	 Opposite-Spin Energy      =      -1.1030026639783150 [Eh]
	 Correlation Energy        =      -1.4199840461011837 [Eh]
	 Total Energy              =    -310.5703996808715601 [Eh]

	 ================> DF-SCS-MP2 Energies <==================
	-----------------------------------------------------------
	 SCS Same-Spin Scale       =       0.3333333333333333 [-]
	 SCS Opposite-Spin Scale   =       1.2000000000000000 [-]
	 SCS Same-Spin Energy      =      -0.1056604607076228 [Eh]
	 SCS Opposite-Spin Energy  =      -1.3236031967739781 [Eh]
	 SCS Correlation Energy    =      -1.4292636574816009 [Eh]
	 SCS Total Energy          =    -310.5796792922519671 [Eh]
	-----------------------------------------------------------

  Dipole Moment: [D]
     X:    -1.9211      Y:    -0.0519      Z:     0.5897     Total:     2.0103

*** Psi4 exiting successfully. Buy a developer a beer!
