                               Psi4 1.3.2 release

  ==> Input File <==

--------------------------------------------------------------------------
#psi4
#
memory 32 gb

molecule  {
0 1
  O       -2.3916800    -1.0522970    -0.0243250
  C       -1.5013820     0.0265210    -0.3499700
  C       -0.1728060    -0.1763470     0.3083280
  C        2.3285040    -0.4694590     0.2834420
  C        1.0221910    -0.2814145    -0.4241827
  C       -2.1959480     1.2879740     0.1259890
  C        3.2526380     0.7192940     0.0124360
  H       -1.3570540     0.0791090    -1.4412390
  H       -0.1904860    -0.2488370     1.3972520
  H        2.7976780    -1.3847260    -0.0993500
  H        2.2597913    -0.6105385     1.3678208
  H        0.9746330    -0.2154440    -1.4448770
  H       -2.3344480     1.2448060     1.2091660
  H       -1.6005480     2.1700530    -0.1223020
  H       -3.1779120     1.3727550    -0.3453210
  H        2.8243150     1.6377400     0.4218030
  H        3.3966440     0.8648080    -1.0620310
  H        4.2355510     0.5661250     0.4665360
  H       -1.9269720    -1.8751040    -0.2580250
units angstrom
no_reorient  #important for SAPT in psi4, default
symmetry c1  #important for SAPT in psi4, default
}

set PROPERTIES_ORIGIN ["COM"]
properties('MP2/aug-cc-pvtz', properties = ['dipole'])
--------------------------------------------------------------------------

    Molecular point group: c1
  Charge       = 0
  Multiplicity = 1
  Basis Set: AUG-CC-PVTZ
    Blend: AUG-CC-PVTZ
  Basis Set: (AUG-CC-PVTZ AUX)
    Blend: AUG-CC-PVTZ-JKFIT

    Orbital Energies [Eh]
    ---------------------

    Doubly Occupied:

       1A    -20.553139     2A    -11.280490     3A    -11.240808
       4A    -11.235742     5A    -11.230941     6A    -11.218294
       7A    -11.210363     8A     -1.352393     9A     -1.088852
      10A     -1.034421    11A     -0.968241    12A     -0.873018
      13A     -0.805763    14A     -0.772322    15A     -0.692084
      16A     -0.652768    17A     -0.608718    18A     -0.597086
      19A     -0.577388    20A     -0.546115    21A     -0.533163
      22A     -0.526985    23A     -0.521415    24A     -0.511667
      25A     -0.493453    26A     -0.467564    27A     -0.439852
      28A     -0.342198

  @DF-RHF Final Energy:  -309.13957036760667

   => Energetics <=

    Nuclear Repulsion Energy =            298.3583198256781088
    One-Electron Energy =               -1010.2452941431060935
    Two-Electron Energy =                 402.7474039498213187
    Total Energy =                       -309.1395703676066660
  Basis Set: (AUG-CC-PVTZ AUX)
    Blend: AUG-CC-PVTZ-RI
    Molecular point group: c1

    Geometry (in Angstrom), charge = 0, multiplicity = 1:

       Center              X                  Y                   Z               Mass
    ------------   -----------------  -----------------  -----------------  -----------------
         O           -2.396585802138    -1.053059760434    -0.016067972644    15.994914619570
         C           -1.506287802138     0.025758239566    -0.341712972644    12.000000000000
         C           -0.177711802138    -0.177109760434     0.316585027356    12.000000000000
         C            2.323598197862    -0.470221760434     0.291699027356    12.000000000000
         C            1.017285197862    -0.282177260434    -0.415925672644    12.000000000000
         C           -2.200853802138     1.287211239566     0.134246027356    12.000000000000
         C            3.247732197862     0.718531239566     0.020693027356    12.000000000000
         H           -1.361959802138     0.078346239566    -1.432981972644     1.007825032230
         H           -0.195391802138    -0.249599760434     1.405509027356     1.007825032230
         H            2.792772197862    -1.385488760434    -0.091092972644     1.007825032230
         H            2.254885497862    -0.611301260434     1.376077827356     1.007825032230
         H            0.969727197862    -0.216206760434    -1.436619972644     1.007825032230
         H           -2.339353802138     1.244043239566     1.217423027356     1.007825032230
         H           -1.605453802138     2.169290239566    -0.114044972644     1.007825032230
         H           -3.182817802138     1.371992239566    -0.337063972644     1.007825032230
         H            2.819409197862     1.636977239566     0.430060027356     1.007825032230
         H            3.391738197862     0.864045239566    -1.053773972644     1.007825032230
         H            4.230645197862     0.565362239566     0.474793027356     1.007825032230
         H           -1.931877802138    -1.875866760434    -0.249767972644     1.007825032230

  Basis Set: AUG-CC-PVTZ
    Blend: AUG-CC-PVTZ
  Basis Set: (AUG-CC-PVTZ AUX)
    Blend: AUG-CC-PVTZ-JKFIT
	 Reference Energy          =    -309.1395703676066660 [Eh]
	 Singles Energy            =      -0.0000000000000000 [Eh]
	 Same-Spin Energy          =      -0.3174678704505445 [Eh]
	 Opposite-Spin Energy      =      -1.1043801333509948 [Eh]
	 Correlation Energy        =      -1.4218480038015393 [Eh]
	 Total Energy              =    -310.5614183714081946 [Eh]

	 ================> DF-SCS-MP2 Energies <==================
	-----------------------------------------------------------
	 SCS Same-Spin Scale       =       0.3333333333333333 [-]
	 SCS Opposite-Spin Scale   =       1.2000000000000000 [-]
	 SCS Same-Spin Energy      =      -0.1058226234835148 [Eh]
	 SCS Opposite-Spin Energy  =      -1.3252561600211938 [Eh]
	 SCS Correlation Energy    =      -1.4310787835047087 [Eh]
	 SCS Total Energy          =    -310.5706491511113541 [Eh]
	-----------------------------------------------------------

  Dipole Moment: [D]
     X:     1.9206      Y:    -0.0116      Z:    -0.5631     Total:     2.0015

*** Psi4 exiting successfully. Buy a developer a beer!
