                               Psi4 1.4a3.dev225

  ==> Input File <==

--------------------------------------------------------------------------
#psi4
#
memory 32 gb

molecule  {
0 1
  O        2.4733480    -1.0180220    -0.0592030
  C        1.5612870     0.0272190     0.3186860
  C        0.2241640    -0.1896060    -0.3216700
  C       -2.2699720    -0.5538550    -0.2568310
  C       -0.9633875    -0.3640042     0.3406450
  C        2.2155680     1.3228410    -0.1266610
  C       -3.2245640     0.5955150     0.0801580
  H        1.4362950     0.0398890     1.4137890
  H        0.2208170    -0.2229080    -1.4128920
  H       -2.7032570    -1.4976940     0.0989920
  H       -2.1635450    -0.6441890    -1.3439560
  H       -0.8861850    -0.3229140     1.4529890
  H        2.3348110     1.3198720    -1.2134080
  H        1.6025990     2.1805020     0.1626330
  H        3.2041590     1.4168830     0.3297970
  H       -2.8327200     1.5423190    -0.3012060
  H       -3.3500700     0.6943310     1.1626160
  H       -4.2121190     0.4296020    -0.3601990
  H        2.0333780    -1.8594800     0.1548220
units angstrom
no_reorient  #important for SAPT in psi4, default
symmetry c1  #important for SAPT in psi4, default
}

set PROPERTIES_ORIGIN ["COM"]
properties('MP2/aug-cc-pvtz', properties = ['dipole'])
--------------------------------------------------------------------------

    Molecular point group: c1
  Charge       = 0
  Multiplicity = 1
  Basis Set: AUG-CC-PVTZ
    Blend: AUG-CC-PVTZ
  Basis Set: (AUG-CC-PVTZ AUX)
    Blend: AUG-CC-PVTZ-JKFIT

    Orbital Energies [Eh]
    ---------------------

    Doubly Occupied:

       1A    -20.553910     2A    -11.282880     3A    -11.240917
       4A    -11.230380     5A    -11.229447     6A    -11.221069
       7A    -11.211369     8A     -1.352453     9A     -1.096810
      10A     -1.036408    11A     -0.971127    12A     -0.878532
      13A     -0.807119    14A     -0.757544    15A     -0.692759
      16A     -0.653195    17A     -0.615644    18A     -0.594202
      19A     -0.577960    20A     -0.539737    21A     -0.532916
      22A     -0.528271    23A     -0.522241    24A     -0.511901
      25A     -0.484321    26A     -0.476816    27A     -0.442549
      28A     -0.348292

  @DF-RHF Final Energy:  -309.14653223344925

   => Energetics <=

    Nuclear Repulsion Energy =            298.7969166089999362
    One-Electron Energy =               -1011.1053620323481255
    Two-Electron Energy =                 403.1619131898989394
    Total Energy =                       -309.1465322334492498
  Basis Set: (AUG-CC-PVTZ AUX)
    Blend: AUG-CC-PVTZ-RI
    Molecular point group: c1

    Geometry (in Angstrom), charge = 0, multiplicity = 1:

       Center              X                  Y                   Z               Mass
    ------------   -----------------  -----------------  -----------------  -----------------
         O            2.426182864831    -0.986794006095    -0.055307266940    15.994914619570
         C            1.514121864831     0.058446993905     0.322581733060    12.000000000000
         C            0.176998864831    -0.158378006095    -0.317774266940    12.000000000000
         C           -2.317137135169    -0.522627006095    -0.252935266940    12.000000000000
         C           -1.010552635169    -0.332776206095     0.344540733060    12.000000000000
         C            2.168402864831     1.354068993905    -0.122765266940    12.000000000000
         C           -3.271729135169     0.626742993905     0.084053733060    12.000000000000
         H            1.389129864831     0.071116993905     1.417684733060     1.007825032230
         H            0.173651864831    -0.191680006095    -1.408996266940     1.007825032230
         H           -2.750422135169    -1.466466006095     0.102887733060     1.007825032230
         H           -2.210710135169    -0.612961006095    -1.340060266940     1.007825032230
         H           -0.933350135169    -0.291686006095     1.456884733060     1.007825032230
         H            2.287645864831     1.351099993905    -1.209512266940     1.007825032230
         H            1.555433864831     2.211729993905     0.166528733060     1.007825032230
         H            3.156993864831     1.448110993905     0.333692733060     1.007825032230
         H           -2.879885135169     1.573546993905    -0.297310266940     1.007825032230
         H           -3.397235135169     0.725558993905     1.166511733060     1.007825032230
         H           -4.259284135169     0.460829993905    -0.356303266940     1.007825032230
         H            1.986212864831    -1.828252006095     0.158717733060     1.007825032230

  Basis Set: AUG-CC-PVTZ
    Blend: AUG-CC-PVTZ
  Basis Set: (AUG-CC-PVTZ AUX)
    Blend: AUG-CC-PVTZ-JKFIT
	 Reference Energy          =    -309.1465322334492498 [Eh]
	 Singles Energy            =      -0.0000000000000000 [Eh]
	 Same-Spin Energy          =      -0.3175519215144329 [Eh]
	 Opposite-Spin Energy      =      -1.1038775033382813 [Eh]
	 Correlation Energy        =      -1.4214294248527142 [Eh]
	 Total Energy              =    -310.5679616583019538 [Eh]

	 ================> DF-SCS-MP2 Energies <==================
	-----------------------------------------------------------
	 SCS Same-Spin Scale       =       0.3333333333333333 [-]
	 SCS Opposite-Spin Scale   =       1.2000000000000000 [-]
	 SCS Same-Spin Energy      =      -0.1058506405048110 [Eh]
	 SCS Opposite-Spin Energy  =      -1.3246530040059374 [Eh]
	 SCS Correlation Energy    =      -1.4305036445107484 [Eh]
	 SCS Total Energy          =    -310.5770358779599860 [Eh]
	-----------------------------------------------------------

  Dipole Moment: [D]
     X:    -1.9578      Y:    -0.0604      Z:     0.5776     Total:     2.0421

*** Psi4 exiting successfully. Buy a developer a beer!
