                               Psi4 1.3.2 release

  ==> Input File <==

--------------------------------------------------------------------------
#psi4
#
memory 32 gb

molecule  {
0 1
  O       -2.3916800    -1.0522970    -0.0243250
  C       -1.5186113     0.0428673    -0.3419565
  C       -0.1728060    -0.1763470     0.3083280
  C        2.3285040    -0.4694590     0.2834420
  C        0.9860590    -0.2881690    -0.3549330
  C       -2.1959480     1.2879740     0.1259890
  C        3.2526380     0.7192940     0.0124360
  H       -1.3570540     0.0791090    -1.4412390
  H       -0.1904860    -0.2488370     1.3972520
  H        2.7976780    -1.3847260    -0.0993500
  H        2.2027970    -0.6058810     1.3632980
  H        0.9746330    -0.2154440    -1.4448770
  H       -2.3344480     1.2448060     1.2091660
  H       -1.6005480     2.1700530    -0.1223020
  H       -3.1779120     1.3727550    -0.3453210
  H        2.8243150     1.6377400     0.4218030
  H        3.3966440     0.8648080    -1.0620310
  H        4.2355510     0.5661250     0.4665360
  H       -1.9404362    -1.8840282    -0.2527604
units angstrom
no_reorient  #important for SAPT in psi4, default
symmetry c1  #important for SAPT in psi4, default
}

set PROPERTIES_ORIGIN ["COM"]
properties('MP2/aug-cc-pvtz', properties = ['dipole'])
--------------------------------------------------------------------------

    Molecular point group: c1
  Charge       = 0
  Multiplicity = 1
  Basis Set: AUG-CC-PVTZ
    Blend: AUG-CC-PVTZ
  Basis Set: (AUG-CC-PVTZ AUX)
    Blend: AUG-CC-PVTZ-JKFIT

    Orbital Energies [Eh]
    ---------------------

    Doubly Occupied:

       1A    -20.552711     2A    -11.282228     3A    -11.235511
       4A    -11.230272     5A    -11.226404     6A    -11.219350
       7A    -11.210562     8A     -1.351701     9A     -1.093532
      10A     -1.036784    11A     -0.977059    12A     -0.872103
      13A     -0.806946    14A     -0.759532    15A     -0.693857
      16A     -0.653159    17A     -0.610637    18A     -0.594166
      19A     -0.578739    20A     -0.538838    21A     -0.535961
      22A     -0.530913    23A     -0.521142    24A     -0.510737
      25A     -0.487086    26A     -0.471976    27A     -0.436537
      28A     -0.356575

  @DF-RHF Final Energy:  -309.15137476066803

   => Energetics <=

    Nuclear Repulsion Energy =            299.0911473808633900
    One-Electron Energy =               -1011.7350076773244609
    Two-Electron Energy =                 403.4924855357930369
    Total Energy =                       -309.1513747606680340
  Basis Set: (AUG-CC-PVTZ AUX)
    Blend: AUG-CC-PVTZ-RI
    Molecular point group: c1

    Geometry (in Angstrom), charge = 0, multiplicity = 1:

       Center              X                  Y                   Z               Mass
    ------------   -----------------  -----------------  -----------------  -----------------
         O           -2.389478659946    -1.054166792353    -0.025338798805    15.994914619570
         C           -1.516409959946     0.040997507647    -0.342970298805    12.000000000000
         C           -0.170604659946    -0.178216792353     0.307314201195    12.000000000000
         C            2.330705340054    -0.471328792353     0.282428201195    12.000000000000
         C            0.988260340054    -0.290038792353    -0.355946798805    12.000000000000
         C           -2.193746659946     1.286104207647     0.124975201195    12.000000000000
         C            3.254839340054     0.717424207647     0.011422201195    12.000000000000
         H           -1.354852659946     0.077239207647    -1.442252798805     1.007825032230
         H           -0.188284659946    -0.250706792353     1.396238201195     1.007825032230
         H            2.799879340054    -1.386595792353    -0.100363798805     1.007825032230
         H            2.204998340054    -0.607750792353     1.362284201195     1.007825032230
         H            0.976834340054    -0.217313792353    -1.445890798805     1.007825032230
         H           -2.332246659946     1.242936207647     1.208152201195     1.007825032230
         H           -1.598346659946     2.168183207647    -0.123315798805     1.007825032230
         H           -3.175710659946     1.370885207647    -0.346334798805     1.007825032230
         H            2.826516340054     1.635870207647     0.420789201195     1.007825032230
         H            3.398845340054     0.862938207647    -1.063044798805     1.007825032230
         H            4.237752340054     0.564255207647     0.465522201195     1.007825032230
         H           -1.938234859946    -1.885897992353    -0.253774198805     1.007825032230

  Basis Set: AUG-CC-PVTZ
    Blend: AUG-CC-PVTZ
  Basis Set: (AUG-CC-PVTZ AUX)
    Blend: AUG-CC-PVTZ-JKFIT
	 Reference Energy          =    -309.1513747606680340 [Eh]
	 Singles Energy            =      -0.0000000000000000 [Eh]
	 Same-Spin Energy          =      -0.3166778273613410 [Eh]
	 Opposite-Spin Energy      =      -1.1023225239281369 [Eh]
	 Correlation Energy        =      -1.4190003512894780 [Eh]
	 Total Energy              =    -310.5703751119575031 [Eh]

	 ================> DF-SCS-MP2 Energies <==================
	-----------------------------------------------------------
	 SCS Same-Spin Scale       =       0.3333333333333333 [-]
	 SCS Opposite-Spin Scale   =       1.2000000000000000 [-]
	 SCS Same-Spin Energy      =      -0.1055592757871137 [Eh]
	 SCS Opposite-Spin Energy  =      -1.3227870287137642 [Eh]
	 SCS Correlation Energy    =      -1.4283463045008777 [Eh]
	 SCS Total Energy          =    -310.5797210651689397 [Eh]
	-----------------------------------------------------------

  Dipole Moment: [D]
     X:     1.8609      Y:     0.0306      Z:    -0.5391     Total:     1.9377

*** Psi4 exiting successfully. Buy a developer a beer!
