                               Psi4 1.3.2 release

  ==> Input File <==

--------------------------------------------------------------------------
#psi4
#
memory 32 gb

molecule  {
0 1
  O       -2.3997827    -1.0440680    -0.0194570
  C       -1.5013820     0.0265210    -0.3499700
  C       -0.1728060    -0.1763470     0.3083280
  C        2.3285040    -0.4694590     0.2834420
  C        0.9860590    -0.2881690    -0.3549330
  C       -2.2061399     1.2806848     0.1302509
  C        3.2526380     0.7192940     0.0124360
  H       -1.3570540     0.0791090    -1.4412390
  H       -0.1904860    -0.2488370     1.3972520
  H        2.7976780    -1.3847260    -0.0993500
  H        2.2027970    -0.6058810     1.3632980
  H        0.9746330    -0.2154440    -1.4448770
  H       -2.3344480     1.2448060     1.2091660
  H       -1.6005480     2.1700530    -0.1223020
  H       -3.1779120     1.3727550    -0.3453210
  H        2.8243150     1.6377400     0.4218030
  H        3.3966440     0.8648080    -1.0620310
  H        4.2355510     0.5661250     0.4665360
  H       -1.9269720    -1.8751040    -0.2580250
units angstrom
no_reorient  #important for SAPT in psi4, default
symmetry c1  #important for SAPT in psi4, default
}

set PROPERTIES_ORIGIN ["COM"]
properties('MP2/aug-cc-pvtz', properties = ['dipole'])
--------------------------------------------------------------------------

    Molecular point group: c1
  Charge       = 0
  Multiplicity = 1
  Basis Set: AUG-CC-PVTZ
    Blend: AUG-CC-PVTZ
  Basis Set: (AUG-CC-PVTZ AUX)
    Blend: AUG-CC-PVTZ-JKFIT

    Orbital Energies [Eh]
    ---------------------

    Doubly Occupied:

       1A    -20.554830     2A    -11.280892     3A    -11.236539
       4A    -11.230821     5A    -11.226508     6A    -11.219751
       7A    -11.210206     8A     -1.350864     9A     -1.094636
      10A     -1.034360    11A     -0.974566    12A     -0.873454
      13A     -0.806839    14A     -0.760771    15A     -0.690406
      16A     -0.654589    17A     -0.610871    18A     -0.595059
      19A     -0.578251    20A     -0.539459    21A     -0.536661
      22A     -0.523956    23A     -0.521248    24A     -0.510185
      25A     -0.487511    26A     -0.472093    27A     -0.441160
      28A     -0.357000

  @DF-RHF Final Energy:  -309.15053439865176

   => Energetics <=

    Nuclear Repulsion Energy =            299.0898561907902149
    One-Electron Energy =               -1011.7338110559232973
    Two-Electron Energy =                 403.4934204664813251
    Total Energy =                       -309.1505343986517573
  Basis Set: (AUG-CC-PVTZ AUX)
    Blend: AUG-CC-PVTZ-RI
    Molecular point group: c1

    Geometry (in Angstrom), charge = 0, multiplicity = 1:

       Center              X                  Y                   Z               Mass
    ------------   -----------------  -----------------  -----------------  -----------------
         O           -2.397265803838    -1.044508963213    -0.020745936928    15.994914619570
         C           -1.498865103838     0.026080036787    -0.351258936928    12.000000000000
         C           -0.170289103838    -0.176787963213     0.307039063072    12.000000000000
         C            2.331020896162    -0.469899963213     0.282153063072    12.000000000000
         C            0.988575896162    -0.288609963213    -0.356221936928    12.000000000000
         C           -2.203623003838     1.280243836787     0.128961963072    12.000000000000
         C            3.255154896162     0.718853036787     0.011147063072    12.000000000000
         H           -1.354537103838     0.078668036787    -1.442527936928     1.007825032230
         H           -0.187969103838    -0.249277963213     1.395963063072     1.007825032230
         H            2.800194896162    -1.385166963213    -0.100638936928     1.007825032230
         H            2.205313896162    -0.606321963213     1.362009063072     1.007825032230
         H            0.977149896162    -0.215884963213    -1.446165936928     1.007825032230
         H           -2.331931103838     1.244365036787     1.207877063072     1.007825032230
         H           -1.598031103838     2.169612036787    -0.123590936928     1.007825032230
         H           -3.175395103838     1.372314036787    -0.346609936928     1.007825032230
         H            2.826831896162     1.637299036787     0.420514063072     1.007825032230
         H            3.399160896162     0.864367036787    -1.063319936928     1.007825032230
         H            4.238067896162     0.565684036787     0.465247063072     1.007825032230
         H           -1.924455103838    -1.875544963213    -0.259313936928     1.007825032230

  Basis Set: AUG-CC-PVTZ
    Blend: AUG-CC-PVTZ
  Basis Set: (AUG-CC-PVTZ AUX)
    Blend: AUG-CC-PVTZ-JKFIT
	 Reference Energy          =    -309.1505343986517573 [Eh]
	 Singles Energy            =      -0.0000000000000000 [Eh]
	 Same-Spin Energy          =      -0.3169102211688177 [Eh]
	 Opposite-Spin Energy      =      -1.1029207351658554 [Eh]
	 Correlation Energy        =      -1.4198309563346732 [Eh]
	 Total Energy              =    -310.5703653549864498 [Eh]

	 ================> DF-SCS-MP2 Energies <==================
	-----------------------------------------------------------
	 SCS Same-Spin Scale       =       0.3333333333333333 [-]
	 SCS Opposite-Spin Scale   =       1.2000000000000000 [-]
	 SCS Same-Spin Energy      =      -0.1056367403896059 [Eh]
	 SCS Opposite-Spin Energy  =      -1.3235048821990265 [Eh]
	 SCS Correlation Energy    =      -1.4291416225886324 [Eh]
	 SCS Total Energy          =    -310.5796760212404024 [Eh]
	-----------------------------------------------------------

  Dipole Moment: [D]
     X:     1.9312      Y:    -0.0131      Z:    -0.5579     Total:     2.0103

*** Psi4 exiting successfully. Buy a developer a beer!
