                               Psi4 1.3.2 release

  ==> Input File <==

--------------------------------------------------------------------------
#psi4
#
memory 32 gb

molecule  {
0 1
  O       -2.3916800    -1.0522970    -0.0243250
  C       -1.5013820     0.0265210    -0.3499700
  C       -0.1728060    -0.1763470     0.3083280
  C        2.3228206    -0.4696412     0.2952082
  C        0.9860590    -0.2881690    -0.3549330
  C       -2.1959480     1.2879740     0.1259890
  C        3.2526380     0.7192940     0.0124360
  H       -1.3570540     0.0791090    -1.4412390
  H       -0.1904860    -0.2488370     1.3972520
  H        2.7976780    -1.3847260    -0.0993500
  H        2.2027970    -0.6058810     1.3632980
  H        0.9651516    -0.2144730    -1.4446711
  H       -2.3344480     1.2448060     1.2091660
  H       -1.6005480     2.1700530    -0.1223020
  H       -3.1779120     1.3727550    -0.3453210
  H        2.8243150     1.6377400     0.4218030
  H        3.3966440     0.8648080    -1.0620310
  H        4.2355510     0.5661250     0.4665360
  H       -1.9269720    -1.8751040    -0.2580250
units angstrom
no_reorient  #important for SAPT in psi4, default
symmetry c1  #important for SAPT in psi4, default
}

set PROPERTIES_ORIGIN ["COM"]
properties('MP2/aug-cc-pvtz', properties = ['dipole'])
--------------------------------------------------------------------------

    Molecular point group: c1
  Charge       = 0
  Multiplicity = 1
  Basis Set: AUG-CC-PVTZ
    Blend: AUG-CC-PVTZ
  Basis Set: (AUG-CC-PVTZ AUX)
    Blend: AUG-CC-PVTZ-JKFIT

    Orbital Energies [Eh]
    ---------------------

    Doubly Occupied:

       1A    -20.553580     2A    -11.281031     3A    -11.236078
       4A    -11.230603     5A    -11.225821     6A    -11.219817
       7A    -11.210661     8A     -1.352803     9A     -1.094534
      10A     -1.034494    11A     -0.974328    12A     -0.873196
      13A     -0.807681    14A     -0.761142    15A     -0.692837
      16A     -0.654186    17A     -0.609648    18A     -0.595320
      19A     -0.578260    20A     -0.538322    21A     -0.535225
      22A     -0.527676    23A     -0.521248    24A     -0.509667
      25A     -0.490532    26A     -0.471363    27A     -0.440628
      28A     -0.356169

  @DF-RHF Final Energy:  -309.15173830016442

   => Energetics <=

    Nuclear Repulsion Energy =            299.1451863115613037
    One-Electron Energy =               -1011.8401527542023359
    Two-Electron Energy =                 403.5432281424766643
    Total Energy =                       -309.1517383001644248
  Basis Set: (AUG-CC-PVTZ AUX)
    Blend: AUG-CC-PVTZ-RI
    Molecular point group: c1

    Geometry (in Angstrom), charge = 0, multiplicity = 1:

       Center              X                  Y                   Z               Mass
    ------------   -----------------  -----------------  -----------------  -----------------
         O           -2.390903042536    -1.052284770174    -0.025737785600    15.994914619570
         C           -1.500605042536     0.026533229826    -0.351382785600    12.000000000000
         C           -0.172029042536    -0.176334770174     0.306915214400    12.000000000000
         C            2.323597557464    -0.469628970174     0.293795414400    12.000000000000
         C            0.986835957464    -0.288156770174    -0.356345785600    12.000000000000
         C           -2.195171042536     1.287986229826     0.124576214400    12.000000000000
         C            3.253414957464     0.719306229826     0.011023214400    12.000000000000
         H           -1.356277042536     0.079121229826    -1.442651785600     1.007825032230
         H           -0.189709042536    -0.248824770174     1.395839214400     1.007825032230
         H            2.798454957464    -1.384713770174    -0.100762785600     1.007825032230
         H            2.203573957464    -0.605868770174     1.361885214400     1.007825032230
         H            0.965928557464    -0.214460770174    -1.446083885600     1.007825032230
         H           -2.333671042536     1.244818229826     1.207753214400     1.007825032230
         H           -1.599771042536     2.170065229826    -0.123714785600     1.007825032230
         H           -3.177135042536     1.372767229826    -0.346733785600     1.007825032230
         H            2.825091957464     1.637752229826     0.420390214400     1.007825032230
         H            3.397420957464     0.864820229826    -1.063443785600     1.007825032230
         H            4.236327957464     0.566137229826     0.465123214400     1.007825032230
         H           -1.926195042536    -1.875091770174    -0.259437785600     1.007825032230

  Basis Set: AUG-CC-PVTZ
    Blend: AUG-CC-PVTZ
  Basis Set: (AUG-CC-PVTZ AUX)
    Blend: AUG-CC-PVTZ-JKFIT
	 Reference Energy          =    -309.1517383001644248 [Eh]
	 Singles Energy            =      -0.0000000000000000 [Eh]
	 Same-Spin Energy          =      -0.3166987257524799 [Eh]
	 Opposite-Spin Energy      =      -1.1023969931588808 [Eh]
	 Correlation Energy        =      -1.4190957189113607 [Eh]
	 Total Energy              =    -310.5708340190757895 [Eh]

	 ================> DF-SCS-MP2 Energies <==================
	-----------------------------------------------------------
	 SCS Same-Spin Scale       =       0.3333333333333333 [-]
	 SCS Opposite-Spin Scale   =       1.2000000000000000 [-]
	 SCS Same-Spin Energy      =      -0.1055662419174933 [Eh]
	 SCS Opposite-Spin Energy  =      -1.3228763917906570 [Eh]
	 SCS Correlation Energy    =      -1.4284426337081504 [Eh]
	 SCS Total Energy          =    -310.5801809338725548 [Eh]
	-----------------------------------------------------------

  Dipole Moment: [D]
     X:     1.9152      Y:     0.0070      Z:    -0.5474     Total:     1.9919

*** Psi4 exiting successfully. Buy a developer a beer!
