                               Psi4 1.3.2 release

  ==> Input File <==

--------------------------------------------------------------------------
#psi4
#
memory 32 gb

molecule  {
0 1
  O       -2.3916800    -1.0522970    -0.0243250
  C       -1.5013820     0.0265210    -0.3499700
  C       -0.1728060    -0.1763470     0.3083280
  C        2.3285040    -0.4694590     0.2834420
  C        0.8964141    -0.2760629    -0.3975620
  C       -2.1959480     1.2879740     0.1259890
  C        3.2526380     0.7192940     0.0124360
  H       -1.3570540     0.0791090    -1.4412390
  H       -0.1904860    -0.2488370     1.3972520
  H        2.7976780    -1.3847260    -0.0993500
  H        2.2027970    -0.6058810     1.3632980
  H        0.9746330    -0.2154440    -1.4448770
  H       -2.3344480     1.2448060     1.2091660
  H       -1.6005480     2.1700530    -0.1223020
  H       -3.1779120     1.3727550    -0.3453210
  H        2.8243150     1.6377400     0.4218030
  H        3.3966440     0.8648080    -1.0620310
  H        4.2355510     0.5661250     0.4665360
  H       -1.9269720    -1.8751040    -0.2580250
units angstrom
no_reorient  #important for SAPT in psi4, default
symmetry c1  #important for SAPT in psi4, default
}

set PROPERTIES_ORIGIN ["COM"]
properties('MP2/aug-cc-pvtz', properties = ['dipole'])
--------------------------------------------------------------------------

    Molecular point group: c1
  Charge       = 0
  Multiplicity = 1
  Basis Set: AUG-CC-PVTZ
    Blend: AUG-CC-PVTZ
  Basis Set: (AUG-CC-PVTZ AUX)
    Blend: AUG-CC-PVTZ-JKFIT

    Orbital Energies [Eh]
    ---------------------

    Doubly Occupied:

       1A    -20.553051     2A    -11.278815     3A    -11.232918
       4A    -11.229114     5A    -11.219619     6A    -11.217895
       7A    -11.210174     8A     -1.352439     9A     -1.095804
      10A     -1.029655    11A     -0.980080    12A     -0.863758
      13A     -0.807127    14A     -0.767194    15A     -0.692182
      16A     -0.658054    17A     -0.603547    18A     -0.594509
      19A     -0.578488    20A     -0.552838    21A     -0.531932
      22A     -0.526437    23A     -0.518925    24A     -0.507252
      25A     -0.489245    26A     -0.459259    27A     -0.431525
      28A     -0.372803

  @DF-RHF Final Energy:  -309.14387699518358

   => Energetics <=

    Nuclear Repulsion Energy =            299.3274290414214533
    One-Electron Energy =               -1012.2333354349806314
    Two-Electron Energy =                 403.7620293983756596
    Total Energy =                       -309.1438769951835752
  Basis Set: (AUG-CC-PVTZ AUX)
    Blend: AUG-CC-PVTZ-RI
    Molecular point group: c1

    Geometry (in Angstrom), charge = 0, multiplicity = 1:

       Center              X                  Y                   Z               Mass
    ------------   -----------------  -----------------  -----------------  -----------------
         O           -2.380932074175    -1.053748280376    -0.019214080517    15.994914619570
         C           -1.490634074175     0.025069719624    -0.344859080517    12.000000000000
         C           -0.162058074175    -0.177798280376     0.313438919483    12.000000000000
         C            2.339251925825    -0.470910280376     0.288552919483    12.000000000000
         C            0.907162025825    -0.277514180376    -0.392451080517    12.000000000000
         C           -2.185200074175     1.286522719624     0.131099919483    12.000000000000
         C            3.263385925825     0.717842719624     0.017546919483    12.000000000000
         H           -1.346306074175     0.077657719624    -1.436128080517     1.007825032230
         H           -0.179738074175    -0.250288280376     1.402362919483     1.007825032230
         H            2.808425925825    -1.386177280376    -0.094239080517     1.007825032230
         H            2.213544925825    -0.607332280376     1.368408919483     1.007825032230
         H            0.985380925825    -0.216895280376    -1.439766080517     1.007825032230
         H           -2.323700074175     1.243354719624     1.214276919483     1.007825032230
         H           -1.589800074175     2.168601719624    -0.117191080517     1.007825032230
         H           -3.167164074175     1.371303719624    -0.340210080517     1.007825032230
         H            2.835062925825     1.636288719624     0.426913919483     1.007825032230
         H            3.407391925825     0.863356719624    -1.056920080517     1.007825032230
         H            4.246298925825     0.564673719624     0.471646919483     1.007825032230
         H           -1.916224074175    -1.876555280376    -0.252914080517     1.007825032230

  Basis Set: AUG-CC-PVTZ
    Blend: AUG-CC-PVTZ
  Basis Set: (AUG-CC-PVTZ AUX)
    Blend: AUG-CC-PVTZ-JKFIT
	 Reference Energy          =    -309.1438769951835752 [Eh]
	 Singles Energy            =      -0.0000000000000000 [Eh]
	 Same-Spin Energy          =      -0.3157163156800374 [Eh]
	 Opposite-Spin Energy      =      -1.1009952311177120 [Eh]
	 Correlation Energy        =      -1.4167115467977496 [Eh]
	 Total Energy              =    -310.5605885419813035 [Eh]

	 ================> DF-SCS-MP2 Energies <==================
	-----------------------------------------------------------
	 SCS Same-Spin Scale       =       0.3333333333333333 [-]
	 SCS Opposite-Spin Scale   =       1.2000000000000000 [-]
	 SCS Same-Spin Energy      =      -0.1052387718933458 [Eh]
	 SCS Opposite-Spin Energy  =      -1.3211942773412544 [Eh]
	 SCS Correlation Energy    =      -1.4264330492346002 [Eh]
	 SCS Total Energy          =    -310.5703100444181928 [Eh]
	-----------------------------------------------------------

  Dipole Moment: [D]
     X:     1.8266      Y:     0.0121      Z:    -0.5750     Total:     1.9150

*** Psi4 exiting successfully. Buy a developer a beer!
