                               Psi4 1.4a3.dev225

  ==> Input File <==

--------------------------------------------------------------------------
#psi4
#
memory 32 gb

molecule  {
0 1
  O        2.4733480    -1.0180220    -0.0592030
  C        1.5739742     0.0126793     0.3134294
  C        0.2241640    -0.1896060    -0.3216700
  C       -2.2699720    -0.5538550    -0.2568310
  C       -0.9183080    -0.3574540     0.3612590
  C        2.2155680     1.3228410    -0.1266610
  C       -3.2245640     0.5955150     0.0801580
  H        1.4362950     0.0398890     1.4137890
  H        0.2208170    -0.2229080    -1.4128920
  H       -2.7032570    -1.4976940     0.0989920
  H       -2.1635450    -0.6441890    -1.3439560
  H       -0.8861850    -0.3229140     1.4529890
  H        2.3348110     1.3198720    -1.2134080
  H        1.6025990     2.1805020     0.1626330
  H        3.2041590     1.4168830     0.3297970
  H       -2.8327200     1.5423190    -0.3012060
  H       -3.3500700     0.6943310     1.1626160
  H       -4.2121190     0.4296020    -0.3601990
  H        2.0333780    -1.8594800     0.1548220
units angstrom
no_reorient  #important for SAPT in psi4, default
symmetry c1  #important for SAPT in psi4, default
}

set PROPERTIES_ORIGIN ["COM"]
properties('MP2/aug-cc-pvtz', properties = ['dipole'])
--------------------------------------------------------------------------

    Molecular point group: c1
  Charge       = 0
  Multiplicity = 1
  Basis Set: AUG-CC-PVTZ
    Blend: AUG-CC-PVTZ
  Basis Set: (AUG-CC-PVTZ AUX)
    Blend: AUG-CC-PVTZ-JKFIT

    Orbital Energies [Eh]
    ---------------------

    Doubly Occupied:

       1A    -20.556123     2A    -11.281977     3A    -11.236199
       4A    -11.230780     5A    -11.226474     6A    -11.219636
       7A    -11.210828     8A     -1.360506     9A     -1.092742
      10A     -1.032758    11A     -0.973411    12A     -0.872261
      13A     -0.807546    14A     -0.759943    15A     -0.696939
      16A     -0.653366    17A     -0.610026    18A     -0.594140
      19A     -0.581486    20A     -0.538290    21A     -0.535595
      22A     -0.529225    23A     -0.522922    24A     -0.510144
      25A     -0.487072    26A     -0.469301    27A     -0.437924
      28A     -0.356139

  @DF-RHF Final Energy:  -309.15176078037206

   => Energetics <=

    Nuclear Repulsion Energy =            298.8946418271742687
    One-Electron Energy =               -1011.3253021615477110
    Two-Electron Energy =                 403.2788995540013843
    Total Energy =                       -309.1517607803720580
  Basis Set: (AUG-CC-PVTZ AUX)
    Blend: AUG-CC-PVTZ-RI
    Molecular point group: c1

    Geometry (in Angstrom), charge = 0, multiplicity = 1:

       Center              X                  Y                   Z               Mass
    ------------   -----------------  -----------------  -----------------  -----------------
         O            2.419257012028    -0.985836116844    -0.057148519631    15.994914619570
         C            1.519883212028     0.044865183156     0.315483880369    12.000000000000
         C            0.170073012028    -0.157420116844    -0.319615519631    12.000000000000
         C           -2.324062987972    -0.521669116844    -0.254776519631    12.000000000000
         C           -0.972398987972    -0.325268116844     0.363313480369    12.000000000000
         C            2.161477012028     1.355026883156    -0.124606519631    12.000000000000
         C           -3.278654987972     0.627700883156     0.082212480369    12.000000000000
         H            1.382204012028     0.072074883156     1.415843480369     1.007825032230
         H            0.166726012028    -0.190722116844    -1.410837519631     1.007825032230
         H           -2.757347987972    -1.465508116844     0.101046480369     1.007825032230
         H           -2.217635987972    -0.612003116844    -1.341901519631     1.007825032230
         H           -0.940275987972    -0.290728116844     1.455043480369     1.007825032230
         H            2.280720012028     1.352057883156    -1.211353519631     1.007825032230
         H            1.548508012028     2.212687883156     0.164687480369     1.007825032230
         H            3.150068012028     1.449068883156     0.331851480369     1.007825032230
         H           -2.886810987972     1.574504883156    -0.299151519631     1.007825032230
         H           -3.404160987972     0.726516883156     1.164670480369     1.007825032230
         H           -4.266209987972     0.461787883156    -0.358144519631     1.007825032230
         H            1.979287012028    -1.827294116844     0.156876480369     1.007825032230

  Basis Set: AUG-CC-PVTZ
    Blend: AUG-CC-PVTZ
  Basis Set: (AUG-CC-PVTZ AUX)
    Blend: AUG-CC-PVTZ-JKFIT
	 Reference Energy          =    -309.1517607803720580 [Eh]
	 Singles Energy            =      -0.0000000000000000 [Eh]
	 Same-Spin Energy          =      -0.3165533529020755 [Eh]
	 Opposite-Spin Energy      =      -1.1021631510436667 [Eh]
	 Correlation Energy        =      -1.4187165039457423 [Eh]
	 Total Energy              =    -310.5704772843178034 [Eh]

	 ================> DF-SCS-MP2 Energies <==================
	-----------------------------------------------------------
	 SCS Same-Spin Scale       =       0.3333333333333333 [-]
	 SCS Opposite-Spin Scale   =       1.2000000000000000 [-]
	 SCS Same-Spin Energy      =      -0.1055177843006918 [Eh]
	 SCS Opposite-Spin Energy  =      -1.3225957812524001 [Eh]
	 SCS Correlation Energy    =      -1.4281135655530919 [Eh]
	 SCS Total Energy          =    -310.5798743459251341 [Eh]
	-----------------------------------------------------------

  Dipole Moment: [D]
     X:    -1.8522      Y:    -0.1174      Z:     0.5744     Total:     1.9428

*** Psi4 exiting successfully. Buy a developer a beer!
