                               Psi4 1.3.2 release

  ==> Input File <==

--------------------------------------------------------------------------
#psi4
#
memory 32 gb

molecule  {
0 1
  O       -2.3916800    -1.0522970    -0.0243250
  C       -1.5013820     0.0265210    -0.3499700
  C       -0.1728060    -0.1763470     0.3083280
  C        2.3340852    -0.4692630     0.2716272
  C        0.9860590    -0.2881690    -0.3549330
  C       -2.1959480     1.2879740     0.1259890
  C        3.2526380     0.7192940     0.0124360
  H       -1.3570540     0.0791090    -1.4412390
  H       -0.1904860    -0.2488370     1.3972520
  H        2.7976780    -1.3847260    -0.0993500
  H        2.2027970    -0.6058810     1.3632980
  H        0.9841153    -0.2164205    -1.4449999
  H       -2.3344480     1.2448060     1.2091660
  H       -1.6005480     2.1700530    -0.1223020
  H       -3.1779120     1.3727550    -0.3453210
  H        2.8243150     1.6377400     0.4218030
  H        3.3966440     0.8648080    -1.0620310
  H        4.2355510     0.5661250     0.4665360
  H       -1.9269720    -1.8751040    -0.2580250
units angstrom
no_reorient  #important for SAPT in psi4, default
symmetry c1  #important for SAPT in psi4, default
}

set PROPERTIES_ORIGIN ["COM"]
properties('MP2/aug-cc-pvtz', properties = ['dipole'])
--------------------------------------------------------------------------

    Molecular point group: c1
  Charge       = 0
  Multiplicity = 1
  Basis Set: AUG-CC-PVTZ
    Blend: AUG-CC-PVTZ
  Basis Set: (AUG-CC-PVTZ AUX)
    Blend: AUG-CC-PVTZ-JKFIT

    Orbital Energies [Eh]
    ---------------------

    Doubly Occupied:

       1A    -20.553730     2A    -11.281262     3A    -11.236255
       4A    -11.230686     5A    -11.226700     6A    -11.219447
       7A    -11.210783     8A     -1.352949     9A     -1.094723
      10A     -1.035518    11A     -0.975025    12A     -0.873451
      13A     -0.807304    14A     -0.760371    15A     -0.693015
      16A     -0.654236    17A     -0.611955    18A     -0.593867
      19A     -0.578447    20A     -0.539635    21A     -0.536816
      22A     -0.528001    23A     -0.522193    24A     -0.510997
      25A     -0.484097    26A     -0.471102    27A     -0.440895
      28A     -0.357211

  @DF-RHF Final Energy:  -309.15155196710538

   => Energetics <=

    Nuclear Repulsion Energy =            299.1471243778216831
    One-Electron Energy =               -1011.8360098805806047
    Two-Electron Energy =                 403.5373335356535449
    Total Energy =                       -309.1515519671053767
  Basis Set: (AUG-CC-PVTZ AUX)
    Blend: AUG-CC-PVTZ-RI
    Molecular point group: c1

    Geometry (in Angstrom), charge = 0, multiplicity = 1:

       Center              X                  Y                   Z               Mass
    ------------   -----------------  -----------------  -----------------  -----------------
         O           -2.392444546365    -1.052310503926    -0.022907265797    15.994914619570
         C           -1.502146546365     0.026507496074    -0.348552265797    12.000000000000
         C           -0.173570546365    -0.176360503926     0.309745734203    12.000000000000
         C            2.333320653635    -0.469276503926     0.273044934203    12.000000000000
         C            0.985294453635    -0.288182503926    -0.353515265797    12.000000000000
         C           -2.196712546365     1.287960496074     0.127406734203    12.000000000000
         C            3.251873453635     0.719280496074     0.013853734203    12.000000000000
         H           -1.357818546365     0.079095496074    -1.439821265797     1.007825032230
         H           -0.191250546365    -0.248850503926     1.398669734203     1.007825032230
         H            2.796913453635    -1.384739503926    -0.097932265797     1.007825032230
         H            2.202032453635    -0.605894503926     1.364715734203     1.007825032230
         H            0.983350753635    -0.216434003926    -1.443582165797     1.007825032230
         H           -2.335212546365     1.244792496074     1.210583734203     1.007825032230
         H           -1.601312546365     2.170039496074    -0.120884265797     1.007825032230
         H           -3.178676546365     1.372741496074    -0.343903265797     1.007825032230
         H            2.823550453635     1.637726496074     0.423220734203     1.007825032230
         H            3.395879453635     0.864794496074    -1.060613265797     1.007825032230
         H            4.234786453635     0.566111496074     0.467953734203     1.007825032230
         H           -1.927736546365    -1.875117503926    -0.256607265797     1.007825032230

  Basis Set: AUG-CC-PVTZ
    Blend: AUG-CC-PVTZ
  Basis Set: (AUG-CC-PVTZ AUX)
    Blend: AUG-CC-PVTZ-JKFIT
	 Reference Energy          =    -309.1515519671053767 [Eh]
	 Singles Energy            =      -0.0000000000000000 [Eh]
	 Same-Spin Energy          =      -0.3167355572663425 [Eh]
	 Opposite-Spin Energy      =      -1.1024909463870514 [Eh]
	 Correlation Energy        =      -1.4192265036533938 [Eh]
	 Total Energy              =    -310.5707784707587962 [Eh]

	 ================> DF-SCS-MP2 Energies <==================
	-----------------------------------------------------------
	 SCS Same-Spin Scale       =       0.3333333333333333 [-]
	 SCS Opposite-Spin Scale   =       1.2000000000000000 [-]
	 SCS Same-Spin Energy      =      -0.1055785190887808 [Eh]
	 SCS Opposite-Spin Energy  =      -1.3229891356644616 [Eh]
	 SCS Correlation Energy    =      -1.4285676547532424 [Eh]
	 SCS Total Energy          =    -310.5801196218586142 [Eh]
	-----------------------------------------------------------

  Dipole Moment: [D]
     X:     1.9130      Y:     0.0078      Z:    -0.5600     Total:     1.9932

*** Psi4 exiting successfully. Buy a developer a beer!
