                               Psi4 1.3.2 release

  ==> Input File <==

--------------------------------------------------------------------------
#psi4
#
memory 32 gb

molecule  {
0 1
  O       -2.3916800    -1.0522970    -0.0243250
  C       -1.5013820     0.0265210    -0.3499700
  C       -0.1728060    -0.1763470     0.3083280
  C        2.3285040    -0.4694590     0.2834420
  C        0.9976988    -0.2858613    -0.3782201
  C       -2.1959480     1.2879740     0.1259890
  C        3.2526380     0.7192940     0.0124360
  H       -1.3570540     0.0791090    -1.4412390
  H       -0.1904860    -0.2488370     1.3972520
  H        2.7976780    -1.3847260    -0.0993500
  H        2.2217645    -0.6074757     1.3651352
  H        0.9746330    -0.2154440    -1.4448770
  H       -2.3344480     1.2448060     1.2091660
  H       -1.6005480     2.1700530    -0.1223020
  H       -3.1779120     1.3727550    -0.3453210
  H        2.8243150     1.6377400     0.4218030
  H        3.3966440     0.8648080    -1.0620310
  H        4.2355510     0.5661250     0.4665360
  H       -1.9269720    -1.8751040    -0.2580250
units angstrom
no_reorient  #important for SAPT in psi4, default
symmetry c1  #important for SAPT in psi4, default
}

set PROPERTIES_ORIGIN ["COM"]
properties('MP2/aug-cc-pvtz', properties = ['dipole'])
--------------------------------------------------------------------------

    Molecular point group: c1
  Charge       = 0
  Multiplicity = 1
  Basis Set: AUG-CC-PVTZ
    Blend: AUG-CC-PVTZ
  Basis Set: (AUG-CC-PVTZ AUX)
    Blend: AUG-CC-PVTZ-JKFIT

    Orbital Energies [Eh]
    ---------------------

    Doubly Occupied:

       1A    -20.553450     2A    -11.280880     3A    -11.237606
       4A    -11.230597     5A    -11.229384     6A    -11.219148
       7A    -11.210579     8A     -1.352684     9A     -1.092422
      10A     -1.034766    11A     -0.972420    12A     -0.873095
      13A     -0.806449    14A     -0.764759    15A     -0.692571
      16A     -0.653906    17A     -0.609439    18A     -0.595581
      19A     -0.577987    20A     -0.540902    21A     -0.535154
      22A     -0.527582    23A     -0.521593    24A     -0.510654
      25A     -0.489509    26A     -0.470946    27A     -0.440618
      28A     -0.351745

  @DF-RHF Final Energy:  -309.14996478836105

   => Energetics <=

    Nuclear Repulsion Energy =            298.8796639225108720
    One-Electron Energy =               -1011.3064053009774170
    Two-Electron Energy =                 403.2767765901054986
    Total Energy =                       -309.1499647883610464
  Basis Set: (AUG-CC-PVTZ AUX)
    Blend: AUG-CC-PVTZ-RI
    Molecular point group: c1

    Geometry (in Angstrom), charge = 0, multiplicity = 1:

       Center              X                  Y                   Z               Mass
    ------------   -----------------  -----------------  -----------------  -----------------
         O           -2.393266442618    -1.052557458219    -0.021551548256    15.994914619570
         C           -1.502968442618     0.026260541781    -0.347196548256    12.000000000000
         C           -0.174392442618    -0.176607458219     0.311101451744    12.000000000000
         C            2.326917557382    -0.469719458219     0.286215451744    12.000000000000
         C            0.996112357382    -0.286121758219    -0.375446648256    12.000000000000
         C           -2.197534442618     1.287713541781     0.128762451744    12.000000000000
         C            3.251051557382     0.719033541781     0.015209451744    12.000000000000
         H           -1.358640442618     0.078848541781    -1.438465548256     1.007825032230
         H           -0.192072442618    -0.249097458219     1.400025451744     1.007825032230
         H            2.796091557382    -1.384986458219    -0.096576548256     1.007825032230
         H            2.220178057382    -0.607736158219     1.367908651744     1.007825032230
         H            0.973046557382    -0.215704458219    -1.442103548256     1.007825032230
         H           -2.336034442618     1.244545541781     1.211939451744     1.007825032230
         H           -1.602134442618     2.169792541781    -0.119528548256     1.007825032230
         H           -3.179498442618     1.372494541781    -0.342547548256     1.007825032230
         H            2.822728557382     1.637479541781     0.424576451744     1.007825032230
         H            3.395057557382     0.864547541781    -1.059257548256     1.007825032230
         H            4.233964557382     0.565864541781     0.469309451744     1.007825032230
         H           -1.928558442618    -1.875364458219    -0.255251548256     1.007825032230

  Basis Set: AUG-CC-PVTZ
    Blend: AUG-CC-PVTZ
  Basis Set: (AUG-CC-PVTZ AUX)
    Blend: AUG-CC-PVTZ-JKFIT
	 Reference Energy          =    -309.1499647883610464 [Eh]
	 Singles Energy            =      -0.0000000000000000 [Eh]
	 Same-Spin Energy          =      -0.3169049722674692 [Eh]
	 Opposite-Spin Energy      =      -1.1029397151971487 [Eh]
	 Correlation Energy        =      -1.4198446874646180 [Eh]
	 Total Energy              =    -310.5698094758256502 [Eh]

	 ================> DF-SCS-MP2 Energies <==================
	-----------------------------------------------------------
	 SCS Same-Spin Scale       =       0.3333333333333333 [-]
	 SCS Opposite-Spin Scale   =       1.2000000000000000 [-]
	 SCS Same-Spin Energy      =      -0.1056349907558231 [Eh]
	 SCS Opposite-Spin Energy  =      -1.3235276582365785 [Eh]
	 SCS Correlation Energy    =      -1.4291626489924014 [Eh]
	 SCS Total Energy          =    -310.5791274373534634 [Eh]
	-----------------------------------------------------------

  Dipole Moment: [D]
     X:     1.9166      Y:     0.0009      Z:    -0.5597     Total:     1.9967

*** Psi4 exiting successfully. Buy a developer a beer!
