                               Psi4 1.4a3.dev225

  ==> Input File <==

--------------------------------------------------------------------------
#psi4
#
memory 32 gb

molecule  {
0 1
  O        2.4733480    -1.0180220    -0.0592030
  C        1.5612870     0.0272190     0.3186860
  C        0.2241640    -0.1896060    -0.3216700
  C       -2.2699720    -0.5538550    -0.2568310
  C       -0.9183080    -0.3574540     0.3612590
  C        2.2155680     1.3228410    -0.1266610
  C       -3.2245640     0.5955150     0.0801580
  H        1.4362950     0.0398890     1.4137890
  H        0.2208170    -0.2229080    -1.4128920
  H       -2.7032570    -1.4976940     0.0989920
  H       -2.1635450    -0.6441890    -1.3439560
  H       -0.8855971    -0.3222818     1.4729704
  H        2.3348110     1.3198720    -1.2134080
  H        1.6025990     2.1805020     0.1626330
  H        3.2041590     1.4168830     0.3297970
  H       -2.8327200     1.5423190    -0.3012060
  H       -3.3500700     0.6943310     1.1626160
  H       -4.2121190     0.4296020    -0.3601990
  H        2.0333780    -1.8594800     0.1548220
units angstrom
no_reorient  #important for SAPT in psi4, default
symmetry c1  #important for SAPT in psi4, default
}

set PROPERTIES_ORIGIN ["COM"]
properties('MP2/aug-cc-pvtz', properties = ['dipole'])
--------------------------------------------------------------------------

    Molecular point group: c1
  Charge       = 0
  Multiplicity = 1
  Basis Set: AUG-CC-PVTZ
    Blend: AUG-CC-PVTZ
  Basis Set: (AUG-CC-PVTZ AUX)
    Blend: AUG-CC-PVTZ-JKFIT

    Orbital Energies [Eh]
    ---------------------

    Doubly Occupied:

       1A    -20.553646     2A    -11.281697     3A    -11.239144
       4A    -11.231391     5A    -11.227097     6A    -11.220028
       7A    -11.211126     8A     -1.352255     9A     -1.093520
      10A     -1.034499    11A     -0.974145    12A     -0.873095
      13A     -0.807202    14A     -0.758323    15A     -0.692422
      16A     -0.652708    17A     -0.610452    18A     -0.594168
      19A     -0.577950    20A     -0.537687    21A     -0.536014
      22A     -0.527772    23A     -0.521526    24A     -0.510242
      25A     -0.487015    26A     -0.471004    27A     -0.440782
      28A     -0.356687

  @DF-RHF Final Energy:  -309.15108501446650

   => Energetics <=

    Nuclear Repulsion Energy =            298.7422833238844078
    One-Electron Energy =               -1011.0395371453888629
    Two-Electron Energy =                 403.1461688070379523
    Total Energy =                       -309.1510850144665028
  Basis Set: (AUG-CC-PVTZ AUX)
    Blend: AUG-CC-PVTZ-RI
    Molecular point group: c1

    Geometry (in Angstrom), charge = 0, multiplicity = 1:

       Center              X                  Y                   Z               Mass
    ------------   -----------------  -----------------  -----------------  -----------------
         O            2.420772205306    -0.987585698423    -0.057979950747    15.994914619570
         C            1.508711205306     0.057655301577     0.319909049253    12.000000000000
         C            0.171588205306    -0.159169698423    -0.320446950747    12.000000000000
         C           -2.322547794694    -0.523418698423    -0.255607950747    12.000000000000
         C           -0.970883794694    -0.327017698423     0.362482049253    12.000000000000
         C            2.162992205306     1.353277301577    -0.125437950747    12.000000000000
         C           -3.277139794694     0.625951301577     0.081381049253    12.000000000000
         H            1.383719205306     0.070325301577     1.415012049253     1.007825032230
         H            0.168241205306    -0.192471698423    -1.411668950747     1.007825032230
         H           -2.755832794694    -1.467257698423     0.100215049253     1.007825032230
         H           -2.216120794694    -0.613752698423    -1.342732950747     1.007825032230
         H           -0.938172894694    -0.291845498423     1.474193449253     1.007825032230
         H            2.282235205306     1.350308301577    -1.212184950747     1.007825032230
         H            1.550023205306     2.210938301577     0.163856049253     1.007825032230
         H            3.151583205306     1.447319301577     0.331020049253     1.007825032230
         H           -2.885295794694     1.572755301577    -0.299982950747     1.007825032230
         H           -3.402645794694     0.724767301577     1.163839049253     1.007825032230
         H           -4.264694794694     0.460038301577    -0.358975950747     1.007825032230
         H            1.980802205306    -1.829043698423     0.156045049253     1.007825032230

  Basis Set: AUG-CC-PVTZ
    Blend: AUG-CC-PVTZ
  Basis Set: (AUG-CC-PVTZ AUX)
    Blend: AUG-CC-PVTZ-JKFIT
	 Reference Energy          =    -309.1510850144665028 [Eh]
	 Singles Energy            =      -0.0000000000000000 [Eh]
	 Same-Spin Energy          =      -0.3166988412981859 [Eh]
	 Opposite-Spin Energy      =      -1.1026556110686250 [Eh]
	 Correlation Energy        =      -1.4193544523668109 [Eh]
	 Total Energy              =    -310.5704394668333066 [Eh]

	 ================> DF-SCS-MP2 Energies <==================
	-----------------------------------------------------------
	 SCS Same-Spin Scale       =       0.3333333333333333 [-]
	 SCS Opposite-Spin Scale   =       1.2000000000000000 [-]
	 SCS Same-Spin Energy      =      -0.1055662804327286 [Eh]
	 SCS Opposite-Spin Energy  =      -1.3231867332823499 [Eh]
	 SCS Correlation Energy    =      -1.4287530137150786 [Eh]
	 SCS Total Energy          =    -310.5798380281815980 [Eh]
	-----------------------------------------------------------

  Dipole Moment: [D]
     X:    -1.9106      Y:    -0.0573      Z:     0.5782     Total:     1.9970

*** Psi4 exiting successfully. Buy a developer a beer!
