                               Psi4 1.3.2 release

  ==> Input File <==

--------------------------------------------------------------------------
#psi4
#
memory 32 gb

molecule  {
0 1
  O       -2.3916800    -1.0522970    -0.0243250
  C       -1.5013820     0.0265210    -0.3499700
  C       -0.1728060    -0.1763470     0.3083280
  C        2.3285040    -0.4694590     0.2834420
  C        0.9860590    -0.2881690    -0.3549330
  C       -2.1959480     1.2879740     0.1259890
  C        3.2526380     0.7192940     0.0124360
  H       -1.3570540     0.0791090    -1.4412390
  H       -0.1937256    -0.2621199     1.5967841
  H        2.7976780    -1.3847260    -0.0993500
  H        2.2027970    -0.6058810     1.3632980
  H        0.9746330    -0.2154440    -1.4448770
  H       -2.3344480     1.2448060     1.2091660
  H       -1.6005480     2.1700530    -0.1223020
  H       -3.1779120     1.3727550    -0.3453210
  H        2.8243150     1.6377400     0.4218030
  H        3.3966440     0.8648080    -1.0620310
  H        4.2355510     0.5661250     0.4665360
  H       -1.9269720    -1.8751040    -0.2580250
units angstrom
no_reorient  #important for SAPT in psi4, default
symmetry c1  #important for SAPT in psi4, default
}

set PROPERTIES_ORIGIN ["COM"]
properties('MP2/aug-cc-pvtz', properties = ['dipole'])
--------------------------------------------------------------------------

    Molecular point group: c1
  Charge       = 0
  Multiplicity = 1
  Basis Set: AUG-CC-PVTZ
    Blend: AUG-CC-PVTZ
  Basis Set: (AUG-CC-PVTZ AUX)
    Blend: AUG-CC-PVTZ-JKFIT

    Orbital Energies [Eh]
    ---------------------

    Doubly Occupied:

       1A    -20.554153     2A    -11.284292     3A    -11.248211
       4A    -11.238451     5A    -11.230797     6A    -11.219743
       7A    -11.210982     8A     -1.353405     9A     -1.093306
      10A     -1.034779    11A     -0.973970    12A     -0.872633
      13A     -0.808348    14A     -0.743547    15A     -0.691618
      16A     -0.655291    17A     -0.610642    18A     -0.585198
      19A     -0.579136    20A     -0.536737    21A     -0.529253
      22A     -0.527504    23A     -0.516166    24A     -0.504481
      25A     -0.486347    26A     -0.472248    27A     -0.438888
      28A     -0.358779

  @DF-RHF Final Energy:  -309.13058642536987

   => Energetics <=

    Nuclear Repulsion Energy =            298.2893992855018155
    One-Electron Energy =               -1010.1221578145878084
    Two-Electron Energy =                 402.7021721037161797
    Total Energy =                       -309.1305864253698701
  Basis Set: (AUG-CC-PVTZ AUX)
    Blend: AUG-CC-PVTZ-RI
    Molecular point group: c1

    Geometry (in Angstrom), charge = 0, multiplicity = 1:

       Center              X                  Y                   Z               Mass
    ------------   -----------------  -----------------  -----------------  -----------------
         O           -2.391647295950    -1.052163087874    -0.026334171259    15.994914619570
         C           -1.501349295950     0.026654912126    -0.351979171259    12.000000000000
         C           -0.172773295950    -0.176213087874     0.306318828741    12.000000000000
         C            2.328536704050    -0.469325087874     0.281432828741    12.000000000000
         C            0.986091704050    -0.288035087874    -0.356942171259    12.000000000000
         C           -2.195915295950     1.288107912126     0.123979828741    12.000000000000
         C            3.252670704050     0.719427912126     0.010426828741    12.000000000000
         H           -1.357021295950     0.079242912126    -1.443248171259     1.007825032230
         H           -0.193692895950    -0.261985987874     1.594774928741     1.007825032230
         H            2.797710704050    -1.384592087874    -0.101359171259     1.007825032230
         H            2.202829704050    -0.605747087874     1.361288828741     1.007825032230
         H            0.974665704050    -0.215310087874    -1.446886171259     1.007825032230
         H           -2.334415295950     1.244939912126     1.207156828741     1.007825032230
         H           -1.600515295950     2.170186912126    -0.124311171259     1.007825032230
         H           -3.177879295950     1.372888912126    -0.347330171259     1.007825032230
         H            2.824347704050     1.637873912126     0.419793828741     1.007825032230
         H            3.396676704050     0.864941912126    -1.064040171259     1.007825032230
         H            4.235583704050     0.566258912126     0.464526828741     1.007825032230
         H           -1.926939295950    -1.874970087874    -0.260034171259     1.007825032230

  Basis Set: AUG-CC-PVTZ
    Blend: AUG-CC-PVTZ
  Basis Set: (AUG-CC-PVTZ AUX)
    Blend: AUG-CC-PVTZ-JKFIT
	 Reference Energy          =    -309.1305864253698701 [Eh]
	 Singles Energy            =      -0.0000000000000000 [Eh]
	 Same-Spin Energy          =      -0.3172259234127253 [Eh]
	 Opposite-Spin Energy      =      -1.1044882089097556 [Eh]
	 Correlation Energy        =      -1.4217141323224809 [Eh]
	 Total Energy              =    -310.5523005576923765 [Eh]

	 ================> DF-SCS-MP2 Energies <==================
	-----------------------------------------------------------
	 SCS Same-Spin Scale       =       0.3333333333333333 [-]
	 SCS Opposite-Spin Scale   =       1.2000000000000000 [-]
	 SCS Same-Spin Energy      =      -0.1057419744709084 [Eh]
	 SCS Opposite-Spin Energy  =      -1.3253858506917067 [Eh]
	 SCS Correlation Energy    =      -1.4311278251626152 [Eh]
	 SCS Total Energy          =    -310.5617142505324750 [Eh]
	-----------------------------------------------------------

  Dipole Moment: [D]
     X:     1.8970      Y:     0.0154      Z:    -0.6598     Total:     2.0085

*** Psi4 exiting successfully. Buy a developer a beer!
