                               Psi4 1.3.2 release

  ==> Input File <==

--------------------------------------------------------------------------
#psi4
#
memory 32 gb

molecule  {
0 1
  O       -2.3916800    -1.0522970    -0.0243250
  C       -1.5013820     0.0265210    -0.3499700
  C       -0.1728060    -0.1763470     0.3083280
  C        2.3285040    -0.4694590     0.2834420
  C        1.0757039    -0.3002751    -0.3123040
  C       -2.1959480     1.2879740     0.1259890
  C        3.2526380     0.7192940     0.0124360
  H       -1.3570540     0.0791090    -1.4412390
  H       -0.1904860    -0.2488370     1.3972520
  H        2.7976780    -1.3847260    -0.0993500
  H        2.2027970    -0.6058810     1.3632980
  H        0.9746330    -0.2154440    -1.4448770
  H       -2.3344480     1.2448060     1.2091660
  H       -1.6005480     2.1700530    -0.1223020
  H       -3.1779120     1.3727550    -0.3453210
  H        2.8243150     1.6377400     0.4218030
  H        3.3966440     0.8648080    -1.0620310
  H        4.2355510     0.5661250     0.4665360
  H       -1.9269720    -1.8751040    -0.2580250
units angstrom
no_reorient  #important for SAPT in psi4, default
symmetry c1  #important for SAPT in psi4, default
}

set PROPERTIES_ORIGIN ["COM"]
properties('MP2/aug-cc-pvtz', properties = ['dipole'])
--------------------------------------------------------------------------

    Molecular point group: c1
  Charge       = 0
  Multiplicity = 1
  Basis Set: AUG-CC-PVTZ
    Blend: AUG-CC-PVTZ
  Basis Set: (AUG-CC-PVTZ AUX)
    Blend: AUG-CC-PVTZ-JKFIT

    Orbital Energies [Eh]
    ---------------------

    Doubly Occupied:

       1A    -20.554091     2A    -11.283442     3A    -11.244740
       4A    -11.233203     5A    -11.227048     6A    -11.222023
       7A    -11.211132     8A     -1.353198     9A     -1.103387
      10A     -1.038210    11A     -0.968042    12A     -0.884315
      13A     -0.806724    14A     -0.754821    15A     -0.693566
      16A     -0.654278    17A     -0.622113    18A     -0.593822
      19A     -0.578383    20A     -0.544676    21A     -0.529631
      22A     -0.528330    23A     -0.522969    24A     -0.513413
      25A     -0.483744    26A     -0.475804    27A     -0.443572
      28A     -0.340044

  @DF-RHF Final Energy:  -309.13455512463520

   => Energetics <=

    Nuclear Repulsion Energy =            299.1184835366074140
    One-Electron Energy =               -1011.6886322468998287
    Two-Electron Energy =                 403.4355935856572160
    Total Energy =                       -309.1345551246351988
  Basis Set: (AUG-CC-PVTZ AUX)
    Blend: AUG-CC-PVTZ-RI
    Molecular point group: c1

    Geometry (in Angstrom), charge = 0, multiplicity = 1:

       Center              X                  Y                   Z               Mass
    ------------   -----------------  -----------------  -----------------  -----------------
         O           -2.402427758781    -1.050845394574    -0.029435961952    15.994914619570
         C           -1.512129758781     0.027972605426    -0.355080961952    12.000000000000
         C           -0.183553758781    -0.174895394574     0.303217038048    12.000000000000
         C            2.317756241219    -0.468007394574     0.278331038048    12.000000000000
         C            1.064956141219    -0.298823494574    -0.317414961952    12.000000000000
         C           -2.206695758781     1.289425605426     0.120878038048    12.000000000000
         C            3.241890241219     0.720745605426     0.007325038048    12.000000000000
         H           -1.367801758781     0.080560605426    -1.446349961952     1.007825032230
         H           -0.201233758781    -0.247385394574     1.392141038048     1.007825032230
         H            2.786930241219    -1.383274394574    -0.104460961952     1.007825032230
         H            2.192049241219    -0.604429394574     1.358187038048     1.007825032230
         H            0.963885241219    -0.213992394574    -1.449987961952     1.007825032230
         H           -2.345195758781     1.246257605426     1.204055038048     1.007825032230
         H           -1.611295758781     2.171504605426    -0.127412961952     1.007825032230
         H           -3.188659758781     1.374206605426    -0.350431961952     1.007825032230
         H            2.813567241219     1.639191605426     0.416692038048     1.007825032230
         H            3.385896241219     0.866259605426    -1.067141961952     1.007825032230
         H            4.224803241219     0.567576605426     0.461425038048     1.007825032230
         H           -1.937719758781    -1.873652394574    -0.263135961952     1.007825032230

  Basis Set: AUG-CC-PVTZ
    Blend: AUG-CC-PVTZ
  Basis Set: (AUG-CC-PVTZ AUX)
    Blend: AUG-CC-PVTZ-JKFIT
	 Reference Energy          =    -309.1345551246351988 [Eh]
	 Singles Energy            =      -0.0000000000000000 [Eh]
	 Same-Spin Energy          =      -0.3187855640039179 [Eh]
	 Opposite-Spin Energy      =      -1.1056407930539234 [Eh]
	 Correlation Energy        =      -1.4244263570578413 [Eh]
	 Total Energy              =    -310.5589814816930243 [Eh]

	 ================> DF-SCS-MP2 Energies <==================
	-----------------------------------------------------------
	 SCS Same-Spin Scale       =       0.3333333333333333 [-]
	 SCS Opposite-Spin Scale   =       1.2000000000000000 [-]
	 SCS Same-Spin Energy      =      -0.1062618546679726 [Eh]
	 SCS Opposite-Spin Energy  =      -1.3267689516647081 [Eh]
	 SCS Correlation Energy    =      -1.4330308063326807 [Eh]
	 SCS Total Energy          =    -310.5675859309678799 [Eh]
	-----------------------------------------------------------

  Dipole Moment: [D]
     X:     2.0222      Y:     0.0026      Z:    -0.5264     Total:     2.0896

*** Psi4 exiting successfully. Buy a developer a beer!
