                               Psi4 1.3.2 release

  ==> Input File <==

--------------------------------------------------------------------------
#psi4
#
memory 32 gb

molecule  {
0 1
  O       -2.3916800    -1.0522970    -0.0243250
  C       -1.5013820     0.0265210    -0.3499700
  C       -0.1803658    -0.1321537     0.3351317
  C        2.3285040    -0.4694590     0.2834420
  C        0.9860590    -0.2881690    -0.3549330
  C       -2.1546928     1.2976005     0.1577350
  C        3.2526380     0.7192940     0.0124360
  H       -1.3570540     0.0791090    -1.4412390
  H       -0.1904860    -0.2488370     1.3972520
  H        2.7976780    -1.3847260    -0.0993500
  H        2.2027970    -0.6058810     1.3632980
  H        0.9746330    -0.2154440    -1.4448770
  H       -2.3344480     1.2448060     1.2091660
  H       -1.6005480     2.1700530    -0.1223020
  H       -3.1779120     1.3727550    -0.3453210
  H        2.8243150     1.6377400     0.4218030
  H        3.3966440     0.8648080    -1.0620310
  H        4.2355510     0.5661250     0.4665360
  H       -1.9269720    -1.8751040    -0.2580250
units angstrom
no_reorient  #important for SAPT in psi4, default
symmetry c1  #important for SAPT in psi4, default
}

set PROPERTIES_ORIGIN ["COM"]
properties('MP2/aug-cc-pvtz', properties = ['dipole'])
--------------------------------------------------------------------------

    Molecular point group: c1
  Charge       = 0
  Multiplicity = 1
  Basis Set: AUG-CC-PVTZ
    Blend: AUG-CC-PVTZ
  Basis Set: (AUG-CC-PVTZ AUX)
    Blend: AUG-CC-PVTZ-JKFIT

    Orbital Energies [Eh]
    ---------------------

    Doubly Occupied:

       1A    -20.555283     2A    -11.281453     3A    -11.238974
       4A    -11.230159     5A    -11.227199     6A    -11.219173
       7A    -11.210292     8A     -1.353457     9A     -1.092178
      10A     -1.036522    11A     -0.970988    12A     -0.872433
      13A     -0.806112    14A     -0.764810    15A     -0.693984
      16A     -0.652946    17A     -0.608098    18A     -0.596354
      19A     -0.579413    20A     -0.542143    21A     -0.538933
      22A     -0.530048    23A     -0.517113    24A     -0.510799
      25A     -0.487013    26A     -0.469435    27A     -0.441132
      28A     -0.349956

  @DF-RHF Final Energy:  -309.14562537376162

   => Energetics <=

    Nuclear Repulsion Energy =            299.0833969627223041
    One-Electron Energy =               -1011.7052395688435809
    Two-Electron Energy =                 403.4762172323596587
    Total Energy =                       -309.1456253737616180
  Basis Set: (AUG-CC-PVTZ AUX)
    Blend: AUG-CC-PVTZ-RI
    Molecular point group: c1

    Geometry (in Angstrom), charge = 0, multiplicity = 1:

       Center              X                  Y                   Z               Mass
    ------------   -----------------  -----------------  -----------------  -----------------
         O           -2.395719776476    -1.058749482558    -0.031344750662    15.994914619570
         C           -1.505421776476     0.020068517442    -0.356989750662    12.000000000000
         C           -0.184405576476    -0.138606182558     0.328111949338    12.000000000000
         C            2.324464223524    -0.475911482558     0.276422249338    12.000000000000
         C            0.982019223524    -0.294621482558    -0.361952750662    12.000000000000
         C           -2.158732576476     1.291148017442     0.150715249338    12.000000000000
         C            3.248598223524     0.712841517442     0.005416249338    12.000000000000
         H           -1.361093776476     0.072656517442    -1.448258750662     1.007825032230
         H           -0.194525776476    -0.255289482558     1.390232249338     1.007825032230
         H            2.793638223524    -1.391178482558    -0.106369750662     1.007825032230
         H            2.198757223524    -0.612333482558     1.356278249338     1.007825032230
         H            0.970593223524    -0.221896482558    -1.451896750662     1.007825032230
         H           -2.338487776476     1.238353517442     1.202146249338     1.007825032230
         H           -1.604587776476     2.163600517442    -0.129321750662     1.007825032230
         H           -3.181951776476     1.366302517442    -0.352340750662     1.007825032230
         H            2.820275223524     1.631287517442     0.414783249338     1.007825032230
         H            3.392604223524     0.858355517442    -1.069050750662     1.007825032230
         H            4.231511223524     0.559672517442     0.459516249338     1.007825032230
         H           -1.931011776476    -1.881556482558    -0.265044750662     1.007825032230

  Basis Set: AUG-CC-PVTZ
    Blend: AUG-CC-PVTZ
  Basis Set: (AUG-CC-PVTZ AUX)
    Blend: AUG-CC-PVTZ-JKFIT
	 Reference Energy          =    -309.1456253737616180 [Eh]
	 Singles Energy            =      -0.0000000000000000 [Eh]
	 Same-Spin Energy          =      -0.3171482177986159 [Eh]
	 Opposite-Spin Energy      =      -1.1034411802627131 [Eh]
	 Correlation Energy        =      -1.4205893980613289 [Eh]
	 Total Energy              =    -310.5662147718229562 [Eh]

	 ================> DF-SCS-MP2 Energies <==================
	-----------------------------------------------------------
	 SCS Same-Spin Scale       =       0.3333333333333333 [-]
	 SCS Opposite-Spin Scale   =       1.2000000000000000 [-]
	 SCS Same-Spin Energy      =      -0.1057160725995386 [Eh]
	 SCS Opposite-Spin Energy  =      -1.3241294163152557 [Eh]
	 SCS Correlation Energy    =      -1.4298454889147942 [Eh]
	 SCS Total Energy          =    -310.5754708626764113 [Eh]
	-----------------------------------------------------------

  Dipole Moment: [D]
     X:     1.9060      Y:    -0.0520      Z:    -0.5364     Total:     1.9808

*** Psi4 exiting successfully. Buy a developer a beer!
