                               Psi4 1.4a3.dev225

  ==> Input File <==

--------------------------------------------------------------------------
#psi4
#
memory 32 gb

molecule  {
0 1
  O        2.4733480    -1.0180220    -0.0592030
  C        1.5612870     0.0272190     0.3186860
  C        0.2241640    -0.1896060    -0.3216700
  C       -2.2699720    -0.5538550    -0.2568310
  C       -0.9183080    -0.3574540     0.3612590
  C        2.2155680     1.3228410    -0.1266610
  C       -3.2245640     0.5955150     0.0801580
  H        1.4362950     0.0398890     1.4137890
  H        0.2208783    -0.2222979    -1.3929014
  H       -2.7032570    -1.4976940     0.0989920
  H       -2.1635450    -0.6441890    -1.3439560
  H       -0.8861850    -0.3229140     1.4529890
  H        2.3348110     1.3198720    -1.2134080
  H        1.6025990     2.1805020     0.1626330
  H        3.2041590     1.4168830     0.3297970
  H       -2.8327200     1.5423190    -0.3012060
  H       -3.3500700     0.6943310     1.1626160
  H       -4.2121190     0.4296020    -0.3601990
  H        2.0333780    -1.8594800     0.1548220
units angstrom
no_reorient  #important for SAPT in psi4, default
symmetry c1  #important for SAPT in psi4, default
}

set PROPERTIES_ORIGIN ["COM"]
properties('MP2/aug-cc-pvtz', properties = ['dipole'])
--------------------------------------------------------------------------

    Molecular point group: c1
  Charge       = 0
  Multiplicity = 1
  Basis Set: AUG-CC-PVTZ
    Blend: AUG-CC-PVTZ
  Basis Set: (AUG-CC-PVTZ AUX)
    Blend: AUG-CC-PVTZ-JKFIT

    Orbital Energies [Eh]
    ---------------------

    Doubly Occupied:

       1A    -20.553606     2A    -11.281431     3A    -11.236589
       4A    -11.231110     5A    -11.224521     6A    -11.219999
       7A    -11.211103     8A     -1.352214     9A     -1.094196
      10A     -1.034539    11A     -0.974517    12A     -0.873354
      13A     -0.807314    14A     -0.762991    15A     -0.692550
      16A     -0.653592    17A     -0.610476    18A     -0.595728
      19A     -0.577878    20A     -0.540129    21A     -0.535967
      22A     -0.527763    23A     -0.521804    24A     -0.510424
      25A     -0.487538    26A     -0.471124    27A     -0.440817
      28A     -0.356379

  @DF-RHF Final Energy:  -309.15179553045516

   => Energetics <=

    Nuclear Repulsion Energy =            298.9283318120184276
    One-Electron Energy =               -1011.4009466025330539
    Two-Electron Energy =                 403.3208192600594657
    Total Energy =                       -309.1517955304551606
  Basis Set: (AUG-CC-PVTZ AUX)
    Blend: AUG-CC-PVTZ-RI
    Molecular point group: c1

    Geometry (in Angstrom), charge = 0, multiplicity = 1:

       Center              X                  Y                   Z               Mass
    ------------   -----------------  -----------------  -----------------  -----------------
         O            2.420777507803    -0.987585475892    -0.057980043384    15.994914619570
         C            1.508716507803     0.057655524108     0.319908956616    12.000000000000
         C            0.171593507803    -0.159169475892    -0.320447043384    12.000000000000
         C           -2.322542492197    -0.523418475892    -0.255608043384    12.000000000000
         C           -0.970878492197    -0.327017475892     0.362481956616    12.000000000000
         C            2.162997507803     1.353277524108    -0.125438043384    12.000000000000
         C           -3.277134492197     0.625951524108     0.081380956616    12.000000000000
         H            1.383724507803     0.070325524108     1.415011956616     1.007825032230
         H            0.168307807803    -0.191861375892    -1.391678443384     1.007825032230
         H           -2.755827492197    -1.467257475892     0.100214956616     1.007825032230
         H           -2.216115492197    -0.613752475892    -1.342733043384     1.007825032230
         H           -0.938755492197    -0.292477475892     1.454211956616     1.007825032230
         H            2.282240507803     1.350308524108    -1.212185043384     1.007825032230
         H            1.550028507803     2.210938524108     0.163855956616     1.007825032230
         H            3.151588507803     1.447319524108     0.331019956616     1.007825032230
         H           -2.885290492197     1.572755524108    -0.299983043384     1.007825032230
         H           -3.402640492197     0.724767524108     1.163838956616     1.007825032230
         H           -4.264689492197     0.460038524108    -0.358976043384     1.007825032230
         H            1.980807507803    -1.829043475892     0.156044956616     1.007825032230

  Basis Set: AUG-CC-PVTZ
    Blend: AUG-CC-PVTZ
  Basis Set: (AUG-CC-PVTZ AUX)
    Blend: AUG-CC-PVTZ-JKFIT
	 Reference Energy          =    -309.1517955304551606 [Eh]
	 Singles Energy            =      -0.0000000000000000 [Eh]
	 Same-Spin Energy          =      -0.3166164671452884 [Eh]
	 Opposite-Spin Energy      =      -1.1023697178165743 [Eh]
	 Correlation Energy        =      -1.4189861849618628 [Eh]
	 Total Energy              =    -310.5707817154170129 [Eh]

	 ================> DF-SCS-MP2 Energies <==================
	-----------------------------------------------------------
	 SCS Same-Spin Scale       =       0.3333333333333333 [-]
	 SCS Opposite-Spin Scale   =       1.2000000000000000 [-]
	 SCS Same-Spin Energy      =      -0.1055388223817628 [Eh]
	 SCS Opposite-Spin Energy  =      -1.3228436613798891 [Eh]
	 SCS Correlation Energy    =      -1.4283824837616519 [Eh]
	 SCS Total Energy          =    -310.5801780142168127 [Eh]
	-----------------------------------------------------------

  Dipole Moment: [D]
     X:    -1.9106      Y:    -0.0576      Z:     0.5812     Total:     1.9978

*** Psi4 exiting successfully. Buy a developer a beer!
