                               Psi4 1.3.2 release

  ==> Input File <==

--------------------------------------------------------------------------
#psi4
#
memory 32 gb

molecule  {
0 1
  O       -2.3916800    -1.0522970    -0.0243250
  C       -1.5013820     0.0265210    -0.3499700
  C       -0.1728060    -0.1763470     0.3083280
  C        2.3285040    -0.4694590     0.2834420
  C        0.9860590    -0.2881690    -0.3549330
  C       -2.1959480     1.2879740     0.1259890
  C        3.2526380     0.7192940     0.0124360
  H       -1.3570540     0.0791090    -1.4412390
  H       -0.1904860    -0.2488370     1.3972520
  H        2.7976780    -1.3847260    -0.0993500
  H        2.2027970    -0.6058810     1.3632980
  H        0.9735871    -0.2087868    -1.5446497
  H       -2.3344480     1.2448060     1.2091660
  H       -1.6005480     2.1700530    -0.1223020
  H       -3.1779120     1.3727550    -0.3453210
  H        2.8243150     1.6377400     0.4218030
  H        3.3966440     0.8648080    -1.0620310
  H        4.2355510     0.5661250     0.4665360
  H       -1.9269720    -1.8751040    -0.2580250
units angstrom
no_reorient  #important for SAPT in psi4, default
symmetry c1  #important for SAPT in psi4, default
}

set PROPERTIES_ORIGIN ["COM"]
properties('MP2/aug-cc-pvtz', properties = ['dipole'])
--------------------------------------------------------------------------

    Molecular point group: c1
  Charge       = 0
  Multiplicity = 1
  Basis Set: AUG-CC-PVTZ
    Blend: AUG-CC-PVTZ
  Basis Set: (AUG-CC-PVTZ AUX)
    Blend: AUG-CC-PVTZ-JKFIT

    Orbital Energies [Eh]
    ---------------------

    Doubly Occupied:

       1A    -20.553702     2A    -11.281191     3A    -11.247742
       4A    -11.232112     5A    -11.227451     6A    -11.219801
       7A    -11.210768     8A     -1.352934     9A     -1.093197
      10A     -1.035355    11A     -0.974001    12A     -0.873142
      13A     -0.807090    14A     -0.750718    15A     -0.693065
      16A     -0.649674    17A     -0.611255    18A     -0.593219
      19A     -0.578444    20A     -0.536843    21A     -0.533095
      22A     -0.527779    23A     -0.521594    24A     -0.510033
      25A     -0.484678    26A     -0.469740    27A     -0.440935
      28A     -0.357659

  @DF-RHF Final Energy:  -309.14489204095469

   => Energetics <=

    Nuclear Repulsion Energy =            298.7125636292932427
    One-Electron Energy =               -1010.9804746771875443
    Two-Electron Energy =                 403.1230190069396713
    Total Energy =                       -309.1448920409546872
  Basis Set: (AUG-CC-PVTZ AUX)
    Blend: AUG-CC-PVTZ-RI
    Molecular point group: c1

    Geometry (in Angstrom), charge = 0, multiplicity = 1:

       Center              X                  Y                   Z               Mass
    ------------   -----------------  -----------------  -----------------  -----------------
         O           -2.391669384989    -1.052363870867    -0.023320379262    15.994914619570
         C           -1.501371384989     0.026454129133    -0.348965379262    12.000000000000
         C           -0.172795384989    -0.176413870867     0.309332620738    12.000000000000
         C            2.328514615011    -0.469525870867     0.284446620738    12.000000000000
         C            0.986069615011    -0.288235870867    -0.353928379262    12.000000000000
         C           -2.195937384989     1.287907129133     0.126993620738    12.000000000000
         C            3.252648615011     0.719227129133     0.013440620738    12.000000000000
         H           -1.357043384989     0.079042129133    -1.440234379262     1.007825032230
         H           -0.190475384989    -0.248903870867     1.398256620738     1.007825032230
         H            2.797688615011    -1.384792870867    -0.098345379262     1.007825032230
         H            2.202807615011    -0.605947870867     1.364302620738     1.007825032230
         H            0.973597715011    -0.208853670867    -1.543645079262     1.007825032230
         H           -2.334437384989     1.244739129133     1.210170620738     1.007825032230
         H           -1.600537384989     2.169986129133    -0.121297379262     1.007825032230
         H           -3.177901384989     1.372688129133    -0.344316379262     1.007825032230
         H            2.824325615011     1.637673129133     0.422807620738     1.007825032230
         H            3.396654615011     0.864741129133    -1.061026379262     1.007825032230
         H            4.235561615011     0.566058129133     0.467540620738     1.007825032230
         H           -1.926961384989    -1.875170870867    -0.257020379262     1.007825032230

  Basis Set: AUG-CC-PVTZ
    Blend: AUG-CC-PVTZ
  Basis Set: (AUG-CC-PVTZ AUX)
    Blend: AUG-CC-PVTZ-JKFIT
	 Reference Energy          =    -309.1448920409546872 [Eh]
	 Singles Energy            =      -0.0000000000000000 [Eh]
	 Same-Spin Energy          =      -0.3169346349133789 [Eh]
	 Opposite-Spin Energy      =      -1.1033208978924294 [Eh]
	 Correlation Energy        =      -1.4202555328058084 [Eh]
	 Total Energy              =    -310.5651475737604983 [Eh]

	 ================> DF-SCS-MP2 Energies <==================
	-----------------------------------------------------------
	 SCS Same-Spin Scale       =       0.3333333333333333 [-]
	 SCS Opposite-Spin Scale   =       1.2000000000000000 [-]
	 SCS Same-Spin Energy      =      -0.1056448783044596 [Eh]
	 SCS Opposite-Spin Energy  =      -1.3239850774709152 [Eh]
	 SCS Correlation Energy    =      -1.4296299557753749 [Eh]
	 SCS Total Energy          =    -310.5745219967300841 [Eh]
	-----------------------------------------------------------

  Dipole Moment: [D]
     X:     1.9234      Y:     0.0050      Z:    -0.4938     Total:     1.9858

*** Psi4 exiting successfully. Buy a developer a beer!
