                               Psi4 1.4a3.dev225

  ==> Input File <==

--------------------------------------------------------------------------
#psi4
#
memory 32 gb

molecule  {
0 1
  O        2.4733480    -1.0180220    -0.0592030
  C        1.5612870     0.0272190     0.3186860
  C        0.2241640    -0.1896060    -0.3216700
  C       -2.2699720    -0.5538550    -0.2568310
  C       -0.9183080    -0.3574540     0.3612590
  C        2.2155680     1.3228410    -0.1266610
  C       -3.2245640     0.5955150     0.0801580
  H        1.4306253     0.0404637     1.4634632
  H        0.2208170    -0.2229080    -1.4128920
  H       -2.7032570    -1.4976940     0.0989920
  H       -2.1635450    -0.6441890    -1.3439560
  H       -0.8861850    -0.3229140     1.4529890
  H        2.3348110     1.3198720    -1.2134080
  H        1.6025990     2.1805020     0.1626330
  H        3.2041590     1.4168830     0.3297970
  H       -2.8327200     1.5423190    -0.3012060
  H       -3.3500700     0.6943310     1.1626160
  H       -4.2121190     0.4296020    -0.3601990
  H        2.0333780    -1.8594800     0.1548220
units angstrom
no_reorient  #important for SAPT in psi4, default
symmetry c1  #important for SAPT in psi4, default
}

set PROPERTIES_ORIGIN ["COM"]
properties('MP2/aug-cc-pvtz', properties = ['dipole'])
--------------------------------------------------------------------------

    Molecular point group: c1
  Charge       = 0
  Multiplicity = 1
  Basis Set: AUG-CC-PVTZ
    Blend: AUG-CC-PVTZ
  Basis Set: (AUG-CC-PVTZ AUX)
    Blend: AUG-CC-PVTZ-JKFIT

    Orbital Energies [Eh]
    ---------------------

    Doubly Occupied:

       1A    -20.554654     2A    -11.287900     3A    -11.236908
       4A    -11.231165     5A    -11.227316     6A    -11.220045
       7A    -11.211646     8A     -1.352835     9A     -1.093715
      10A     -1.033639    11A     -0.974367    12A     -0.872848
      13A     -0.804984    14A     -0.758421    15A     -0.691133
      16A     -0.651477    17A     -0.610391    18A     -0.593827
      19A     -0.578542    20A     -0.538936    21A     -0.536157
      22A     -0.527888    23A     -0.521567    24A     -0.510300
      25A     -0.487573    26A     -0.469695    27A     -0.438385
      28A     -0.356667

  @DF-RHF Final Energy:  -309.14934080922336

   => Energetics <=

    Nuclear Repulsion Energy =            298.5962138362962150
    One-Electron Energy =               -1010.7451505761208637
    Two-Electron Energy =                 402.9995959306012878
    Total Energy =                       -309.1493408092233608
  Basis Set: (AUG-CC-PVTZ AUX)
    Blend: AUG-CC-PVTZ-RI
    Molecular point group: c1

    Geometry (in Angstrom), charge = 0, multiplicity = 1:

       Center              X                  Y                   Z               Mass
    ------------   -----------------  -----------------  -----------------  -----------------
         O            2.420835215003    -0.987585119438    -0.058278936673    15.994914619570
         C            1.508774215003     0.057655880562     0.319610063327    12.000000000000
         C            0.171651215003    -0.159169119438    -0.320745936673    12.000000000000
         C           -2.322484784997    -0.523418119438    -0.255906936673    12.000000000000
         C           -0.970820784997    -0.327017119438     0.362183063327    12.000000000000
         C            2.163055215003     1.353277880562    -0.125736936673    12.000000000000
         C           -3.277076784997     0.625951880562     0.081082063327    12.000000000000
         H            1.378112515003     0.070900580562     1.464387263327     1.007825032230
         H            0.168304215003    -0.192471119438    -1.411967936673     1.007825032230
         H           -2.755769784997    -1.467257119438     0.099916063327     1.007825032230
         H           -2.216057784997    -0.613752119438    -1.343031936673     1.007825032230
         H           -0.938697784997    -0.292477119438     1.453913063327     1.007825032230
         H            2.282298215003     1.350308880562    -1.212483936673     1.007825032230
         H            1.550086215003     2.210938880562     0.163557063327     1.007825032230
         H            3.151646215003     1.447319880562     0.330721063327     1.007825032230
         H           -2.885232784997     1.572755880562    -0.300281936673     1.007825032230
         H           -3.402582784997     0.724767880562     1.163540063327     1.007825032230
         H           -4.264631784997     0.460038880562    -0.359274936673     1.007825032230
         H            1.980865215003    -1.829043119438     0.155746063327     1.007825032230

  Basis Set: AUG-CC-PVTZ
    Blend: AUG-CC-PVTZ
  Basis Set: (AUG-CC-PVTZ AUX)
    Blend: AUG-CC-PVTZ-JKFIT
	 Reference Energy          =    -309.1493408092233608 [Eh]
	 Singles Energy            =      -0.0000000000000000 [Eh]
	 Same-Spin Energy          =      -0.3167654385278286 [Eh]
	 Opposite-Spin Energy      =      -1.1029775360796550 [Eh]
	 Correlation Energy        =      -1.4197429746074837 [Eh]
	 Total Energy              =    -310.5690837838308198 [Eh]

	 ================> DF-SCS-MP2 Energies <==================
	-----------------------------------------------------------
	 SCS Same-Spin Scale       =       0.3333333333333333 [-]
	 SCS Opposite-Spin Scale   =       1.2000000000000000 [-]
	 SCS Same-Spin Energy      =      -0.1055884795092762 [Eh]
	 SCS Opposite-Spin Energy  =      -1.3235730432955859 [Eh]
	 SCS Correlation Energy    =      -1.4291615228048622 [Eh]
	 SCS Total Energy          =    -310.5785023320282221 [Eh]
	-----------------------------------------------------------

  Dipole Moment: [D]
     X:    -1.8999      Y:    -0.0656      Z:     0.5443     Total:     1.9774

*** Psi4 exiting successfully. Buy a developer a beer!
