                               Psi4 1.3.2 release

  ==> Input File <==

--------------------------------------------------------------------------
#psi4
#
memory 32 gb

molecule  {
0 1
  O       -2.4078171    -1.0357574    -0.0146141
  C       -1.5013820     0.0265210    -0.3499700
  C       -0.1728060    -0.1763470     0.3083280
  C        2.3285040    -0.4694590     0.2834420
  C        0.9860590    -0.2881690    -0.3549330
  C       -2.2162781     1.2733001     0.1344762
  C        3.2526380     0.7192940     0.0124360
  H       -1.3570540     0.0791090    -1.4412390
  H       -0.1904860    -0.2488370     1.3972520
  H        2.7976780    -1.3847260    -0.0993500
  H        2.2027970    -0.6058810     1.3632980
  H        0.9746330    -0.2154440    -1.4448770
  H       -2.3344480     1.2448060     1.2091660
  H       -1.6005480     2.1700530    -0.1223020
  H       -3.1779120     1.3727550    -0.3453210
  H        2.8243150     1.6377400     0.4218030
  H        3.3966440     0.8648080    -1.0620310
  H        4.2355510     0.5661250     0.4665360
  H       -1.9269720    -1.8751040    -0.2580250
units angstrom
no_reorient  #important for SAPT in psi4, default
symmetry c1  #important for SAPT in psi4, default
}

set PROPERTIES_ORIGIN ["COM"]
properties('MP2/aug-cc-pvtz', properties = ['dipole'])
--------------------------------------------------------------------------

    Molecular point group: c1
  Charge       = 0
  Multiplicity = 1
  Basis Set: AUG-CC-PVTZ
    Blend: AUG-CC-PVTZ
  Basis Set: (AUG-CC-PVTZ AUX)
    Blend: AUG-CC-PVTZ-JKFIT

    Orbital Energies [Eh]
    ---------------------

    Doubly Occupied:

       1A    -20.556004     2A    -11.280693     3A    -11.236931
       4A    -11.231028     5A    -11.226771     6A    -11.219885
       7A    -11.209773     8A     -1.348980     9A     -1.094678
      10A     -1.033750    11A     -0.974466    12A     -0.873644
      13A     -0.806338    14A     -0.760823    15A     -0.687891
      16A     -0.655002    17A     -0.610969    18A     -0.595561
      19A     -0.578123    20A     -0.540525    21A     -0.537314
      22A     -0.523849    23A     -0.517429    24A     -0.509167
      25A     -0.487656    26A     -0.472728    27A     -0.441551
      28A     -0.357308

  @DF-RHF Final Energy:  -309.14847406544015

   => Energetics <=

    Nuclear Repulsion Energy =            299.0379590293898673
    One-Electron Energy =               -1011.6351914634711875
    Two-Electron Energy =                 403.4487583686411654
    Total Energy =                       -309.1484740654401548
  Basis Set: (AUG-CC-PVTZ AUX)
    Blend: AUG-CC-PVTZ-RI
    Molecular point group: c1

    Geometry (in Angstrom), charge = 0, multiplicity = 1:

       Center              X                  Y                   Z               Mass
    ------------   -----------------  -----------------  -----------------  -----------------
         O           -2.402800744313    -1.036641079389    -0.017183553357    15.994914619570
         C           -1.496365644313     0.025637320611    -0.352539453357    12.000000000000
         C           -0.167789644313    -0.177230679389     0.305758546643    12.000000000000
         C            2.333520355687    -0.470342679389     0.280872546643    12.000000000000
         C            0.991075355687    -0.289052679389    -0.357502453357    12.000000000000
         C           -2.211261744313     1.272416420611     0.131906746643    12.000000000000
         C            3.257654355687     0.718410320611     0.009866546643    12.000000000000
         H           -1.352037644313     0.078225320611    -1.443808453357     1.007825032230
         H           -0.185469644313    -0.249720679389     1.394682546643     1.007825032230
         H            2.802694355687    -1.385609679389    -0.101919453357     1.007825032230
         H            2.207813355687    -0.606764679389     1.360728546643     1.007825032230
         H            0.979649355687    -0.216327679389    -1.447446453357     1.007825032230
         H           -2.329431644313     1.243922320611     1.206596546643     1.007825032230
         H           -1.595531644313     2.169169320611    -0.124871453357     1.007825032230
         H           -3.172895644313     1.371871320611    -0.347890453357     1.007825032230
         H            2.829331355687     1.636856320611     0.419233546643     1.007825032230
         H            3.401660355687     0.863924320611    -1.064600453357     1.007825032230
         H            4.240567355687     0.565241320611     0.463966546643     1.007825032230
         H           -1.921955644313    -1.875987679389    -0.260594453357     1.007825032230

  Basis Set: AUG-CC-PVTZ
    Blend: AUG-CC-PVTZ
  Basis Set: (AUG-CC-PVTZ AUX)
    Blend: AUG-CC-PVTZ-JKFIT
	 Reference Energy          =    -309.1484740654401548 [Eh]
	 Singles Energy            =      -0.0000000000000000 [Eh]
	 Same-Spin Energy          =      -0.3171203292648090 [Eh]
	 Opposite-Spin Energy      =      -1.1034440668518479 [Eh]
	 Correlation Energy        =      -1.4205643961166570 [Eh]
	 Total Energy              =    -310.5690384615568291 [Eh]

	 ================> DF-SCS-MP2 Energies <==================
	-----------------------------------------------------------
	 SCS Same-Spin Scale       =       0.3333333333333333 [-]
	 SCS Opposite-Spin Scale   =       1.2000000000000000 [-]
	 SCS Same-Spin Energy      =      -0.1057067764216030 [Eh]
	 SCS Opposite-Spin Energy  =      -1.3241328802222174 [Eh]
	 SCS Correlation Energy    =      -1.4298396566438205 [Eh]
	 SCS Total Energy          =    -310.5783137220839762 [Eh]
	-----------------------------------------------------------

  Dipole Moment: [D]
     X:     1.9481      Y:    -0.0339      Z:    -0.5621     Total:     2.0279

*** Psi4 exiting successfully. Buy a developer a beer!
