                               Psi4 1.3.2 release

  ==> Input File <==

--------------------------------------------------------------------------
#psi4
#
memory 32 gb

molecule  {
0 1
  O       -2.3916800    -1.0522970    -0.0243250
  C       -1.5013820     0.0265210    -0.3499700
  C       -0.1968276    -0.1764199     0.3547133
  C        2.3285040    -0.4694590     0.2834420
  C        0.9860590    -0.2881690    -0.3549330
  C       -2.1959480     1.2879740     0.1259890
  C        3.2526380     0.7192940     0.0124360
  H       -1.3949915     0.0839590    -1.4453448
  H       -0.1904860    -0.2488370     1.3972520
  H        2.7976780    -1.3847260    -0.0993500
  H        2.2027970    -0.6058810     1.3632980
  H        0.9746330    -0.2154440    -1.4448770
  H       -2.3344480     1.2448060     1.2091660
  H       -1.6005480     2.1700530    -0.1223020
  H       -3.1779120     1.3727550    -0.3453210
  H        2.8243150     1.6377400     0.4218030
  H        3.3966440     0.8648080    -1.0620310
  H        4.2355510     0.5661250     0.4665360
  H       -1.9269720    -1.8751040    -0.2580250
units angstrom
no_reorient  #important for SAPT in psi4, default
symmetry c1  #important for SAPT in psi4, default
}

set PROPERTIES_ORIGIN ["COM"]
properties('MP2/aug-cc-pvtz', properties = ['dipole'])
--------------------------------------------------------------------------

    Molecular point group: c1
  Charge       = 0
  Multiplicity = 1
  Basis Set: AUG-CC-PVTZ
    Blend: AUG-CC-PVTZ
  Basis Set: (AUG-CC-PVTZ AUX)
    Blend: AUG-CC-PVTZ-JKFIT

    Orbital Energies [Eh]
    ---------------------

    Doubly Occupied:

       1A    -20.551725     2A    -11.280833     3A    -11.242743
       4A    -11.230419     5A    -11.229009     6A    -11.219538
       7A    -11.209740     8A     -1.352057     9A     -1.089664
      10A     -1.034978    11A     -0.970189    12A     -0.873488
      13A     -0.804192    14A     -0.768700    15A     -0.690559
      16A     -0.653650    17A     -0.607852    18A     -0.600147
      19A     -0.577426    20A     -0.544301    21A     -0.535023
      22A     -0.527488    23A     -0.522919    24A     -0.509777
      25A     -0.487728    26A     -0.466577    27A     -0.443897
      28A     -0.346658

  @DF-RHF Final Energy:  -309.14576995785609

   => Energetics <=

    Nuclear Repulsion Energy =            298.7377592926448528
    One-Electron Energy =               -1011.0245039864772707
    Two-Electron Energy =                 403.1409747359762719
    Total Energy =                       -309.1457699578560891
  Basis Set: (AUG-CC-PVTZ AUX)
    Blend: AUG-CC-PVTZ-RI
    Molecular point group: c1

    Geometry (in Angstrom), charge = 0, multiplicity = 1:

       Center              X                  Y                   Z               Mass
    ------------   -----------------  -----------------  -----------------  -----------------
         O           -2.388417878036    -1.052336933378    -0.029844975407    15.994914619570
         C           -1.498119878036     0.026481066622    -0.355489975407    12.000000000000
         C           -0.193565478036    -0.176459833378     0.349193324593    12.000000000000
         C            2.331766121964    -0.469498933378     0.277922024593    12.000000000000
         C            0.989321121964    -0.288208933378    -0.360452975407    12.000000000000
         C           -2.192685878036     1.287934066622     0.120469024593    12.000000000000
         C            3.255900121964     0.719254066622     0.006916024593    12.000000000000
         H           -1.391729378036     0.083919066622    -1.450864775407     1.007825032230
         H           -0.187223878036    -0.248876933378     1.391732024593     1.007825032230
         H            2.800940121964    -1.384765933378    -0.104869975407     1.007825032230
         H            2.206059121964    -0.605920933378     1.357778024593     1.007825032230
         H            0.977895121964    -0.215483933378    -1.450396975407     1.007825032230
         H           -2.331185878036     1.244766066622     1.203646024593     1.007825032230
         H           -1.597285878036     2.170013066622    -0.127821975407     1.007825032230
         H           -3.174649878036     1.372715066622    -0.350840975407     1.007825032230
         H            2.827577121964     1.637700066622     0.416283024593     1.007825032230
         H            3.399906121964     0.864768066622    -1.067550975407     1.007825032230
         H            4.238813121964     0.566085066622     0.461016024593     1.007825032230
         H           -1.923709878036    -1.875143933378    -0.263544975407     1.007825032230

  Basis Set: AUG-CC-PVTZ
    Blend: AUG-CC-PVTZ
  Basis Set: (AUG-CC-PVTZ AUX)
    Blend: AUG-CC-PVTZ-JKFIT
	 Reference Energy          =    -309.1457699578560891 [Eh]
	 Singles Energy            =      -0.0000000000000000 [Eh]
	 Same-Spin Energy          =      -0.3171301409728739 [Eh]
	 Opposite-Spin Energy      =      -1.1035869025630749 [Eh]
	 Correlation Energy        =      -1.4207170435359489 [Eh]
	 Total Energy              =    -310.5664870013920336 [Eh]

	 ================> DF-SCS-MP2 Energies <==================
	-----------------------------------------------------------
	 SCS Same-Spin Scale       =       0.3333333333333333 [-]
	 SCS Opposite-Spin Scale   =       1.2000000000000000 [-]
	 SCS Same-Spin Energy      =      -0.1057100469909580 [Eh]
	 SCS Opposite-Spin Energy  =      -1.3243042830756899 [Eh]
	 SCS Correlation Energy    =      -1.4300143300666479 [Eh]
	 SCS Total Energy          =    -310.5757842879227155 [Eh]
	-----------------------------------------------------------

  Dipole Moment: [D]
     X:     1.9220      Y:     0.0138      Z:    -0.5478     Total:     1.9986

*** Psi4 exiting successfully. Buy a developer a beer!
