                               Psi4 1.3.2 release

  ==> Input File <==

--------------------------------------------------------------------------
#psi4
#
memory 32 gb

molecule  {
0 1
  O       -2.3916800    -1.0522970    -0.0243250
  C       -1.5013820     0.0265210    -0.3499700
  C       -0.1728060    -0.1763470     0.3083280
  C        2.3285040    -0.4694590     0.2834420
  C        0.9860590    -0.2881690    -0.3549330
  C       -2.1959480     1.2879740     0.1259890
  C        3.2526380     0.7192940     0.0124360
  H       -1.3439574     0.0838809    -1.5402628
  H       -0.1904860    -0.2488370     1.3972520
  H        2.7976780    -1.3847260    -0.0993500
  H        2.2027970    -0.6058810     1.3632980
  H        0.9746330    -0.2154440    -1.4448770
  H       -2.3344480     1.2448060     1.2091660
  H       -1.6005480     2.1700530    -0.1223020
  H       -3.1779120     1.3727550    -0.3453210
  H        2.8243150     1.6377400     0.4218030
  H        3.3966440     0.8648080    -1.0620310
  H        4.2355510     0.5661250     0.4665360
  H       -1.9269720    -1.8751040    -0.2580250
units angstrom
no_reorient  #important for SAPT in psi4, default
symmetry c1  #important for SAPT in psi4, default
}

set PROPERTIES_ORIGIN ["COM"]
properties('MP2/aug-cc-pvtz', properties = ['dipole'])
--------------------------------------------------------------------------

    Molecular point group: c1
  Charge       = 0
  Multiplicity = 1
  Basis Set: AUG-CC-PVTZ
    Blend: AUG-CC-PVTZ
  Basis Set: (AUG-CC-PVTZ AUX)
    Blend: AUG-CC-PVTZ-JKFIT

    Orbital Energies [Eh]
    ---------------------

    Doubly Occupied:

       1A    -20.555809     2A    -11.293383     3A    -11.236471
       4A    -11.230752     5A    -11.227183     6A    -11.219735
       7A    -11.211840     8A     -1.354187     9A     -1.094363
      10A     -1.033655    11A     -0.974842    12A     -0.872834
      13A     -0.803461    14A     -0.756666    15A     -0.690652
      16A     -0.649757    17A     -0.610832    18A     -0.593330
      19A     -0.579661    20A     -0.539088    21A     -0.536551
      22A     -0.528196    23A     -0.521806    24A     -0.510422
      25A     -0.487505    26A     -0.468584    27A     -0.435423
      28A     -0.357023

  @DF-RHF Final Energy:  -309.14504959127856

   => Energetics <=

    Nuclear Repulsion Energy =            298.6842888516170547
    One-Electron Energy =               -1010.9106565547469927
    Two-Electron Energy =                 403.0813181118513171
    Total Energy =                       -309.1450495912785641
  Basis Set: (AUG-CC-PVTZ AUX)
    Blend: AUG-CC-PVTZ-RI
    Molecular point group: c1

    Geometry (in Angstrom), charge = 0, multiplicity = 1:

       Center              X                  Y                   Z               Mass
    ------------   -----------------  -----------------  -----------------  -----------------
         O           -2.391811790167    -1.052344887202    -0.023327920166    15.994914619570
         C           -1.501513790167     0.026473112798    -0.348972920166    12.000000000000
         C           -0.172937790167    -0.176394887202     0.309325079834    12.000000000000
         C            2.328372209833    -0.469506887202     0.284439079834    12.000000000000
         C            0.985927209833    -0.288216887202    -0.353935920166    12.000000000000
         C           -2.196079790167     1.287926112798     0.126986079834    12.000000000000
         C            3.252506209833     0.719246112798     0.013433079834    12.000000000000
         H           -1.344089190167     0.083833012798    -1.539265720166     1.007825032230
         H           -0.190617790167    -0.248884887202     1.398249079834     1.007825032230
         H            2.797546209833    -1.384773887202    -0.098352920166     1.007825032230
         H            2.202665209833    -0.605928887202     1.364295079834     1.007825032230
         H            0.974501209833    -0.215491887202    -1.443879920166     1.007825032230
         H           -2.334579790167     1.244758112798     1.210163079834     1.007825032230
         H           -1.600679790167     2.170005112798    -0.121304920166     1.007825032230
         H           -3.178043790167     1.372707112798    -0.344323920166     1.007825032230
         H            2.824183209833     1.637692112798     0.422800079834     1.007825032230
         H            3.396512209833     0.864760112798    -1.061033920166     1.007825032230
         H            4.235419209833     0.566077112798     0.467533079834     1.007825032230
         H           -1.927103790167    -1.875151887202    -0.257027920166     1.007825032230

  Basis Set: AUG-CC-PVTZ
    Blend: AUG-CC-PVTZ
  Basis Set: (AUG-CC-PVTZ AUX)
    Blend: AUG-CC-PVTZ-JKFIT
	 Reference Energy          =    -309.1450495912785641 [Eh]
	 Singles Energy            =      -0.0000000000000000 [Eh]
	 Same-Spin Energy          =      -0.3169345775450737 [Eh]
	 Opposite-Spin Energy      =      -1.1034293544315368 [Eh]
	 Correlation Energy        =      -1.4203639319766106 [Eh]
	 Total Energy              =    -310.5654135232551880 [Eh]

	 ================> DF-SCS-MP2 Energies <==================
	-----------------------------------------------------------
	 SCS Same-Spin Scale       =       0.3333333333333333 [-]
	 SCS Opposite-Spin Scale   =       1.2000000000000000 [-]
	 SCS Same-Spin Energy      =      -0.1056448591816912 [Eh]
	 SCS Opposite-Spin Energy  =      -1.3241152253178441 [Eh]
	 SCS Correlation Energy    =      -1.4297600844995353 [Eh]
	 SCS Total Energy          =    -310.5748096757781127 [Eh]
	-----------------------------------------------------------

  Dipole Moment: [D]
     X:     1.8955      Y:    -0.0139      Z:    -0.4584     Total:     1.9502

*** Psi4 exiting successfully. Buy a developer a beer!
