                               Psi4 1.3.2 release

  ==> Input File <==

--------------------------------------------------------------------------
#psi4
#
memory 32 gb

molecule  {
0 1
  O       -2.3916800    -1.0522970    -0.0243250
  C       -1.5013820     0.0265210    -0.3499700
  C       -0.1728060    -0.1763470     0.3083280
  C        2.3285040    -0.4694590     0.2834420
  C        0.9650485    -0.3578224    -0.3257161
  C       -2.1959480     1.2879740     0.1259890
  C        3.3093180     0.6822956     0.0552604
  H       -1.3570540     0.0791090    -1.4412390
  H       -0.1904860    -0.2488370     1.3972520
  H        2.7976780    -1.3847260    -0.0993500
  H        2.2027970    -0.6058810     1.3632980
  H        0.9746330    -0.2154440    -1.4448770
  H       -2.3344480     1.2448060     1.2091660
  H       -1.6005480     2.1700530    -0.1223020
  H       -3.1779120     1.3727550    -0.3453210
  H        2.8243150     1.6377400     0.4218030
  H        3.3966440     0.8648080    -1.0620310
  H        4.2355510     0.5661250     0.4665360
  H       -1.9269720    -1.8751040    -0.2580250
units angstrom
no_reorient  #important for SAPT in psi4, default
symmetry c1  #important for SAPT in psi4, default
}

set PROPERTIES_ORIGIN ["COM"]
properties('MP2/aug-cc-pvtz', properties = ['dipole'])
--------------------------------------------------------------------------

    Molecular point group: c1
  Charge       = 0
  Multiplicity = 1
  Basis Set: AUG-CC-PVTZ
    Blend: AUG-CC-PVTZ
  Basis Set: (AUG-CC-PVTZ AUX)
    Blend: AUG-CC-PVTZ-JKFIT

    Orbital Energies [Eh]
    ---------------------

    Doubly Occupied:

       1A    -20.554477     2A    -11.282514     3A    -11.236879
       4A    -11.230898     5A    -11.224906     6A    -11.222322
       7A    -11.211857     8A     -1.353737     9A     -1.097206
      10A     -1.035631    11A     -0.979602    12A     -0.876539
      13A     -0.809648    14A     -0.755088    15A     -0.693970
      16A     -0.653543    17A     -0.616316    18A     -0.589283
      19A     -0.579359    20A     -0.558162    21A     -0.533563
      22A     -0.528350    23A     -0.519624    24A     -0.503161
      25A     -0.475739    26A     -0.469362    27A     -0.442407
      28A     -0.364245

  @DF-RHF Final Energy:  -309.14117174842767

   => Energetics <=

    Nuclear Repulsion Energy =            298.9739833672960003
    One-Electron Energy =               -1011.4335393695865832
    Two-Electron Energy =                 403.3183842538629165
    Total Energy =                       -309.1411717484276664
  Basis Set: (AUG-CC-PVTZ AUX)
    Blend: AUG-CC-PVTZ-RI
    Molecular point group: c1

    Geometry (in Angstrom), charge = 0, multiplicity = 1:

       Center              X                  Y                   Z               Mass
    ------------   -----------------  -----------------  -----------------  -----------------
         O           -2.395956458267    -1.039509978125    -0.032962306030    15.994914619570
         C           -1.505658458267     0.039308021875    -0.358607306030    12.000000000000
         C           -0.177082458267    -0.163559978125     0.299690693970    12.000000000000
         C            2.324227541733    -0.456671978125     0.274804693970    12.000000000000
         C            0.960772041733    -0.345035378125    -0.334353406030    12.000000000000
         C           -2.200224458267     1.300761021875     0.117351693970    12.000000000000
         C            3.305041541733     0.695082621875     0.046623093970    12.000000000000
         H           -1.361330458267     0.091896021875    -1.449876306030     1.007825032230
         H           -0.194762458267    -0.236049978125     1.388614693970     1.007825032230
         H            2.793401541733    -1.371938978125    -0.107987306030     1.007825032230
         H            2.198520541733    -0.593093978125     1.354660693970     1.007825032230
         H            0.970356541733    -0.202656978125    -1.453514306030     1.007825032230
         H           -2.338724458267     1.257593021875     1.200528693970     1.007825032230
         H           -1.604824458267     2.182840021875    -0.130939306030     1.007825032230
         H           -3.182188458267     1.385542021875    -0.353958306030     1.007825032230
         H            2.820038541733     1.650527021875     0.413165693970     1.007825032230
         H            3.392367541733     0.877595021875    -1.070668306030     1.007825032230
         H            4.231274541733     0.578912021875     0.457898693970     1.007825032230
         H           -1.931248458267    -1.862316978125    -0.266662306030     1.007825032230

  Basis Set: AUG-CC-PVTZ
    Blend: AUG-CC-PVTZ
  Basis Set: (AUG-CC-PVTZ AUX)
    Blend: AUG-CC-PVTZ-JKFIT
	 Reference Energy          =    -309.1411717484276664 [Eh]
	 Singles Energy            =      -0.0000000000000000 [Eh]
	 Same-Spin Energy          =      -0.3166974355033060 [Eh]
	 Opposite-Spin Energy      =      -1.1025081284610196 [Eh]
	 Correlation Energy        =      -1.4192055639643257 [Eh]
	 Total Energy              =    -310.5603773123920064 [Eh]

	 ================> DF-SCS-MP2 Energies <==================
	-----------------------------------------------------------
	 SCS Same-Spin Scale       =       0.3333333333333333 [-]
	 SCS Opposite-Spin Scale   =       1.2000000000000000 [-]
	 SCS Same-Spin Energy      =      -0.1055658118344353 [Eh]
	 SCS Opposite-Spin Energy  =      -1.3230097541532235 [Eh]
	 SCS Correlation Energy    =      -1.4285755659876589 [Eh]
	 SCS Total Energy          =    -310.5697473144153378 [Eh]
	-----------------------------------------------------------

  Dipole Moment: [D]
     X:     1.8804      Y:     0.0749      Z:    -0.5033     Total:     1.9481

*** Psi4 exiting successfully. Buy a developer a beer!
