                               Psi4 1.3.2 release

  ==> Input File <==

--------------------------------------------------------------------------
#psi4
#
memory 32 gb

molecule  {
0 1
  O       -2.3916800    -1.0522970    -0.0243250
  C       -1.5013820     0.0265210    -0.3499700
  C       -0.1728060    -0.1763470     0.3083280
  C        2.3285040    -0.4694590     0.2834420
  C        0.9860590    -0.2881690    -0.3549330
  C       -2.1959480     1.2879740     0.1259890
  C        3.2526380     0.7192940     0.0124360
  H       -1.3570540     0.0791090    -1.4412390
  H       -0.1904860    -0.2488370     1.3972520
  H        2.7976780    -1.3847260    -0.0993500
  H        2.2027970    -0.6058810     1.3632980
  H        0.9746330    -0.2154440    -1.4448770
  H       -2.3344480     1.2448060     1.2091660
  H       -1.6005480     2.1700530    -0.1223020
  H       -3.1779120     1.3727550    -0.3453210
  H        2.8243150     1.6377400     0.4218030
  H        3.3966440     0.8648080    -1.0620310
  H        4.2355510     0.5661250     0.4665360
  H       -2.0224497    -1.7060522    -0.2100096
units angstrom
no_reorient  #important for SAPT in psi4, default
symmetry c1  #important for SAPT in psi4, default
}

set PROPERTIES_ORIGIN ["COM"]
properties('MP2/aug-cc-pvtz', properties = ['dipole'])
--------------------------------------------------------------------------

    Molecular point group: c1
  Charge       = 0
  Multiplicity = 1
  Basis Set: AUG-CC-PVTZ
    Blend: AUG-CC-PVTZ
  Basis Set: (AUG-CC-PVTZ AUX)
    Blend: AUG-CC-PVTZ-JKFIT

    Orbital Energies [Eh]
    ---------------------

    Doubly Occupied:

       1A    -20.531654     2A    -11.283429     3A    -11.237332
       4A    -11.231145     5A    -11.227316     6A    -11.220047
       7A    -11.211533     8A     -1.413391     9A     -1.098240
      10A     -1.043394    11A     -0.977862    12A     -0.875055
      13A     -0.819094    14A     -0.764372    15A     -0.727722
      16A     -0.656080    17A     -0.613155    18A     -0.595843
      19A     -0.583960    20A     -0.540146    21A     -0.537083
      22A     -0.532749    23A     -0.524798    24A     -0.514065
      25A     -0.488051    26A     -0.476695    27A     -0.445390
      28A     -0.357759

  @DF-RHF Final Energy:  -309.10609630978905

   => Energetics <=

    Nuclear Repulsion Energy =            300.5000948635762938
    One-Electron Energy =               -1014.1576645000759527
    Two-Electron Energy =                 404.5514733267105498
    Total Energy =                       -309.1060963097890522
  Basis Set: (AUG-CC-PVTZ AUX)
    Blend: AUG-CC-PVTZ-RI
    Molecular point group: c1

    Geometry (in Angstrom), charge = 0, multiplicity = 1:

       Center              X                  Y                   Z               Mass
    ------------   -----------------  -----------------  -----------------  -----------------
         O           -2.390718522180    -1.053999071993    -0.024808503051    15.994914619570
         C           -1.500420522180     0.024818928007    -0.350453503051    12.000000000000
         C           -0.171844522180    -0.178049071993     0.307844496949    12.000000000000
         C            2.329465477820    -0.471161071993     0.282958496949    12.000000000000
         C            0.987020477820    -0.289871071993    -0.355416503051    12.000000000000
         C           -2.194986522180     1.286271928007     0.125505496949    12.000000000000
         C            3.253599477820     0.717591928007     0.011952496949    12.000000000000
         H           -1.356092522180     0.077406928007    -1.441722503051     1.007825032230
         H           -0.189524522180    -0.250539071993     1.396768496949     1.007825032230
         H            2.798639477820    -1.386428071993    -0.099833503051     1.007825032230
         H            2.203758477820    -0.607583071993     1.362814496949     1.007825032230
         H            0.975594477820    -0.217146071993    -1.445360503051     1.007825032230
         H           -2.333486522180     1.243103928007     1.208682496949     1.007825032230
         H           -1.599586522180     2.168350928007    -0.122785503051     1.007825032230
         H           -3.176950522180     1.371052928007    -0.345804503051     1.007825032230
         H            2.825276477820     1.636037928007     0.421319496949     1.007825032230
         H            3.397605477820     0.863105928007    -1.062514503051     1.007825032230
         H            4.236512477820     0.564422928007     0.466052496949     1.007825032230
         H           -2.021488222180    -1.707754271993    -0.210493103051     1.007825032230

  Basis Set: AUG-CC-PVTZ
    Blend: AUG-CC-PVTZ
  Basis Set: (AUG-CC-PVTZ AUX)
    Blend: AUG-CC-PVTZ-JKFIT
	 Reference Energy          =    -309.1060963097890522 [Eh]
	 Singles Energy            =      -0.0000000000000000 [Eh]
	 Same-Spin Energy          =      -0.3143088667270687 [Eh]
	 Opposite-Spin Energy      =      -1.0967816394209415 [Eh]
	 Correlation Energy        =      -1.4110905061480103 [Eh]
	 Total Energy              =    -310.5171868159370661 [Eh]

	 ================> DF-SCS-MP2 Energies <==================
	-----------------------------------------------------------
	 SCS Same-Spin Scale       =       0.3333333333333333 [-]
	 SCS Opposite-Spin Scale   =       1.2000000000000000 [-]
	 SCS Same-Spin Energy      =      -0.1047696222423562 [Eh]
	 SCS Opposite-Spin Energy  =      -1.3161379673051299 [Eh]
	 SCS Correlation Energy    =      -1.4209075895474861 [Eh]
	 SCS Total Energy          =    -310.5270038993365347 [Eh]
	-----------------------------------------------------------

  Dipole Moment: [D]
     X:     1.9111      Y:     0.1599      Z:    -0.5317     Total:     1.9902

*** Psi4 exiting successfully. Buy a developer a beer!
