                               Psi4 1.3.2 release

  ==> Input File <==

--------------------------------------------------------------------------
#psi4
#
memory 32 gb

molecule  {
0 1
  O       -2.3916800    -1.0522970    -0.0243250
  C       -1.4513419    -0.0244690    -0.3734057
  C       -0.1728060    -0.1763470     0.3083280
  C        2.3285040    -0.4694590     0.2834420
  C        0.9860590    -0.2881690    -0.3549330
  C       -2.1959480     1.2879740     0.1259890
  C        3.2526380     0.7192940     0.0124360
  H       -1.3570540     0.0791090    -1.4412390
  H       -0.1904860    -0.2488370     1.3972520
  H        2.7976780    -1.3847260    -0.0993500
  H        2.2027970    -0.6058810     1.3632980
  H        0.9746330    -0.2154440    -1.4448770
  H       -2.3344480     1.2448060     1.2091660
  H       -1.6005480     2.1700530    -0.1223020
  H       -3.1779120     1.3727550    -0.3453210
  H        2.8243150     1.6377400     0.4218030
  H        3.3966440     0.8648080    -1.0620310
  H        4.2355510     0.5661250     0.4665360
  H       -1.8874450    -1.8468387    -0.2733855
units angstrom
no_reorient  #important for SAPT in psi4, default
symmetry c1  #important for SAPT in psi4, default
}

set PROPERTIES_ORIGIN ["COM"]
properties('MP2/aug-cc-pvtz', properties = ['dipole'])
--------------------------------------------------------------------------

    Molecular point group: c1
  Charge       = 0
  Multiplicity = 1
  Basis Set: AUG-CC-PVTZ
    Blend: AUG-CC-PVTZ
  Basis Set: (AUG-CC-PVTZ AUX)
    Blend: AUG-CC-PVTZ-JKFIT

    Orbital Energies [Eh]
    ---------------------

    Doubly Occupied:

       1A    -20.556560     2A    -11.279212     3A    -11.237920
       4A    -11.231565     5A    -11.226008     6A    -11.220338
       7A    -11.210968     8A     -1.356886     9A     -1.098360
      10A     -1.032788    11A     -0.966156    12A     -0.876575
      13A     -0.809000    14A     -0.764675    15A     -0.689481
      16A     -0.657987    17A     -0.611747    18A     -0.596492
      19A     -0.580058    20A     -0.540196    21A     -0.535392
      22A     -0.525095    23A     -0.521926    24A     -0.506157
      25A     -0.488144    26A     -0.464088    27A     -0.451785
      28A     -0.355533

  @DF-RHF Final Energy:  -309.14424681821390

   => Energetics <=

    Nuclear Repulsion Energy =            299.3264713295601496
    One-Electron Energy =               -1012.1592460761621624
    Two-Electron Energy =                 403.6885279283881118
    Total Energy =                       -309.1442468182139010
  Basis Set: (AUG-CC-PVTZ AUX)
    Blend: AUG-CC-PVTZ-RI
    Molecular point group: c1

    Geometry (in Angstrom), charge = 0, multiplicity = 1:

       Center              X                  Y                   Z               Mass
    ------------   -----------------  -----------------  -----------------  -----------------
         O           -2.398077409545    -1.046468079056    -0.021360563154    15.994914619570
         C           -1.457739309545    -0.018640079056    -0.370441263154    12.000000000000
         C           -0.179203409545    -0.170518079056     0.311292436846    12.000000000000
         C            2.322106590455    -0.463630079056     0.286406436846    12.000000000000
         C            0.979661590455    -0.282340079056    -0.351968563154    12.000000000000
         C           -2.202345409545     1.293802920944     0.128953436846    12.000000000000
         C            3.246240590455     0.725122920944     0.015400436846    12.000000000000
         H           -1.363451409545     0.084937920944    -1.438274563154     1.007825032230
         H           -0.196883409545    -0.243008079056     1.400216436846     1.007825032230
         H            2.791280590455    -1.378897079056    -0.096385563154     1.007825032230
         H            2.196399590455    -0.600052079056     1.366262436846     1.007825032230
         H            0.968235590455    -0.209615079056    -1.441912563154     1.007825032230
         H           -2.340845409545     1.250634920944     1.212130436846     1.007825032230
         H           -1.606945409545     2.175881920944    -0.119337563154     1.007825032230
         H           -3.184309409545     1.378583920944    -0.342356563154     1.007825032230
         H            2.817917590455     1.643568920944     0.424767436846     1.007825032230
         H            3.390246590455     0.870636920944    -1.059066563154     1.007825032230
         H            4.229153590455     0.571953920944     0.469500436846     1.007825032230
         H           -1.893842409545    -1.841009779056    -0.270421063154     1.007825032230

  Basis Set: AUG-CC-PVTZ
    Blend: AUG-CC-PVTZ
  Basis Set: (AUG-CC-PVTZ AUX)
    Blend: AUG-CC-PVTZ-JKFIT
	 Reference Energy          =    -309.1442468182139010 [Eh]
	 Singles Energy            =      -0.0000000000000000 [Eh]
	 Same-Spin Energy          =      -0.3172321891412921 [Eh]
	 Opposite-Spin Energy      =      -1.1034638528662977 [Eh]
	 Correlation Energy        =      -1.4206960420075898 [Eh]
	 Total Energy              =    -310.5649428602214925 [Eh]

	 ================> DF-SCS-MP2 Energies <==================
	-----------------------------------------------------------
	 SCS Same-Spin Scale       =       0.3333333333333333 [-]
	 SCS Opposite-Spin Scale   =       1.2000000000000000 [-]
	 SCS Same-Spin Energy      =      -0.1057440630470974 [Eh]
	 SCS Opposite-Spin Energy  =      -1.3241566234395572 [Eh]
	 SCS Correlation Energy    =      -1.4299006864866546 [Eh]
	 SCS Total Energy          =    -310.5741475047005338 [Eh]
	-----------------------------------------------------------

  Dipole Moment: [D]
     X:     2.0587      Y:    -0.0602      Z:    -0.5895     Total:     2.1423

*** Psi4 exiting successfully. Buy a developer a beer!
