                               Psi4 1.3.2 release

  ==> Input File <==

--------------------------------------------------------------------------
#psi4
#
memory 32 gb

molecule  {
0 1
  O       -2.3916800    -1.0522970    -0.0243250
  C       -1.4896127     0.0262580    -0.3732858
  C       -0.1728060    -0.1763470     0.3083280
  C        2.3285040    -0.4694590     0.2834420
  C        0.9745161    -0.2856453    -0.3751143
  C       -2.1959480     1.2879740     0.1259890
  C        3.2526380     0.7192940     0.0124360
  H       -1.3570540     0.0791090    -1.4412390
  H       -0.1904860    -0.2488370     1.3972520
  H        2.7976780    -1.3847260    -0.0993500
  H        2.2027970    -0.6058810     1.3632980
  H        0.9746330    -0.2154440    -1.4448770
  H       -2.3344480     1.2448060     1.2091660
  H       -1.6005480     2.1700530    -0.1223020
  H       -3.1779120     1.3727550    -0.3453210
  H        2.8243150     1.6377400     0.4218030
  H        3.3966440     0.8648080    -1.0620310
  H        4.2355510     0.5661250     0.4665360
  H       -1.9269720    -1.8751040    -0.2580250
units angstrom
no_reorient  #important for SAPT in psi4, default
symmetry c1  #important for SAPT in psi4, default
}

set PROPERTIES_ORIGIN ["COM"]
properties('MP2/aug-cc-pvtz', properties = ['dipole'])
--------------------------------------------------------------------------

    Molecular point group: c1
  Charge       = 0
  Multiplicity = 1
  Basis Set: AUG-CC-PVTZ
    Blend: AUG-CC-PVTZ
  Basis Set: (AUG-CC-PVTZ AUX)
    Blend: AUG-CC-PVTZ-JKFIT

    Orbital Energies [Eh]
    ---------------------

    Doubly Occupied:

       1A    -20.552355     2A    -11.279760     3A    -11.235072
       4A    -11.231089     5A    -11.226939     6A    -11.219131
       7A    -11.210903     8A     -1.348028     9A     -1.093268
      10A     -1.033183    11A     -0.973257    12A     -0.871457
      13A     -0.807952    14A     -0.765383    15A     -0.689695
      16A     -0.654980    17A     -0.607982    18A     -0.595595
      19A     -0.575190    20A     -0.542920    21A     -0.534345
      22A     -0.525113    23A     -0.520767    24A     -0.509277
      25A     -0.489139    26A     -0.470010    27A     -0.442989
      28A     -0.356868

  @DF-RHF Final Energy:  -309.15059227618963

   => Energetics <=

    Nuclear Repulsion Energy =            298.8792799105665381
    One-Electron Energy =               -1011.3344466016440037
    Two-Electron Energy =                 403.3045744148878384
    Total Energy =                       -309.1505922761896272
  Basis Set: (AUG-CC-PVTZ AUX)
    Blend: AUG-CC-PVTZ-RI
    Molecular point group: c1

    Geometry (in Angstrom), charge = 0, multiplicity = 1:

       Center              X                  Y                   Z               Mass
    ------------   -----------------  -----------------  -----------------  -----------------
         O           -2.391707060370    -1.052567880748    -0.019110000955    15.994914619570
         C           -1.489639760370     0.025987119252    -0.368070800955    12.000000000000
         C           -0.172833060370    -0.176617880748     0.313542999045    12.000000000000
         C            2.328476939630    -0.469729880748     0.288656999045    12.000000000000
         C            0.974489039630    -0.285916180748    -0.369899300955    12.000000000000
         C           -2.195975060370     1.287703119252     0.131203999045    12.000000000000
         C            3.252610939630     0.719023119252     0.017650999045    12.000000000000
         H           -1.357081060370     0.078838119252    -1.436024000955     1.007825032230
         H           -0.190513060370    -0.249107880748     1.402466999045     1.007825032230
         H            2.797650939630    -1.384996880748    -0.094135000955     1.007825032230
         H            2.202769939630    -0.606151880748     1.368512999045     1.007825032230
         H            0.974605939630    -0.215714880748    -1.439662000955     1.007825032230
         H           -2.334475060370     1.244535119252     1.214380999045     1.007825032230
         H           -1.600575060370     2.169782119252    -0.117087000955     1.007825032230
         H           -3.177939060370     1.372484119252    -0.340106000955     1.007825032230
         H            2.824287939630     1.637469119252     0.427017999045     1.007825032230
         H            3.396616939630     0.864537119252    -1.056816000955     1.007825032230
         H            4.235523939630     0.565854119252     0.471750999045     1.007825032230
         H           -1.926999060370    -1.875374880748    -0.252810000955     1.007825032230

  Basis Set: AUG-CC-PVTZ
    Blend: AUG-CC-PVTZ
  Basis Set: (AUG-CC-PVTZ AUX)
    Blend: AUG-CC-PVTZ-JKFIT
	 Reference Energy          =    -309.1505922761896272 [Eh]
	 Singles Energy            =      -0.0000000000000000 [Eh]
	 Same-Spin Energy          =      -0.3165233135079962 [Eh]
	 Opposite-Spin Energy      =      -1.1024665078155076 [Eh]
	 Correlation Energy        =      -1.4189898213235037 [Eh]
	 Total Energy              =    -310.5695820975131483 [Eh]

	 ================> DF-SCS-MP2 Energies <==================
	-----------------------------------------------------------
	 SCS Same-Spin Scale       =       0.3333333333333333 [-]
	 SCS Opposite-Spin Scale   =       1.2000000000000000 [-]
	 SCS Same-Spin Energy      =      -0.1055077711693321 [Eh]
	 SCS Opposite-Spin Energy  =      -1.3229598093786090 [Eh]
	 SCS Correlation Energy    =      -1.4284675805479412 [Eh]
	 SCS Total Energy          =    -310.5790598567375582 [Eh]
	-----------------------------------------------------------

  Dipole Moment: [D]
     X:     1.9261      Y:     0.0214      Z:    -0.5921     Total:     2.0152

*** Psi4 exiting successfully. Buy a developer a beer!
