                               Psi4 1.3.2 release

  ==> Input File <==

--------------------------------------------------------------------------
#psi4
#
memory 32 gb

molecule  {
0 1
  O       -2.3916800    -1.0522970    -0.0243250
  C       -1.5013820     0.0265210    -0.3499700
  C       -0.1728060    -0.1763470     0.3083280
  C        2.3285040    -0.4694590     0.2834420
  C        0.9938833    -0.2650522    -0.3642870
  C       -2.1959480     1.2879740     0.1259890
  C        3.2331739     0.7309075    -0.0016795
  H       -1.3570540     0.0791090    -1.4412390
  H       -0.1904860    -0.2488370     1.3972520
  H        2.7976780    -1.3847260    -0.0993500
  H        2.2027970    -0.6058810     1.3632980
  H        0.9746330    -0.2154440    -1.4448770
  H       -2.3344480     1.2448060     1.2091660
  H       -1.6005480     2.1700530    -0.1223020
  H       -3.1779120     1.3727550    -0.3453210
  H        2.8243150     1.6377400     0.4218030
  H        3.3966440     0.8648080    -1.0620310
  H        4.2355510     0.5661250     0.4665360
  H       -1.9269720    -1.8751040    -0.2580250
units angstrom
no_reorient  #important for SAPT in psi4, default
symmetry c1  #important for SAPT in psi4, default
}

set PROPERTIES_ORIGIN ["COM"]
properties('MP2/aug-cc-pvtz', properties = ['dipole'])
--------------------------------------------------------------------------

    Molecular point group: c1
  Charge       = 0
  Multiplicity = 1
  Basis Set: AUG-CC-PVTZ
    Blend: AUG-CC-PVTZ
  Basis Set: (AUG-CC-PVTZ AUX)
    Blend: AUG-CC-PVTZ-JKFIT

    Orbital Energies [Eh]
    ---------------------

    Doubly Occupied:

       1A    -20.553532     2A    -11.280840     3A    -11.236376
       4A    -11.230798     5A    -11.227219     6A    -11.219277
       7A    -11.210444     8A     -1.352729     9A     -1.093975
      10A     -1.034980    11A     -0.973098    12A     -0.872671
      13A     -0.807120    14A     -0.762637    15A     -0.692711
      16A     -0.654554    17A     -0.609574    18A     -0.596529
      19A     -0.578103    20A     -0.539734    21A     -0.532588
      22A     -0.527238    23A     -0.522080    24A     -0.510715
      25A     -0.491409    26A     -0.470178    27A     -0.440130
      28A     -0.353904

  @DF-RHF Final Energy:  -309.15016464419614

   => Energetics <=

    Nuclear Repulsion Energy =            299.1935746509234946
    One-Electron Energy =               -1011.9371907557301711
    Two-Electron Energy =                 403.5934514606105949
    Total Energy =                       -309.1501646441961384
  Basis Set: (AUG-CC-PVTZ AUX)
    Blend: AUG-CC-PVTZ-RI
    Molecular point group: c1

    Geometry (in Angstrom), charge = 0, multiplicity = 1:

       Center              X                  Y                   Z               Mass
    ------------   -----------------  -----------------  -----------------  -----------------
         O           -2.390284379924    -1.056460775273    -0.021511180348    15.994914619570
         C           -1.499986379924     0.022357224727    -0.347156180348    12.000000000000
         C           -0.171410379924    -0.180510775273     0.311141819652    12.000000000000
         C            2.329899620076    -0.473622775273     0.286255819652    12.000000000000
         C            0.995278920076    -0.269215975273    -0.361473180348    12.000000000000
         C           -2.194552379924     1.283810224727     0.128802819652    12.000000000000
         C            3.234569520076     0.726743724727     0.001134319652    12.000000000000
         H           -1.355658379924     0.074945224727    -1.438425180348     1.007825032230
         H           -0.189090379924    -0.253000775273     1.400065819652     1.007825032230
         H            2.799073620076    -1.388889775273    -0.096536180348     1.007825032230
         H            2.204192620076    -0.610044775273     1.366111819652     1.007825032230
         H            0.976028620076    -0.219607775273    -1.442063180348     1.007825032230
         H           -2.333052379924     1.240642224727     1.211979819652     1.007825032230
         H           -1.599152379924     2.165889224727    -0.119488180348     1.007825032230
         H           -3.176516379924     1.368591224727    -0.342507180348     1.007825032230
         H            2.825710620076     1.633576224727     0.424616819652     1.007825032230
         H            3.398039620076     0.860644224727    -1.059217180348     1.007825032230
         H            4.236946620076     0.561961224727     0.469349819652     1.007825032230
         H           -1.925576379924    -1.879267775273    -0.255211180348     1.007825032230

  Basis Set: AUG-CC-PVTZ
    Blend: AUG-CC-PVTZ
  Basis Set: (AUG-CC-PVTZ AUX)
    Blend: AUG-CC-PVTZ-JKFIT
	 Reference Energy          =    -309.1501646441961384 [Eh]
	 Singles Energy            =      -0.0000000000000000 [Eh]
	 Same-Spin Energy          =      -0.3168617376996834 [Eh]
	 Opposite-Spin Energy      =      -1.1027775394516679 [Eh]
	 Correlation Energy        =      -1.4196392771513513 [Eh]
	 Total Energy              =    -310.5698039213474999 [Eh]

	 ================> DF-SCS-MP2 Energies <==================
	-----------------------------------------------------------
	 SCS Same-Spin Scale       =       0.3333333333333333 [-]
	 SCS Opposite-Spin Scale   =       1.2000000000000000 [-]
	 SCS Same-Spin Energy      =      -0.1056205792332278 [Eh]
	 SCS Opposite-Spin Energy  =      -1.3233330473420015 [Eh]
	 SCS Correlation Energy    =      -1.4289536265752294 [Eh]
	 SCS Total Energy          =    -310.5791182707713460 [Eh]
	-----------------------------------------------------------

  Dipole Moment: [D]
     X:     1.9117      Y:    -0.0179      Z:    -0.5672     Total:     1.9941

*** Psi4 exiting successfully. Buy a developer a beer!
