                               Psi4 1.3.2 release

  ==> Input File <==

--------------------------------------------------------------------------
#psi4
#
memory 32 gb

molecule  {
0 1
  O       -2.4236780    -1.0188942    -0.0050054
  C       -1.5013820     0.0265210    -0.3499700
  C       -0.1728060    -0.1763470     0.3083280
  C        2.3285040    -0.4694590     0.2834420
  C        0.9860590    -0.2881690    -0.3549330
  C       -2.2363904     1.2582463     0.1428158
  C        3.2526380     0.7192940     0.0124360
  H       -1.3570540     0.0791090    -1.4412390
  H       -0.1904860    -0.2488370     1.3972520
  H        2.7976780    -1.3847260    -0.0993500
  H        2.2027970    -0.6058810     1.3632980
  H        0.9746330    -0.2154440    -1.4448770
  H       -2.3344480     1.2448060     1.2091660
  H       -1.6005480     2.1700530    -0.1223020
  H       -3.1779120     1.3727550    -0.3453210
  H        2.8243150     1.6377400     0.4218030
  H        3.3966440     0.8648080    -1.0620310
  H        4.2355510     0.5661250     0.4665360
  H       -1.9269720    -1.8751040    -0.2580250
units angstrom
no_reorient  #important for SAPT in psi4, default
symmetry c1  #important for SAPT in psi4, default
}

set PROPERTIES_ORIGIN ["COM"]
properties('MP2/aug-cc-pvtz', properties = ['dipole'])
--------------------------------------------------------------------------

    Molecular point group: c1
  Charge       = 0
  Multiplicity = 1
  Basis Set: AUG-CC-PVTZ
    Blend: AUG-CC-PVTZ
  Basis Set: (AUG-CC-PVTZ AUX)
    Blend: AUG-CC-PVTZ-JKFIT

    Orbital Energies [Eh]
    ---------------------

    Doubly Occupied:

       1A    -20.558353     2A    -11.280453     3A    -11.237733
       4A    -11.231453     5A    -11.227327     6A    -11.220158
       7A    -11.209165     8A     -1.345595     9A     -1.094817
      10A     -1.032615    11A     -0.974295    12A     -0.874130
      13A     -0.805670    14A     -0.761002    15A     -0.682942
      16A     -0.655932    17A     -0.611136    18A     -0.596679
      19A     -0.577783    20A     -0.543616    21A     -0.538194
      22A     -0.524766    23A     -0.514205    24A     -0.501590
      25A     -0.487829    26A     -0.473389    27A     -0.442337
      28A     -0.357931

  @DF-RHF Final Energy:  -309.14227342679823

   => Energetics <=

    Nuclear Repulsion Energy =            298.9466407813060869
    One-Electron Energy =               -1011.4556362482150007
    Two-Electron Energy =                 403.3667220401106874
    Total Energy =                       -309.1422734267982264
  Basis Set: (AUG-CC-PVTZ AUX)
    Blend: AUG-CC-PVTZ-RI
    Molecular point group: c1

    Geometry (in Angstrom), charge = 0, multiplicity = 1:

       Center              X                  Y                   Z               Mass
    ------------   -----------------  -----------------  -----------------  -----------------
         O           -2.413715623709    -1.020667887371    -0.010110256900    15.994914619570
         C           -1.491419623709     0.024747312629    -0.355074856900    12.000000000000
         C           -0.162843623709    -0.178120687371     0.303223143100    12.000000000000
         C            2.338466376291    -0.471232687371     0.278337143100    12.000000000000
         C            0.996021376291    -0.289942687371    -0.360037856900    12.000000000000
         C           -2.226428023709     1.256472612629     0.137710943100    12.000000000000
         C            3.262600376291     0.717520312629     0.007331143100    12.000000000000
         H           -1.347091623709     0.077335312629    -1.446343856900     1.007825032230
         H           -0.180523623709    -0.250610687371     1.392147143100     1.007825032230
         H            2.807640376291    -1.386499687371    -0.104454856900     1.007825032230
         H            2.212759376291    -0.607654687371     1.358193143100     1.007825032230
         H            0.984595376291    -0.217217687371    -1.449981856900     1.007825032230
         H           -2.324485623709     1.243032312629     1.204061143100     1.007825032230
         H           -1.590585623709     2.168279312629    -0.127406856900     1.007825032230
         H           -3.167949623709     1.370981312629    -0.350425856900     1.007825032230
         H            2.834277376291     1.635966312629     0.416698143100     1.007825032230
         H            3.406606376291     0.863034312629    -1.067135856900     1.007825032230
         H            4.245513376291     0.564351312629     0.461431143100     1.007825032230
         H           -1.917009623709    -1.876877687371    -0.263129856900     1.007825032230

  Basis Set: AUG-CC-PVTZ
    Blend: AUG-CC-PVTZ
  Basis Set: (AUG-CC-PVTZ AUX)
    Blend: AUG-CC-PVTZ-JKFIT
	 Reference Energy          =    -309.1422734267982264 [Eh]
	 Singles Energy            =      -0.0000000000000000 [Eh]
	 Same-Spin Energy          =      -0.3175773343283921 [Eh]
	 Opposite-Spin Energy      =      -1.1045933790082973 [Eh]
	 Correlation Energy        =      -1.4221707133366894 [Eh]
	 Total Energy              =    -310.5644441401349241 [Eh]

	 ================> DF-SCS-MP2 Energies <==================
	-----------------------------------------------------------
	 SCS Same-Spin Scale       =       0.3333333333333333 [-]
	 SCS Opposite-Spin Scale   =       1.2000000000000000 [-]
	 SCS Same-Spin Energy      =      -0.1058591114427974 [Eh]
	 SCS Opposite-Spin Energy  =      -1.3255120548099568 [Eh]
	 SCS Correlation Energy    =      -1.4313711662527542 [Eh]
	 SCS Total Energy          =    -310.5736445930509717 [Eh]
	-----------------------------------------------------------

  Dipole Moment: [D]
     X:     1.9812      Y:    -0.0767      Z:    -0.5699     Total:     2.0630

*** Psi4 exiting successfully. Buy a developer a beer!
