                               Psi4 1.3.2 release

  ==> Input File <==

--------------------------------------------------------------------------
#psi4
#
memory 32 gb

molecule  {
0 1
  O       -2.3916800    -1.0522970    -0.0243250
  C       -1.5013820     0.0265210    -0.3499700
  C       -0.1728060    -0.1763470     0.3083280
  C        2.3170354    -0.4698095     0.3069250
  C        0.9860590    -0.2881690    -0.3549330
  C       -2.1959480     1.2879740     0.1259890
  C        3.2526380     0.7192940     0.0124360
  H       -1.3570540     0.0791090    -1.4412390
  H       -0.1904860    -0.2488370     1.3972520
  H        2.7976780    -1.3847260    -0.0993500
  H        2.2027970    -0.6058810     1.3632980
  H        0.9556718    -0.2135077    -1.4443823
  H       -2.3344480     1.2448060     1.2091660
  H       -1.6005480     2.1700530    -0.1223020
  H       -3.1779120     1.3727550    -0.3453210
  H        2.8243150     1.6377400     0.4218030
  H        3.3966440     0.8648080    -1.0620310
  H        4.2355510     0.5661250     0.4665360
  H       -1.9269720    -1.8751040    -0.2580250
units angstrom
no_reorient  #important for SAPT in psi4, default
symmetry c1  #important for SAPT in psi4, default
}

set PROPERTIES_ORIGIN ["COM"]
properties('MP2/aug-cc-pvtz', properties = ['dipole'])
--------------------------------------------------------------------------

    Molecular point group: c1
  Charge       = 0
  Multiplicity = 1
  Basis Set: AUG-CC-PVTZ
    Blend: AUG-CC-PVTZ
  Basis Set: (AUG-CC-PVTZ AUX)
    Blend: AUG-CC-PVTZ-JKFIT

    Orbital Energies [Eh]
    ---------------------

    Doubly Occupied:

       1A    -20.553511     2A    -11.280922     3A    -11.236028
       4A    -11.230644     5A    -11.225395     6A    -11.220041
       7A    -11.210606     8A     -1.352736     9A     -1.094483
      10A     -1.034006    11A     -0.973983    12A     -0.873127
      13A     -0.807961    14A     -0.761558    15A     -0.692771
      16A     -0.654158    17A     -0.608656    18A     -0.596002
      19A     -0.578172    20A     -0.538115    21A     -0.534208
      22A     -0.527499    23A     -0.520857    24A     -0.509043
      25A     -0.493439    26A     -0.471265    27A     -0.440487
      28A     -0.355633

  @DF-RHF Final Energy:  -309.15117526910063

   => Energetics <=

    Nuclear Repulsion Energy =            299.1449209280260675
    One-Electron Energy =               -1011.8415845207047141
    Two-Electron Energy =                 403.5454883235780130
    Total Energy =                       -309.1511752691006336
  Basis Set: (AUG-CC-PVTZ AUX)
    Blend: AUG-CC-PVTZ-RI
    Molecular point group: c1

    Geometry (in Angstrom), charge = 0, multiplicity = 1:

       Center              X                  Y                   Z               Mass
    ------------   -----------------  -----------------  -----------------  -----------------
         O           -2.390113979545    -1.052274311997    -0.027145461971    15.994914619570
         C           -1.499815979545     0.026543688003    -0.352790461971    12.000000000000
         C           -0.171239979545    -0.176324311997     0.305507538029    12.000000000000
         C            2.318601420455    -0.469786811997     0.304104538029    12.000000000000
         C            0.987625020455    -0.288146311997    -0.357753461971    12.000000000000
         C           -2.194381979545     1.287996688003     0.123168538029    12.000000000000
         C            3.254204020455     0.719316688003     0.009615538029    12.000000000000
         H           -1.355487979545     0.079131688003    -1.444059461971     1.007825032230
         H           -0.188919979545    -0.248814311997     1.394431538029     1.007825032230
         H            2.799244020455    -1.384703311997    -0.102170461971     1.007825032230
         H            2.204363020455    -0.605858311997     1.360477538029     1.007825032230
         H            0.957237820455    -0.213485011997    -1.447202761971     1.007825032230
         H           -2.332881979545     1.244828688003     1.206345538029     1.007825032230
         H           -1.598981979545     2.170075688003    -0.125122461971     1.007825032230
         H           -3.176345979545     1.372777688003    -0.348141461971     1.007825032230
         H            2.825881020455     1.637762688003     0.418982538029     1.007825032230
         H            3.398210020455     0.864830688003    -1.064851461971     1.007825032230
         H            4.237117020455     0.566147688003     0.463715538029     1.007825032230
         H           -1.925405979545    -1.875081311997    -0.260845461971     1.007825032230

  Basis Set: AUG-CC-PVTZ
    Blend: AUG-CC-PVTZ
  Basis Set: (AUG-CC-PVTZ AUX)
    Blend: AUG-CC-PVTZ-JKFIT
	 Reference Energy          =    -309.1511752691006336 [Eh]
	 Singles Energy            =      -0.0000000000000000 [Eh]
	 Same-Spin Energy          =      -0.3166945844953150 [Eh]
	 Opposite-Spin Energy      =      -1.1023867372577019 [Eh]
	 Correlation Energy        =      -1.4190813217530169 [Eh]
	 Total Energy              =    -310.5702565908536599 [Eh]

	 ================> DF-SCS-MP2 Energies <==================
	-----------------------------------------------------------
	 SCS Same-Spin Scale       =       0.3333333333333333 [-]
	 SCS Opposite-Spin Scale   =       1.2000000000000000 [-]
	 SCS Same-Spin Energy      =      -0.1055648614984383 [Eh]
	 SCS Opposite-Spin Energy  =      -1.3228640847092421 [Eh]
	 SCS Correlation Energy    =      -1.4284289462076805 [Eh]
	 SCS Total Energy          =    -310.5796042153083363 [Eh]
	-----------------------------------------------------------

  Dipole Moment: [D]
     X:     1.9159      Y:     0.0073      Z:    -0.5419     Total:     1.9911

*** Psi4 exiting successfully. Buy a developer a beer!
