                               Psi4 1.3.2 release

  ==> Input File <==

--------------------------------------------------------------------------
#psi4
#
memory 32 gb

molecule  {
0 1
  O       -2.4006263    -1.0469397    -0.0312771
  C       -1.5013820     0.0265210    -0.3499700
  C       -0.1685328    -0.1652130     0.3030055
  C        2.3285040    -0.4694590     0.2834420
  C        0.9860590    -0.2881690    -0.3549330
  C       -2.1959480     1.2879740     0.1259890
  C        3.2526380     0.7192940     0.0124360
  H       -1.3570540     0.0791090    -1.4412390
  H       -0.1904860    -0.2488370     1.3972520
  H        2.7976780    -1.3847260    -0.0993500
  H        2.2027970    -0.6058810     1.3632980
  H        0.9746330    -0.2154440    -1.4448770
  H       -2.3344480     1.2448060     1.2091660
  H       -1.6005480     2.1700530    -0.1223020
  H       -3.1779120     1.3727550    -0.3453210
  H        2.8243150     1.6377400     0.4218030
  H        3.3966440     0.8648080    -1.0620310
  H        4.2355510     0.5661250     0.4665360
  H       -1.9269720    -1.8751040    -0.2580250
units angstrom
no_reorient  #important for SAPT in psi4, default
symmetry c1  #important for SAPT in psi4, default
}

set PROPERTIES_ORIGIN ["COM"]
properties('MP2/aug-cc-pvtz', properties = ['dipole'])
--------------------------------------------------------------------------

    Molecular point group: c1
  Charge       = 0
  Multiplicity = 1
  Basis Set: AUG-CC-PVTZ
    Blend: AUG-CC-PVTZ
  Basis Set: (AUG-CC-PVTZ AUX)
    Blend: AUG-CC-PVTZ-JKFIT

    Orbital Energies [Eh]
    ---------------------

    Doubly Occupied:

       1A    -20.555014     2A    -11.280979     3A    -11.235762
       4A    -11.230881     5A    -11.226331     6A    -11.219767
       7A    -11.210289     8A     -1.351773     9A     -1.095522
      10A     -1.034917    11A     -0.975094    12A     -0.873228
      13A     -0.807565    14A     -0.759901    15A     -0.691677
      16A     -0.654545    17A     -0.611139    18A     -0.594166
      19A     -0.578422    20A     -0.538284    21A     -0.536180
      22A     -0.526891    23A     -0.521525    24A     -0.510704
      25A     -0.487469    26A     -0.471463    27A     -0.440398
      28A     -0.358292

  @DF-RHF Final Energy:  -309.15130168943045

   => Energetics <=

    Nuclear Repulsion Energy =            299.1222771701066563
    One-Electron Energy =               -1011.7908028434648031
    Two-Electron Energy =                 403.5172239839276358
    Total Energy =                       -309.1513016894304542
  Basis Set: (AUG-CC-PVTZ AUX)
    Blend: AUG-CC-PVTZ-RI
    Molecular point group: c1

    Geometry (in Angstrom), charge = 0, multiplicity = 1:

       Center              X                  Y                   Z               Mass
    ------------   -----------------  -----------------  -----------------  -----------------
         O           -2.399708862180    -1.049130567073    -0.029527992265    15.994914619570
         C           -1.500464562180     0.024330132927    -0.348220892265    12.000000000000
         C           -0.167615362180    -0.167403867073     0.304754607735    12.000000000000
         C            2.329421437820    -0.471649867073     0.285191107735    12.000000000000
         C            0.986976437820    -0.290359867073    -0.353183892265    12.000000000000
         C           -2.195030562180     1.285783132927     0.127738107735    12.000000000000
         C            3.253555437820     0.717103132927     0.014185107735    12.000000000000
         H           -1.356136562180     0.076918132927    -1.439489892265     1.007825032230
         H           -0.189568562180    -0.251027867073     1.399001107735     1.007825032230
         H            2.798595437820    -1.386916867073    -0.097600892265     1.007825032230
         H            2.203714437820    -0.608071867073     1.365047107735     1.007825032230
         H            0.975550437820    -0.217634867073    -1.443127892265     1.007825032230
         H           -2.333530562180     1.242615132927     1.210915107735     1.007825032230
         H           -1.599630562180     2.167862132927    -0.120552892265     1.007825032230
         H           -3.176994562180     1.370564132927    -0.343571892265     1.007825032230
         H            2.825232437820     1.635549132927     0.423552107735     1.007825032230
         H            3.397561437820     0.862617132927    -1.060281892265     1.007825032230
         H            4.236468437820     0.563934132927     0.468285107735     1.007825032230
         H           -1.926054562180    -1.877294867073    -0.256275892265     1.007825032230

  Basis Set: AUG-CC-PVTZ
    Blend: AUG-CC-PVTZ
  Basis Set: (AUG-CC-PVTZ AUX)
    Blend: AUG-CC-PVTZ-JKFIT
	 Reference Energy          =    -309.1513016894304542 [Eh]
	 Singles Energy            =      -0.0000000000000000 [Eh]
	 Same-Spin Energy          =      -0.3167972474211600 [Eh]
	 Opposite-Spin Energy      =      -1.1026259934836777 [Eh]
	 Correlation Energy        =      -1.4194232409048377 [Eh]
	 Total Energy              =    -310.5707249303353024 [Eh]

	 ================> DF-SCS-MP2 Energies <==================
	-----------------------------------------------------------
	 SCS Same-Spin Scale       =       0.3333333333333333 [-]
	 SCS Opposite-Spin Scale   =       1.2000000000000000 [-]
	 SCS Same-Spin Energy      =      -0.1055990824737200 [Eh]
	 SCS Opposite-Spin Energy  =      -1.3231511921804133 [Eh]
	 SCS Correlation Energy    =      -1.4287502746541334 [Eh]
	 SCS Total Energy          =    -310.5800519640845891 [Eh]
	-----------------------------------------------------------

  Dipole Moment: [D]
     X:     1.9388      Y:    -0.0198      Z:    -0.5398     Total:     2.0126

*** Psi4 exiting successfully. Buy a developer a beer!
