                               Psi4 1.3.2 release

  ==> Input File <==

--------------------------------------------------------------------------
#psi4
#
memory 32 gb

molecule  {
0 1
  O       -2.3916800    -1.0522970    -0.0243250
  C       -1.5013820     0.0265210    -0.3499700
  C       -0.1728060    -0.1763470     0.3083280
  C        2.3285040    -0.4694590     0.2834420
  C        0.9716394    -0.3345612    -0.3356446
  C       -2.1959480     1.2879740     0.1259890
  C        3.2907158     0.6949844     0.0409103
  H       -1.3570540     0.0791090    -1.4412390
  H       -0.1904860    -0.2488370     1.3972520
  H        2.7976780    -1.3847260    -0.0993500
  H        2.2027970    -0.6058810     1.3632980
  H        0.9746330    -0.2154440    -1.4448770
  H       -2.3344480     1.2448060     1.2091660
  H       -1.6005480     2.1700530    -0.1223020
  H       -3.1779120     1.3727550    -0.3453210
  H        2.8243150     1.6377400     0.4218030
  H        3.3966440     0.8648080    -1.0620310
  H        4.2355510     0.5661250     0.4665360
  H       -1.9269720    -1.8751040    -0.2580250
units angstrom
no_reorient  #important for SAPT in psi4, default
symmetry c1  #important for SAPT in psi4, default
}

set PROPERTIES_ORIGIN ["COM"]
properties('MP2/aug-cc-pvtz', properties = ['dipole'])
--------------------------------------------------------------------------

    Molecular point group: c1
  Charge       = 0
  Multiplicity = 1
  Basis Set: AUG-CC-PVTZ
    Blend: AUG-CC-PVTZ
  Basis Set: (AUG-CC-PVTZ AUX)
    Blend: AUG-CC-PVTZ-JKFIT

    Orbital Energies [Eh]
    ---------------------

    Doubly Occupied:

       1A    -20.554129     2A    -11.281984     3A    -11.236401
       4A    -11.230659     5A    -11.225094     6A    -11.221149
       7A    -11.211428     8A     -1.353381     9A     -1.096246
      10A     -1.035319    11A     -0.977926    12A     -0.875217
      13A     -0.808728    14A     -0.756937    15A     -0.693546
      16A     -0.653722    17A     -0.614226    18A     -0.590853
      19A     -0.578985    20A     -0.550773    21A     -0.534663
      22A     -0.528386    23A     -0.520425    24A     -0.505927
      25A     -0.478966    26A     -0.471429    27A     -0.441893
      28A     -0.361871

  @DF-RHF Final Energy:  -309.14745807990863

   => Energetics <=

    Nuclear Repulsion Energy =            299.0363928729953500
    One-Electron Energy =               -1011.5871770021923339
    Two-Electron Energy =                 403.4033260492882960
    Total Energy =                       -309.1474580799086311
  Basis Set: (AUG-CC-PVTZ AUX)
    Blend: AUG-CC-PVTZ-RI
    Molecular point group: c1

    Geometry (in Angstrom), charge = 0, multiplicity = 1:

       Center              X                  Y                   Z               Mass
    ------------   -----------------  -----------------  -----------------  -----------------
         O           -2.394516381272    -1.043820150046    -0.030051459298    15.994914619570
         C           -1.504218381272     0.034997849954    -0.355696459298    12.000000000000
         C           -0.175642381272    -0.167870150046     0.302601540702    12.000000000000
         C            2.325667618728    -0.460982150046     0.277715540702    12.000000000000
         C            0.968803018728    -0.326084350046    -0.341371059298    12.000000000000
         C           -2.198784381272     1.296450849954     0.120262540702    12.000000000000
         C            3.287879418728     0.703461249954     0.035183840702    12.000000000000
         H           -1.359890381272     0.087585849954    -1.446965459298     1.007825032230
         H           -0.193322381272    -0.240360150046     1.391525540702     1.007825032230
         H            2.794841618728    -1.376249150046    -0.105076459298     1.007825032230
         H            2.199960618728    -0.597404150046     1.357571540702     1.007825032230
         H            0.971796618728    -0.206967150046    -1.450603459298     1.007825032230
         H           -2.337284381272     1.253282849954     1.203439540702     1.007825032230
         H           -1.603384381272     2.178529849954    -0.128028459298     1.007825032230
         H           -3.180748381272     1.381231849954    -0.351047459298     1.007825032230
         H            2.821478618728     1.646216849954     0.416076540702     1.007825032230
         H            3.393807618728     0.873284849954    -1.067757459298     1.007825032230
         H            4.232714618728     0.574601849954     0.460809540702     1.007825032230
         H           -1.929808381272    -1.866627150046    -0.263751459298     1.007825032230

  Basis Set: AUG-CC-PVTZ
    Blend: AUG-CC-PVTZ
  Basis Set: (AUG-CC-PVTZ AUX)
    Blend: AUG-CC-PVTZ-JKFIT
	 Reference Energy          =    -309.1474580799086311 [Eh]
	 Singles Energy            =      -0.0000000000000000 [Eh]
	 Same-Spin Energy          =      -0.3166319742220905 [Eh]
	 Opposite-Spin Energy      =      -1.1022999958368374 [Eh]
	 Correlation Energy        =      -1.4189319700589278 [Eh]
	 Total Energy              =    -310.5663900499675378 [Eh]

	 ================> DF-SCS-MP2 Energies <==================
	-----------------------------------------------------------
	 SCS Same-Spin Scale       =       0.3333333333333333 [-]
	 SCS Opposite-Spin Scale   =       1.2000000000000000 [-]
	 SCS Same-Spin Energy      =      -0.1055439914073635 [Eh]
	 SCS Opposite-Spin Energy  =      -1.3227599950042048 [Eh]
	 SCS Correlation Energy    =      -1.4283039864115683 [Eh]
	 SCS Total Energy          =    -310.5757620663201806 [Eh]
	-----------------------------------------------------------

  Dipole Moment: [D]
     X:     1.8984      Y:     0.0537      Z:    -0.5216     Total:     1.9695

*** Psi4 exiting successfully. Buy a developer a beer!
