                               Psi4 1.3.2 release

  ==> Input File <==

--------------------------------------------------------------------------
#psi4
#
memory 32 gb

molecule  {
0 1
  O       -2.3916800    -1.0522970    -0.0243250
  C       -1.4773308     0.0268410    -0.3963389
  C       -0.1728060    -0.1763470     0.3083280
  C        2.3285040    -0.4694590     0.2834420
  C        0.9860590    -0.2881690    -0.3549330
  C       -2.1959480     1.2879740     0.1259890
  C        3.2526380     0.7192940     0.0124360
  H       -1.3570540     0.0791090    -1.4412390
  H       -0.1526528    -0.2533059     1.3969023
  H        2.7976780    -1.3847260    -0.0993500
  H        2.2027970    -0.6058810     1.3632980
  H        0.9746330    -0.2154440    -1.4448770
  H       -2.3344480     1.2448060     1.2091660
  H       -1.6005480     2.1700530    -0.1223020
  H       -3.1779120     1.3727550    -0.3453210
  H        2.8243150     1.6377400     0.4218030
  H        3.3966440     0.8648080    -1.0620310
  H        4.2355510     0.5661250     0.4665360
  H       -1.9269720    -1.8751040    -0.2580250
units angstrom
no_reorient  #important for SAPT in psi4, default
symmetry c1  #important for SAPT in psi4, default
}

set PROPERTIES_ORIGIN ["COM"]
properties('MP2/aug-cc-pvtz', properties = ['dipole'])
--------------------------------------------------------------------------

    Molecular point group: c1
  Charge       = 0
  Multiplicity = 1
  Basis Set: AUG-CC-PVTZ
    Blend: AUG-CC-PVTZ
  Basis Set: (AUG-CC-PVTZ AUX)
    Blend: AUG-CC-PVTZ-JKFIT

    Orbital Energies [Eh]
    ---------------------

    Doubly Occupied:

       1A    -20.551467     2A    -11.280522     3A    -11.235173
       4A    -11.230550     5A    -11.226837     6A    -11.219714
       7A    -11.211597     8A     -1.343331     9A     -1.095442
      10A     -1.033607    11A     -0.972255    12A     -0.873395
      13A     -0.810667    14A     -0.762791    15A     -0.686954
      16A     -0.655140    17A     -0.610214    18A     -0.596551
      19A     -0.572563    20A     -0.538806    21A     -0.535095
      22A     -0.524290    23A     -0.520180    24A     -0.508958
      25A     -0.487394    26A     -0.473044    27A     -0.447679
      28A     -0.355808

  @DF-RHF Final Energy:  -309.14807912780930

   => Energetics <=

    Nuclear Repulsion Energy =            298.8145524451776964
    One-Electron Energy =               -1011.2052206399959005
    Two-Electron Energy =                 403.2425890670089075
    Total Energy =                       -309.1480791278092966
  Basis Set: (AUG-CC-PVTZ AUX)
    Blend: AUG-CC-PVTZ-RI
    Molecular point group: c1

    Geometry (in Angstrom), charge = 0, multiplicity = 1:

       Center              X                  Y                   Z               Mass
    ------------   -----------------  -----------------  -----------------  -----------------
         O           -2.394944453539    -1.052290204673    -0.018762169518    15.994914619570
         C           -1.480595253539     0.026847795327    -0.390776069518    12.000000000000
         C           -0.176070453539    -0.176340204673     0.313890830482    12.000000000000
         C            2.325239546461    -0.469452204673     0.289004830482    12.000000000000
         C            0.982794546461    -0.288162204673    -0.349370169518    12.000000000000
         C           -2.199212453539     1.287980795327     0.131551830482    12.000000000000
         C            3.249373546461     0.719300795327     0.017998830482    12.000000000000
         H           -1.360318453539     0.079115795327    -1.435676169518     1.007825032230
         H           -0.155917253539    -0.253299104673     1.402465130482     1.007825032230
         H            2.794413546461    -1.384719204673    -0.093787169518     1.007825032230
         H            2.199532546461    -0.605874204673     1.368860830482     1.007825032230
         H            0.971368546461    -0.215437204673    -1.439314169518     1.007825032230
         H           -2.337712453539     1.244812795327     1.214728830482     1.007825032230
         H           -1.603812453539     2.170059795327    -0.116739169518     1.007825032230
         H           -3.181176453539     1.372761795327    -0.339758169518     1.007825032230
         H            2.821050546461     1.637746795327     0.427365830482     1.007825032230
         H            3.393379546461     0.864814795327    -1.056468169518     1.007825032230
         H            4.232286546461     0.566131795327     0.472098830482     1.007825032230
         H           -1.930236453539    -1.875097204673    -0.252462169518     1.007825032230

  Basis Set: AUG-CC-PVTZ
    Blend: AUG-CC-PVTZ
  Basis Set: (AUG-CC-PVTZ AUX)
    Blend: AUG-CC-PVTZ-JKFIT
	 Reference Energy          =    -309.1480791278092966 [Eh]
	 Singles Energy            =      -0.0000000000000000 [Eh]
	 Same-Spin Energy          =      -0.3167473546730714 [Eh]
	 Opposite-Spin Energy      =      -1.1029501320998696 [Eh]
	 Correlation Energy        =      -1.4196974867729411 [Eh]
	 Total Energy              =    -310.5677766145822147 [Eh]

	 ================> DF-SCS-MP2 Energies <==================
	-----------------------------------------------------------
	 SCS Same-Spin Scale       =       0.3333333333333333 [-]
	 SCS Opposite-Spin Scale   =       1.2000000000000000 [-]
	 SCS Same-Spin Energy      =      -0.1055824515576905 [Eh]
	 SCS Opposite-Spin Energy  =      -1.3235401585198434 [Eh]
	 SCS Correlation Energy    =      -1.4291226100775338 [Eh]
	 SCS Total Energy          =    -310.5772017378868100 [Eh]
	-----------------------------------------------------------

  Dipole Moment: [D]
     X:     1.9770      Y:     0.0384      Z:    -0.6114     Total:     2.0698

*** Psi4 exiting successfully. Buy a developer a beer!
