                               Psi4 1.3.2 release

  ==> Input File <==

--------------------------------------------------------------------------
#psi4
#
memory 32 gb

molecule  {
0 1
  O       -2.3916800    -1.0522970    -0.0243250
  C       -1.5013820     0.0265210    -0.3499700
  C       -0.1728060    -0.1763470     0.3083280
  C        2.3285040    -0.4694590     0.2834420
  C        1.0725466    -0.2965144    -0.4044330
  C       -2.1959480     1.2879740     0.1259890
  C        3.2526380     0.7192940     0.0124360
  H       -1.3570540     0.0791090    -1.4412390
  H       -0.1904860    -0.2488370     1.3972520
  H        2.7976780    -1.3847260    -0.0993500
  H        2.2027970    -0.6058810     1.3632980
  H        0.9746330    -0.2154440    -1.4448770
  H       -2.3344480     1.2448060     1.2091660
  H       -1.6005480     2.1700530    -0.1223020
  H       -3.1779120     1.3727550    -0.3453210
  H        2.8243150     1.6377400     0.4218030
  H        3.3966440     0.8648080    -1.0620310
  H        4.2355510     0.5661250     0.4665360
  H       -1.9269720    -1.8751040    -0.2580250
units angstrom
no_reorient  #important for SAPT in psi4, default
symmetry c1  #important for SAPT in psi4, default
}

set PROPERTIES_ORIGIN ["COM"]
properties('MP2/aug-cc-pvtz', properties = ['dipole'])
--------------------------------------------------------------------------

    Molecular point group: c1
  Charge       = 0
  Multiplicity = 1
  Basis Set: AUG-CC-PVTZ
    Blend: AUG-CC-PVTZ
  Basis Set: (AUG-CC-PVTZ AUX)
    Blend: AUG-CC-PVTZ-JKFIT

    Orbital Energies [Eh]
    ---------------------

    Doubly Occupied:

       1A    -20.553144     2A    -11.281522     3A    -11.244587
       4A    -11.238580     5A    -11.229164     6A    -11.220193
       7A    -11.210485     8A     -1.352352     9A     -1.093999
      10A     -1.035837    11A     -0.964278    12A     -0.878933
      13A     -0.804392    14A     -0.768629    15A     -0.691997
      16A     -0.652629    17A     -0.613957    18A     -0.597027
      19A     -0.577262    20A     -0.542013    21A     -0.533259
      22A     -0.527740    23A     -0.522328    24A     -0.513718
      25A     -0.495743    26A     -0.470106    27A     -0.441603
      28A     -0.332992

  @DF-RHF Final Energy:  -309.13311408232721

   => Energetics <=

    Nuclear Repulsion Energy =            298.3804513919154147
    One-Electron Energy =               -1010.2501945754648887
    Two-Electron Energy =                 402.7366291012222064
    Total Energy =                       -309.1331140823272108
  Basis Set: (AUG-CC-PVTZ AUX)
    Blend: AUG-CC-PVTZ-RI
    Molecular point group: c1

    Geometry (in Angstrom), charge = 0, multiplicity = 1:

       Center              X                  Y                   Z               Mass
    ------------   -----------------  -----------------  -----------------  -----------------
         O           -2.402049218981    -1.051296278122    -0.018390292165    15.994914619570
         C           -1.511751218981     0.027521721878    -0.344035292165    12.000000000000
         C           -0.183175218981    -0.175346278122     0.314262707835    12.000000000000
         C            2.318134781019    -0.468458278122     0.289376707835    12.000000000000
         C            1.062177381019    -0.295513678122    -0.398498292165    12.000000000000
         C           -2.206317218981     1.288974721878     0.131923707835    12.000000000000
         C            3.242268781019     0.720294721878     0.018370707835    12.000000000000
         H           -1.367423218981     0.080109721878    -1.435304292165     1.007825032230
         H           -0.200855218981    -0.247836278122     1.403186707835     1.007825032230
         H            2.787308781019    -1.383725278122    -0.093415292165     1.007825032230
         H            2.192427781019    -0.604880278122     1.369232707835     1.007825032230
         H            0.964263781019    -0.214443278122    -1.438942292165     1.007825032230
         H           -2.344817218981     1.245806721878     1.215100707835     1.007825032230
         H           -1.610917218981     2.171053721878    -0.116367292165     1.007825032230
         H           -3.188281218981     1.373755721878    -0.339386292165     1.007825032230
         H            2.813945781019     1.638740721878     0.427737707835     1.007825032230
         H            3.386274781019     0.865808721878    -1.056096292165     1.007825032230
         H            4.225181781019     0.567125721878     0.472470707835     1.007825032230
         H           -1.937341218981    -1.874103278122    -0.252090292165     1.007825032230

  Basis Set: AUG-CC-PVTZ
    Blend: AUG-CC-PVTZ
  Basis Set: (AUG-CC-PVTZ AUX)
    Blend: AUG-CC-PVTZ-JKFIT
	 Reference Energy          =    -309.1331140823272108 [Eh]
	 Singles Energy            =      -0.0000000000000000 [Eh]
	 Same-Spin Energy          =      -0.3186129562670889 [Eh]
	 Opposite-Spin Energy      =      -1.1060392242732575 [Eh]
	 Correlation Energy        =      -1.4246521805403463 [Eh]
	 Total Energy              =    -310.5577662628675739 [Eh]

	 ================> DF-SCS-MP2 Energies <==================
	-----------------------------------------------------------
	 SCS Same-Spin Scale       =       0.3333333333333333 [-]
	 SCS Opposite-Spin Scale   =       1.2000000000000000 [-]
	 SCS Same-Spin Energy      =      -0.1062043187556963 [Eh]
	 SCS Opposite-Spin Energy  =      -1.3272470691279090 [Eh]
	 SCS Correlation Energy    =      -1.4334513878836053 [Eh]
	 SCS Total Energy          =    -310.5665654702108327 [Eh]
	-----------------------------------------------------------

  Dipole Moment: [D]
     X:     1.9845      Y:     0.0024      Z:    -0.5686     Total:     2.0643

*** Psi4 exiting successfully. Buy a developer a beer!
