                               Psi4 1.3.2 release

  ==> Input File <==

--------------------------------------------------------------------------
#psi4
#
memory 32 gb

molecule  {
0 1
  O       -2.3839997    -1.0341152     0.0482262
  C       -1.5013820     0.0265210    -0.3499700
  C       -0.1728060    -0.1763470     0.3083280
  C        2.3285040    -0.4694590     0.2834420
  C        0.9860590    -0.2881690    -0.3549330
  C       -2.1959480     1.2879740     0.1259890
  C        3.2526380     0.7192940     0.0124360
  H       -1.3219546     0.1241344    -1.4329019
  H       -0.1904860    -0.2488370     1.3972520
  H        2.7976780    -1.3847260    -0.0993500
  H        2.2027970    -0.6058810     1.3632980
  H        0.9746330    -0.2154440    -1.4448770
  H       -2.3344480     1.2448060     1.2091660
  H       -1.6005480     2.1700530    -0.1223020
  H       -3.1779120     1.3727550    -0.3453210
  H        2.8243150     1.6377400     0.4218030
  H        3.3966440     0.8648080    -1.0620310
  H        4.2355510     0.5661250     0.4665360
  H       -1.9269720    -1.8751040    -0.2580250
units angstrom
no_reorient  #important for SAPT in psi4, default
symmetry c1  #important for SAPT in psi4, default
}

set PROPERTIES_ORIGIN ["COM"]
properties('MP2/aug-cc-pvtz', properties = ['dipole'])
--------------------------------------------------------------------------

    Molecular point group: c1
  Charge       = 0
  Multiplicity = 1
  Basis Set: AUG-CC-PVTZ
    Blend: AUG-CC-PVTZ
  Basis Set: (AUG-CC-PVTZ AUX)
    Blend: AUG-CC-PVTZ-JKFIT

    Orbital Energies [Eh]
    ---------------------

    Doubly Occupied:

       1A    -20.559959     2A    -11.281276     3A    -11.234935
       4A    -11.229987     5A    -11.225000     6A    -11.219151
       7A    -11.209509     8A     -1.349710     9A     -1.093780
      10A     -1.033937    11A     -0.973843    12A     -0.872871
      13A     -0.805388    14A     -0.759358    15A     -0.690967
      16A     -0.652658    17A     -0.609918    18A     -0.593921
      19A     -0.579378    20A     -0.538084    21A     -0.535704
      22A     -0.526166    23A     -0.519751    24A     -0.507176
      25A     -0.486713    26A     -0.474290    27A     -0.441448
      28A     -0.355513

  @DF-RHF Final Energy:  -309.14660740272006

   => Energetics <=

    Nuclear Repulsion Energy =            299.3099793507813615
    One-Electron Energy =               -1012.1923904989157563
    Two-Electron Energy =                 403.7358037454143869
    Total Energy =                       -309.1466074027200648
  Basis Set: (AUG-CC-PVTZ AUX)
    Blend: AUG-CC-PVTZ-RI
    Molecular point group: c1

    Geometry (in Angstrom), charge = 0, multiplicity = 1:

       Center              X                  Y                   Z               Mass
    ------------   -----------------  -----------------  -----------------  -----------------
         O           -2.385580410463    -1.037473994855     0.036548024842    15.994914619570
         C           -1.502962710463     0.023162205145    -0.361648175158    12.000000000000
         C           -0.174386710463    -0.179705794855     0.296649824842    12.000000000000
         C            2.326923289537    -0.472817794855     0.271763824842    12.000000000000
         C            0.984478289537    -0.291527794855    -0.366611175158    12.000000000000
         C           -2.197528710463     1.284615205145     0.114310824842    12.000000000000
         C            3.251057289537     0.715935205145     0.000757824842    12.000000000000
         H           -1.323535310463     0.120775605145    -1.444580075158     1.007825032230
         H           -0.192066710463    -0.252195794855     1.385573824842     1.007825032230
         H            2.796097289537    -1.388084794855    -0.111028175158     1.007825032230
         H            2.201216289537    -0.609239794855     1.351619824842     1.007825032230
         H            0.973052289537    -0.218802794855    -1.456555175158     1.007825032230
         H           -2.336028710463     1.241447205145     1.197487824842     1.007825032230
         H           -1.602128710463     2.166694205145    -0.133980175158     1.007825032230
         H           -3.179492710463     1.369396205145    -0.356999175158     1.007825032230
         H            2.822734289537     1.634381205145     0.410124824842     1.007825032230
         H            3.395063289537     0.861449205145    -1.073709175158     1.007825032230
         H            4.233970289537     0.562766205145     0.454857824842     1.007825032230
         H           -1.928552710463    -1.878462794855    -0.269703175158     1.007825032230

  Basis Set: AUG-CC-PVTZ
    Blend: AUG-CC-PVTZ
  Basis Set: (AUG-CC-PVTZ AUX)
    Blend: AUG-CC-PVTZ-JKFIT
	 Reference Energy          =    -309.1466074027200648 [Eh]
	 Singles Energy            =      -0.0000000000000000 [Eh]
	 Same-Spin Energy          =      -0.3174270365532551 [Eh]
	 Opposite-Spin Energy      =      -1.1039771639176237 [Eh]
	 Correlation Energy        =      -1.4214042004708789 [Eh]
	 Total Energy              =    -310.5680116031909392 [Eh]

	 ================> DF-SCS-MP2 Energies <==================
	-----------------------------------------------------------
	 SCS Same-Spin Scale       =       0.3333333333333333 [-]
	 SCS Opposite-Spin Scale   =       1.2000000000000000 [-]
	 SCS Same-Spin Energy      =      -0.1058090121844184 [Eh]
	 SCS Opposite-Spin Energy  =      -1.3247725967011483 [Eh]
	 SCS Correlation Energy    =      -1.4305816088855667 [Eh]
	 SCS Total Energy          =    -310.5771890116056397 [Eh]
	-----------------------------------------------------------

  Dipole Moment: [D]
     X:     1.8316      Y:    -0.0443      Z:    -0.6906     Total:     1.9580

*** Psi4 exiting successfully. Buy a developer a beer!
