                               Psi4 1.3.2 release

  ==> Input File <==

--------------------------------------------------------------------------
#psi4
#
memory 32 gb

molecule  {
0 1
  O       -2.3916800    -1.0522970    -0.0243250
  C       -1.5013820     0.0265210    -0.3499700
  C       -0.1671001    -0.1777710     0.3184345
  C        2.3285040    -0.4694590     0.2834420
  C        0.9860590    -0.2881690    -0.3549330
  C       -2.1959480     1.2879740     0.1259890
  C        3.2526380     0.7192940     0.0124360
  H       -1.3570540     0.0791090    -1.4412390
  H       -0.1904860    -0.2488370     1.3972520
  H        2.7976780    -1.3847260    -0.0993500
  H        2.2027970    -0.6058810     1.3632980
  H        0.9840821    -0.2166998    -1.4450182
  H       -2.3344480     1.2448060     1.2091660
  H       -1.6005480     2.1700530    -0.1223020
  H       -3.1779120     1.3727550    -0.3453210
  H        2.8243150     1.6377400     0.4218030
  H        3.3966440     0.8648080    -1.0620310
  H        4.2355510     0.5661250     0.4665360
  H       -1.9269720    -1.8751040    -0.2580250
units angstrom
no_reorient  #important for SAPT in psi4, default
symmetry c1  #important for SAPT in psi4, default
}

set PROPERTIES_ORIGIN ["COM"]
properties('MP2/aug-cc-pvtz', properties = ['dipole'])
--------------------------------------------------------------------------

    Molecular point group: c1
  Charge       = 0
  Multiplicity = 1
  Basis Set: AUG-CC-PVTZ
    Blend: AUG-CC-PVTZ
  Basis Set: (AUG-CC-PVTZ AUX)
    Blend: AUG-CC-PVTZ-JKFIT

    Orbital Energies [Eh]
    ---------------------

    Doubly Occupied:

       1A    -20.553494     2A    -11.281527     3A    -11.236138
       4A    -11.230033     5A    -11.226009     6A    -11.219428
       7A    -11.210564     8A     -1.352572     9A     -1.094253
      10A     -1.034038    11A     -0.974532    12A     -0.872540
      13A     -0.806655    14A     -0.762180    15A     -0.692379
      16A     -0.654084    17A     -0.610323    18A     -0.595195
      19A     -0.577826    20A     -0.540899    21A     -0.535848
      22A     -0.527676    23A     -0.521777    24A     -0.510407
      25A     -0.487495    26A     -0.470175    27A     -0.439724
      28A     -0.356756

  @DF-RHF Final Energy:  -309.15183841033343

   => Energetics <=

    Nuclear Repulsion Energy =            299.0515360126119049
    One-Electron Energy =               -1011.6576975207619853
    Two-Electron Energy =                 403.4543230978166548
    Total Energy =                       -309.1518384103334256
  Basis Set: (AUG-CC-PVTZ AUX)
    Blend: AUG-CC-PVTZ-RI
    Molecular point group: c1

    Geometry (in Angstrom), charge = 0, multiplicity = 1:

       Center              X                  Y                   Z               Mass
    ------------   -----------------  -----------------  -----------------  -----------------
         O           -2.392459162785    -1.052113464071    -0.025535303274    15.994914619570
         C           -1.502161162785     0.026704535929    -0.351180303274    12.000000000000
         C           -0.167879262785    -0.177587464071     0.317224196726    12.000000000000
         C            2.327724837215    -0.469275464071     0.282231696726    12.000000000000
         C            0.985279837215    -0.287985464071    -0.356143303274    12.000000000000
         C           -2.196727162785     1.288157535929     0.124778696726    12.000000000000
         C            3.251858837215     0.719477535929     0.011225696726    12.000000000000
         H           -1.357833162785     0.079292535929    -1.442449303274     1.007825032230
         H           -0.191265162785    -0.248653464071     1.396041696726     1.007825032230
         H            2.796898837215    -1.384542464071    -0.100560303274     1.007825032230
         H            2.202017837215    -0.605697464071     1.362087696726     1.007825032230
         H            0.983302937215    -0.216516264071    -1.446228503274     1.007825032230
         H           -2.335227162785     1.244989535929     1.207955696726     1.007825032230
         H           -1.601327162785     2.170236535929    -0.123512303274     1.007825032230
         H           -3.178691162785     1.372938535929    -0.346531303274     1.007825032230
         H            2.823535837215     1.637923535929     0.420592696726     1.007825032230
         H            3.395864837215     0.864991535929    -1.063241303274     1.007825032230
         H            4.234771837215     0.566308535929     0.465325696726     1.007825032230
         H           -1.927751162785    -1.874920464071    -0.259235303274     1.007825032230

  Basis Set: AUG-CC-PVTZ
    Blend: AUG-CC-PVTZ
  Basis Set: (AUG-CC-PVTZ AUX)
    Blend: AUG-CC-PVTZ-JKFIT
	 Reference Energy          =    -309.1518384103334256 [Eh]
	 Singles Energy            =      -0.0000000000000000 [Eh]
	 Same-Spin Energy          =      -0.3166094498209475 [Eh]
	 Opposite-Spin Energy      =      -1.1023337749849076 [Eh]
	 Correlation Energy        =      -1.4189432248058551 [Eh]
	 Total Energy              =    -310.5707816351392694 [Eh]

	 ================> DF-SCS-MP2 Energies <==================
	-----------------------------------------------------------
	 SCS Same-Spin Scale       =       0.3333333333333333 [-]
	 SCS Opposite-Spin Scale   =       1.2000000000000000 [-]
	 SCS Same-Spin Energy      =      -0.1055364832736492 [Eh]
	 SCS Opposite-Spin Energy  =      -1.3228005299818890 [Eh]
	 SCS Correlation Energy    =      -1.4283370132555382 [Eh]
	 SCS Total Energy          =    -310.5801754235889689 [Eh]
	-----------------------------------------------------------

  Dipole Moment: [D]
     X:     1.9094      Y:     0.0048      Z:    -0.5527     Total:     1.9878

*** Psi4 exiting successfully. Buy a developer a beer!
