                               Psi4 1.3.2 release

  ==> Input File <==

--------------------------------------------------------------------------
#psi4
#
memory 32 gb

molecule  {
0 1
  O       -2.3916800    -1.0522970    -0.0243250
  C       -1.5013820     0.0265210    -0.3499700
  C       -0.1728060    -0.1763470     0.3083280
  C        2.3285040    -0.4694590     0.2834420
  C        0.9916705    -0.2896297    -0.3447791
  C       -2.1959480     1.2879740     0.1259890
  C        3.2526380     0.7192940     0.0124360
  H       -1.3570540     0.0791090    -1.4412390
  H       -0.1810481    -0.2501210     1.3972781
  H        2.7976780    -1.3847260    -0.0993500
  H        2.2027970    -0.6058810     1.3632980
  H        0.9746330    -0.2154440    -1.4448770
  H       -2.3344480     1.2448060     1.2091660
  H       -1.6005480     2.1700530    -0.1223020
  H       -3.1779120     1.3727550    -0.3453210
  H        2.8243150     1.6377400     0.4218030
  H        3.3966440     0.8648080    -1.0620310
  H        4.2355510     0.5661250     0.4665360
  H       -1.9269720    -1.8751040    -0.2580250
units angstrom
no_reorient  #important for SAPT in psi4, default
symmetry c1  #important for SAPT in psi4, default
}

set PROPERTIES_ORIGIN ["COM"]
properties('MP2/aug-cc-pvtz', properties = ['dipole'])
--------------------------------------------------------------------------

    Molecular point group: c1
  Charge       = 0
  Multiplicity = 1
  Basis Set: AUG-CC-PVTZ
    Blend: AUG-CC-PVTZ
  Basis Set: (AUG-CC-PVTZ AUX)
    Blend: AUG-CC-PVTZ-JKFIT

    Orbital Energies [Eh]
    ---------------------

    Doubly Occupied:

       1A    -20.553775     2A    -11.281638     3A    -11.236477
       4A    -11.230353     5A    -11.226069     6A    -11.219888
       7A    -11.210822     8A     -1.352985     9A     -1.095557
      10A     -1.035482    11A     -0.974762    12A     -0.874265
      13A     -0.807864    14A     -0.759017    15A     -0.693176
      16A     -0.654013    17A     -0.612074    18A     -0.594521
      19A     -0.578476    20A     -0.537340    21A     -0.536471
      22A     -0.528005    23A     -0.521877    24A     -0.510548
      25A     -0.486239    26A     -0.472523    27A     -0.441420
      28A     -0.356404

  @DF-RHF Final Energy:  -309.15153879362452

   => Energetics <=

    Nuclear Repulsion Energy =            299.1982936903947348
    One-Electron Energy =               -1011.9355836172119325
    Two-Electron Energy =                 403.5857511331926730
    Total Energy =                       -309.1515387936245247
  Basis Set: (AUG-CC-PVTZ AUX)
    Blend: AUG-CC-PVTZ-RI
    Molecular point group: c1

    Geometry (in Angstrom), charge = 0, multiplicity = 1:

       Center              X                  Y                   Z               Mass
    ------------   -----------------  -----------------  -----------------  -----------------
         O           -2.392447732061    -1.052108780025    -0.025542670822    15.994914619570
         C           -1.502149732061     0.026709219975    -0.351187670822    12.000000000000
         C           -0.173573732061    -0.176158780025     0.307110329178    12.000000000000
         C            2.327736267939    -0.469270780025     0.282224329178    12.000000000000
         C            0.990902767939    -0.289441480025    -0.345996770822    12.000000000000
         C           -2.196715732061     1.288162219975     0.124771329178    12.000000000000
         C            3.251870267939     0.719482219975     0.011218329178    12.000000000000
         H           -1.357821732061     0.079297219975    -1.442456670822     1.007825032230
         H           -0.181815832061    -0.249932780025     1.396060429178     1.007825032230
         H            2.796910267939    -1.384537780025    -0.100567670822     1.007825032230
         H            2.202029267939    -0.605692780025     1.362080329178     1.007825032230
         H            0.973865267939    -0.215255780025    -1.446094670822     1.007825032230
         H           -2.335215732061     1.244994219975     1.207948329178     1.007825032230
         H           -1.601315732061     2.170241219975    -0.123519670822     1.007825032230
         H           -3.178679732061     1.372943219975    -0.346538670822     1.007825032230
         H            2.823547267939     1.637928219975     0.420585329178     1.007825032230
         H            3.395876267939     0.864996219975    -1.063248670822     1.007825032230
         H            4.234783267939     0.566313219975     0.465318329178     1.007825032230
         H           -1.927739732061    -1.874915780025    -0.259242670822     1.007825032230

  Basis Set: AUG-CC-PVTZ
    Blend: AUG-CC-PVTZ
  Basis Set: (AUG-CC-PVTZ AUX)
    Blend: AUG-CC-PVTZ-JKFIT
	 Reference Energy          =    -309.1515387936245247 [Eh]
	 Singles Energy            =      -0.0000000000000000 [Eh]
	 Same-Spin Energy          =      -0.3168163267218147 [Eh]
	 Opposite-Spin Energy      =      -1.1025422381735983 [Eh]
	 Correlation Energy        =      -1.4193585648954130 [Eh]
	 Total Energy              =    -310.5708973585199146 [Eh]

	 ================> DF-SCS-MP2 Energies <==================
	-----------------------------------------------------------
	 SCS Same-Spin Scale       =       0.3333333333333333 [-]
	 SCS Opposite-Spin Scale   =       1.2000000000000000 [-]
	 SCS Same-Spin Energy      =      -0.1056054422406049 [Eh]
	 SCS Opposite-Spin Energy  =      -1.3230506858083180 [Eh]
	 SCS Correlation Energy    =      -1.4286561280489229 [Eh]
	 SCS Total Energy          =    -310.5801949216734670 [Eh]
	-----------------------------------------------------------

  Dipole Moment: [D]
     X:     1.9231      Y:     0.0075      Z:    -0.5486     Total:     1.9998

*** Psi4 exiting successfully. Buy a developer a beer!
