                               Psi4 1.3.2 release

  ==> Input File <==

--------------------------------------------------------------------------
#psi4
#
memory 32 gb

molecule  {
0 1
  O       -2.3916800    -1.0522970    -0.0243250
  C       -1.4928687     0.0182243    -0.3539397
  C       -0.1728060    -0.1763470     0.3083280
  C        2.3285040    -0.4694590     0.2834420
  C        0.9860590    -0.2881690    -0.3549330
  C       -2.1959480     1.2879740     0.1259890
  C        3.2526380     0.7192940     0.0124360
  H       -1.3570540     0.0791090    -1.4412390
  H       -0.1904860    -0.2488370     1.3972520
  H        2.7976780    -1.3847260    -0.0993500
  H        2.2027970    -0.6058810     1.3632980
  H        0.9746330    -0.2154440    -1.4448770
  H       -2.3344480     1.2448060     1.2091660
  H       -1.6005480     2.1700530    -0.1223020
  H       -3.1779120     1.3727550    -0.3453210
  H        2.8243150     1.6377400     0.4218030
  H        3.3966440     0.8648080    -1.0620310
  H        4.2355510     0.5661250     0.4665360
  H       -1.9202927    -1.8705477    -0.2606307
units angstrom
no_reorient  #important for SAPT in psi4, default
symmetry c1  #important for SAPT in psi4, default
}

set PROPERTIES_ORIGIN ["COM"]
properties('MP2/aug-cc-pvtz', properties = ['dipole'])
--------------------------------------------------------------------------

    Molecular point group: c1
  Charge       = 0
  Multiplicity = 1
  Basis Set: AUG-CC-PVTZ
    Blend: AUG-CC-PVTZ
  Basis Set: (AUG-CC-PVTZ AUX)
    Blend: AUG-CC-PVTZ-JKFIT

    Orbital Energies [Eh]
    ---------------------

    Doubly Occupied:

       1A    -20.554129     2A    -11.280682     3A    -11.236465
       4A    -11.230784     5A    -11.226191     6A    -11.219748
       7A    -11.210786     8A     -1.353489     9A     -1.095188
      10A     -1.034328    11A     -0.973372    12A     -0.873886
      13A     -0.807722    14A     -0.761373    15A     -0.692406
      16A     -0.654781    17A     -0.610863    18A     -0.594851
      19A     -0.578367    20A     -0.538875    21A     -0.536150
      22A     -0.526696    23A     -0.521877    24A     -0.509906
      25A     -0.487477    26A     -0.470701    27A     -0.442775
      28A     -0.356674

  @DF-RHF Final Energy:  -309.15151237116777

   => Energetics <=

    Nuclear Repulsion Energy =            299.1745227150082655
    One-Electron Energy =               -1011.8909877164053341
    Two-Electron Energy =                 403.5649526302292998
    Total Energy =                       -309.1515123711677688
  Basis Set: (AUG-CC-PVTZ AUX)
    Blend: AUG-CC-PVTZ-RI
    Molecular point group: c1

    Geometry (in Angstrom), charge = 0, multiplicity = 1:

       Center              X                  Y                   Z               Mass
    ------------   -----------------  -----------------  -----------------  -----------------
         O           -2.392767861877    -1.051347995721    -0.023822842348    15.994914619570
         C           -1.493956561877     0.019173304279    -0.353437542348    12.000000000000
         C           -0.173893861877    -0.175397995721     0.308830157652    12.000000000000
         C            2.327416138123    -0.468509995721     0.283944157652    12.000000000000
         C            0.984971138123    -0.287219995721    -0.354430842348    12.000000000000
         C           -2.197035861877     1.288923004279     0.126491157652    12.000000000000
         C            3.251550138123     0.720243004279     0.012938157652    12.000000000000
         H           -1.358141861877     0.080058004279    -1.440736842348     1.007825032230
         H           -0.191573861877    -0.247887995721     1.397754157652     1.007825032230
         H            2.796590138123    -1.383776995721    -0.098847842348     1.007825032230
         H            2.201709138123    -0.604931995721     1.363800157652     1.007825032230
         H            0.973545138123    -0.214494995721    -1.444374842348     1.007825032230
         H           -2.335535861877     1.245755004279     1.209668157652     1.007825032230
         H           -1.601635861877     2.171002004279    -0.121799842348     1.007825032230
         H           -3.178999861877     1.373704004279    -0.344818842348     1.007825032230
         H            2.823227138123     1.638689004279     0.422305157652     1.007825032230
         H            3.395556138123     0.865757004279    -1.061528842348     1.007825032230
         H            4.234463138123     0.567074004279     0.467038157652     1.007825032230
         H           -1.921380561877    -1.869598695721    -0.260128542348     1.007825032230

  Basis Set: AUG-CC-PVTZ
    Blend: AUG-CC-PVTZ
  Basis Set: (AUG-CC-PVTZ AUX)
    Blend: AUG-CC-PVTZ-JKFIT
	 Reference Energy          =    -309.1515123711677688 [Eh]
	 Singles Energy            =      -0.0000000000000000 [Eh]
	 Same-Spin Energy          =      -0.3167559719812416 [Eh]
	 Opposite-Spin Energy      =      -1.1025306241871680 [Eh]
	 Correlation Energy        =      -1.4192865961684096 [Eh]
	 Total Energy              =    -310.5707989673362022 [Eh]

	 ================> DF-SCS-MP2 Energies <==================
	-----------------------------------------------------------
	 SCS Same-Spin Scale       =       0.3333333333333333 [-]
	 SCS Opposite-Spin Scale   =       1.2000000000000000 [-]
	 SCS Same-Spin Energy      =      -0.1055853239937472 [Eh]
	 SCS Opposite-Spin Energy  =      -1.3230367490246016 [Eh]
	 SCS Correlation Energy    =      -1.4286220730183488 [Eh]
	 SCS Total Energy          =    -310.5801344441861147 [Eh]
	-----------------------------------------------------------

  Dipole Moment: [D]
     X:     1.9399      Y:    -0.0043      Z:    -0.5602     Total:     2.0191

*** Psi4 exiting successfully. Buy a developer a beer!
