                               Psi4 1.3.2 release

  ==> Input File <==

--------------------------------------------------------------------------
#psi4
#
memory 32 gb

molecule  {
0 1
  O       -2.3954455    -1.0627782    -0.0732007
  C       -1.5013820     0.0265210    -0.3499700
  C       -0.1728060    -0.1763470     0.3083280
  C        2.3285040    -0.4694590     0.2834420
  C        0.9860590    -0.2881690    -0.3549330
  C       -2.1959480     1.2879740     0.1259890
  C        3.2526380     0.7192940     0.0124360
  H       -1.3806793     0.0490043    -1.4451364
  H       -0.1904860    -0.2488370     1.3972520
  H        2.7976780    -1.3847260    -0.0993500
  H        2.2027970    -0.6058810     1.3632980
  H        0.9746330    -0.2154440    -1.4448770
  H       -2.3344480     1.2448060     1.2091660
  H       -1.6005480     2.1700530    -0.1223020
  H       -3.1779120     1.3727550    -0.3453210
  H        2.8243150     1.6377400     0.4218030
  H        3.3966440     0.8648080    -1.0620310
  H        4.2355510     0.5661250     0.4665360
  H       -1.9269720    -1.8751040    -0.2580250
units angstrom
no_reorient  #important for SAPT in psi4, default
symmetry c1  #important for SAPT in psi4, default
}

set PROPERTIES_ORIGIN ["COM"]
properties('MP2/aug-cc-pvtz', properties = ['dipole'])
--------------------------------------------------------------------------

    Molecular point group: c1
  Charge       = 0
  Multiplicity = 1
  Basis Set: AUG-CC-PVTZ
    Blend: AUG-CC-PVTZ
  Basis Set: (AUG-CC-PVTZ AUX)
    Blend: AUG-CC-PVTZ-JKFIT

    Orbital Energies [Eh]
    ---------------------

    Doubly Occupied:

       1A    -20.549733     2A    -11.280972     3A    -11.236962
       4A    -11.231031     5A    -11.227070     6A    -11.219926
       7A    -11.211483     8A     -1.354904     9A     -1.095136
      10A     -1.035614    11A     -0.975190    12A     -0.873604
      13A     -0.809006    14A     -0.761907    15A     -0.693328
      16A     -0.655012    17A     -0.611260    18A     -0.595027
      19A     -0.577889    20A     -0.539207    21A     -0.536458
      22A     -0.529200    23A     -0.523390    24A     -0.511704
      25A     -0.487739    26A     -0.469188    27A     -0.439374
      28A     -0.357468

  @DF-RHF Final Energy:  -309.15253080812511

   => Energetics <=

    Nuclear Repulsion Energy =            299.0472658858009822
    One-Electron Energy =               -1011.6220332761254213
    Two-Electron Energy =                 403.4222365821993890
    Total Energy =                       -309.1525308081251069
  Basis Set: (AUG-CC-PVTZ AUX)
    Blend: AUG-CC-PVTZ-RI
    Molecular point group: c1

    Geometry (in Angstrom), charge = 0, multiplicity = 1:

       Center              X                  Y                   Z               Mass
    ------------   -----------------  -----------------  -----------------  -----------------
         O           -2.394605772011    -1.060799932635    -0.065350787696    15.994914619570
         C           -1.500542272011     0.028499267365    -0.342120087696    12.000000000000
         C           -0.171966272011    -0.174368732635     0.316177912304    12.000000000000
         C            2.329343727989    -0.467480732635     0.291291912304    12.000000000000
         C            0.986898727989    -0.286190732635    -0.347083087696    12.000000000000
         C           -2.195108272011     1.289952267365     0.133838912304    12.000000000000
         C            3.253477727989     0.721272267365     0.020285912304    12.000000000000
         H           -1.379839572011     0.050982567365    -1.437286487696     1.007825032230
         H           -0.189646272011    -0.246858732635     1.405101912304     1.007825032230
         H            2.798517727989    -1.382747732635    -0.091500087696     1.007825032230
         H            2.203636727989    -0.603902732635     1.371147912304     1.007825032230
         H            0.975472727989    -0.213465732635    -1.437027087696     1.007825032230
         H           -2.333608272011     1.246784267365     1.217015912304     1.007825032230
         H           -1.599708272011     2.172031267365    -0.114452087696     1.007825032230
         H           -3.177072272011     1.374733267365    -0.337471087696     1.007825032230
         H            2.825154727989     1.639718267365     0.429652912304     1.007825032230
         H            3.397483727989     0.866786267365    -1.054181087696     1.007825032230
         H            4.236390727989     0.568103267365     0.474385912304     1.007825032230
         H           -1.926132272011    -1.873125732635    -0.250175087696     1.007825032230

  Basis Set: AUG-CC-PVTZ
    Blend: AUG-CC-PVTZ
  Basis Set: (AUG-CC-PVTZ AUX)
    Blend: AUG-CC-PVTZ-JKFIT
	 Reference Energy          =    -309.1525308081251069 [Eh]
	 Singles Energy            =      -0.0000000000000000 [Eh]
	 Same-Spin Energy          =      -0.3163632711978157 [Eh]
	 Opposite-Spin Energy      =      -1.1016749814761431 [Eh]
	 Correlation Energy        =      -1.4180382526739588 [Eh]
	 Total Energy              =    -310.5705690607990732 [Eh]

	 ================> DF-SCS-MP2 Energies <==================
	-----------------------------------------------------------
	 SCS Same-Spin Scale       =       0.3333333333333333 [-]
	 SCS Opposite-Spin Scale   =       1.2000000000000000 [-]
	 SCS Same-Spin Energy      =      -0.1054544237326052 [Eh]
	 SCS Opposite-Spin Energy  =      -1.3220099777713716 [Eh]
	 SCS Correlation Energy    =      -1.4274644015039768 [Eh]
	 SCS Total Energy          =    -310.5799952096290895 [Eh]
	-----------------------------------------------------------

  Dipole Moment: [D]
     X:     1.9650      Y:     0.0383      Z:    -0.4549     Total:     2.0174

*** Psi4 exiting successfully. Buy a developer a beer!
