                               Psi4 1.3.2 release

  ==> Input File <==

--------------------------------------------------------------------------
#psi4
#
memory 32 gb

molecule  {
0 1
  O       -2.3916800    -1.0522970    -0.0243250
  C       -1.5013820     0.0265210    -0.3499700
  C       -0.1369795    -0.1827647     0.3682972
  C        2.2931584    -0.4678782     0.3534052
  C        0.9860590    -0.2881690    -0.3549330
  C       -2.1959480     1.2879740     0.1259890
  C        3.2526380     0.7192940     0.0124360
  H       -1.3570540     0.0791090    -1.4412390
  H       -0.1904860    -0.2488370     1.3972520
  H        2.7976780    -1.3847260    -0.0993500
  H        2.2027970    -0.6058810     1.3632980
  H        0.9746330    -0.2154440    -1.4448770
  H       -2.3344480     1.2448060     1.2091660
  H       -1.6005480     2.1700530    -0.1223020
  H       -3.1779120     1.3727550    -0.3453210
  H        2.8243150     1.6377400     0.4218030
  H        3.3966440     0.8648080    -1.0620310
  H        4.2355510     0.5661250     0.4665360
  H       -1.9269720    -1.8751040    -0.2580250
units angstrom
no_reorient  #important for SAPT in psi4, default
symmetry c1  #important for SAPT in psi4, default
}

set PROPERTIES_ORIGIN ["COM"]
properties('MP2/aug-cc-pvtz', properties = ['dipole'])
--------------------------------------------------------------------------

    Molecular point group: c1
  Charge       = 0
  Multiplicity = 1
  Basis Set: AUG-CC-PVTZ
    Blend: AUG-CC-PVTZ
  Basis Set: (AUG-CC-PVTZ AUX)
    Blend: AUG-CC-PVTZ-JKFIT

    Orbital Energies [Eh]
    ---------------------

    Doubly Occupied:

       1A    -20.552409     2A    -11.282639     3A    -11.236494
       4A    -11.228119     5A    -11.222741     6A    -11.219988
       7A    -11.209455     8A     -1.350737     9A     -1.092988
      10A     -1.026915    11A     -0.971864    12A     -0.868987
      13A     -0.804668    14A     -0.773303    15A     -0.689741
      16A     -0.652884    17A     -0.608810    18A     -0.596125
      19A     -0.574888    20A     -0.551751    21A     -0.529960
      22A     -0.525340    23A     -0.519308    24A     -0.514337
      25A     -0.495751    26A     -0.464927    27A     -0.430661
      28A     -0.353843

  @DF-RHF Final Energy:  -309.13965736810837

   => Energetics <=

    Nuclear Repulsion Energy =            298.6084741413040433
    One-Electron Energy =               -1010.7969952727767122
    Two-Electron Energy =                 403.0488637633643521
    Total Energy =                       -309.1396573681083737
  Basis Set: (AUG-CC-PVTZ AUX)
    Blend: AUG-CC-PVTZ-RI
    Molecular point group: c1

    Geometry (in Angstrom), charge = 0, multiplicity = 1:

       Center              X                  Y                   Z               Mass
    ------------   -----------------  -----------------  -----------------  -----------------
         O           -2.391737573270    -1.051716924525    -0.039903073587    15.994914619570
         C           -1.501439573270     0.027101075475    -0.365548073587    12.000000000000
         C           -0.137037073270    -0.182184624525     0.352719126413    12.000000000000
         C            2.293100826730    -0.467298124525     0.337827126413    12.000000000000
         C            0.986001426730    -0.287588924525    -0.370511073587    12.000000000000
         C           -2.196005573270     1.288554075475     0.110410926413    12.000000000000
         C            3.252580426730     0.719874075475    -0.003142073587    12.000000000000
         H           -1.357111573270     0.079689075475    -1.456817073587     1.007825032230
         H           -0.190543573270    -0.248256924525     1.381673926413     1.007825032230
         H            2.797620426730    -1.384145924525    -0.114928073587     1.007825032230
         H            2.202739426730    -0.605300924525     1.347719926413     1.007825032230
         H            0.974575426730    -0.214863924525    -1.460455073587     1.007825032230
         H           -2.334505573270     1.245386075475     1.193587926413     1.007825032230
         H           -1.600605573270     2.170633075475    -0.137880073587     1.007825032230
         H           -3.177969573270     1.373335075475    -0.360899073587     1.007825032230
         H            2.824257426730     1.638320075475     0.406224926413     1.007825032230
         H            3.396586426730     0.865388075475    -1.077609073587     1.007825032230
         H            4.235493426730     0.566705075475     0.450957926413     1.007825032230
         H           -1.927029573270    -1.874523924525    -0.273603073587     1.007825032230

  Basis Set: AUG-CC-PVTZ
    Blend: AUG-CC-PVTZ
  Basis Set: (AUG-CC-PVTZ AUX)
    Blend: AUG-CC-PVTZ-JKFIT
	 Reference Energy          =    -309.1396573681083737 [Eh]
	 Singles Energy            =      -0.0000000000000000 [Eh]
	 Same-Spin Energy          =      -0.3162975374659179 [Eh]
	 Opposite-Spin Energy      =      -1.1023507092329226 [Eh]
	 Correlation Energy        =      -1.4186482466988404 [Eh]
	 Total Energy              =    -310.5583056148072387 [Eh]

	 ================> DF-SCS-MP2 Energies <==================
	-----------------------------------------------------------
	 SCS Same-Spin Scale       =       0.3333333333333333 [-]
	 SCS Opposite-Spin Scale   =       1.2000000000000000 [-]
	 SCS Same-Spin Energy      =      -0.1054325124886393 [Eh]
	 SCS Opposite-Spin Energy  =      -1.3228208510795070 [Eh]
	 SCS Correlation Energy    =      -1.4282533635681463 [Eh]
	 SCS Total Energy          =    -310.5679107316765339 [Eh]
	-----------------------------------------------------------

  Dipole Moment: [D]
     X:     1.8917      Y:    -0.0026      Z:    -0.5267     Total:     1.9637

*** Psi4 exiting successfully. Buy a developer a beer!
