                               Psi4 1.3.2 release

  ==> Input File <==

--------------------------------------------------------------------------
#psi4
#
memory 32 gb

molecule  {
0 1
  O       -2.3916800    -1.0522970    -0.0243250
  C       -1.5013820     0.0265210    -0.3499700
  C       -0.0840294    -0.1899028     0.3523161
  C        2.3285040    -0.4694590     0.2834420
  C        0.9860590    -0.2881690    -0.3549330
  C       -2.1959480     1.2879740     0.1259890
  C        3.2526380     0.7192940     0.0124360
  H       -1.3570540     0.0791090    -1.4412390
  H       -0.1904860    -0.2488370     1.3972520
  H        2.7976780    -1.3847260    -0.0993500
  H        2.2027970    -0.6058810     1.3632980
  H        0.9746330    -0.2154440    -1.4448770
  H       -2.3344480     1.2448060     1.2091660
  H       -1.6005480     2.1700530    -0.1223020
  H       -3.1779120     1.3727550    -0.3453210
  H        2.8243150     1.6377400     0.4218030
  H        3.3966440     0.8648080    -1.0620310
  H        4.2355510     0.5661250     0.4665360
  H       -1.9269720    -1.8751040    -0.2580250
units angstrom
no_reorient  #important for SAPT in psi4, default
symmetry c1  #important for SAPT in psi4, default
}

set PROPERTIES_ORIGIN ["COM"]
properties('MP2/aug-cc-pvtz', properties = ['dipole'])
--------------------------------------------------------------------------

    Molecular point group: c1
  Charge       = 0
  Multiplicity = 1
  Basis Set: AUG-CC-PVTZ
    Blend: AUG-CC-PVTZ
  Basis Set: (AUG-CC-PVTZ AUX)
    Blend: AUG-CC-PVTZ-JKFIT

    Orbital Energies [Eh]
    ---------------------

    Doubly Occupied:

       1A    -20.553767     2A    -11.284663     3A    -11.227604
       4A    -11.226844     5A    -11.220142     6A    -11.218051
       7A    -11.210049     8A     -1.350816     9A     -1.099661
      10A     -1.026313    11A     -0.979465    12A     -0.865281
      13A     -0.804383    14A     -0.765510    15A     -0.689210
      16A     -0.653512    17A     -0.612353    18A     -0.595361
      19A     -0.574462    20A     -0.551633    21A     -0.534600
      22A     -0.526686    23A     -0.520614    24A     -0.510743
      25A     -0.488520    26A     -0.465525    27A     -0.422390
      28A     -0.370134

  @DF-RHF Final Energy:  -309.14394085060678

   => Energetics <=

    Nuclear Repulsion Energy =            298.8041671843091649
    One-Electron Energy =               -1011.1996347035775443
    Two-Electron Energy =                 403.2515266686615405
    Total Energy =                       -309.1439408506067821
  Basis Set: (AUG-CC-PVTZ AUX)
    Blend: AUG-CC-PVTZ-RI
    Molecular point group: c1

    Geometry (in Angstrom), charge = 0, multiplicity = 1:

       Center              X                  Y                   Z               Mass
    ------------   -----------------  -----------------  -----------------  -----------------
         O           -2.402323655241    -1.050671584943    -0.029598909231    15.994914619570
         C           -1.512025655241     0.028146415057    -0.355243909231    12.000000000000
         C           -0.094673055241    -0.188277384943     0.347042190769    12.000000000000
         C            2.317860344759    -0.467833584943     0.278168090769    12.000000000000
         C            0.975415344759    -0.286543584943    -0.360206909231    12.000000000000
         C           -2.206591655241     1.289599415057     0.120715090769    12.000000000000
         C            3.241994344759     0.720919415057     0.007162090769    12.000000000000
         H           -1.367697655241     0.080734415057    -1.446512909231     1.007825032230
         H           -0.201129655241    -0.247211584943     1.391978090769     1.007825032230
         H            2.787034344759    -1.383100584943    -0.104623909231     1.007825032230
         H            2.192153344759    -0.604255584943     1.358024090769     1.007825032230
         H            0.963989344759    -0.213818584943    -1.450150909231     1.007825032230
         H           -2.345091655241     1.246431415057     1.203892090769     1.007825032230
         H           -1.611191655241     2.171678415057    -0.127575909231     1.007825032230
         H           -3.188555655241     1.374380415057    -0.350594909231     1.007825032230
         H            2.813671344759     1.639365415057     0.416529090769     1.007825032230
         H            3.386000344759     0.866433415057    -1.067304909231     1.007825032230
         H            4.224907344759     0.567750415057     0.461262090769     1.007825032230
         H           -1.937615655241    -1.873478584943    -0.263298909231     1.007825032230

  Basis Set: AUG-CC-PVTZ
    Blend: AUG-CC-PVTZ
  Basis Set: (AUG-CC-PVTZ AUX)
    Blend: AUG-CC-PVTZ-JKFIT
	 Reference Energy          =    -309.1439408506067821 [Eh]
	 Singles Energy            =      -0.0000000000000000 [Eh]
	 Same-Spin Energy          =      -0.3157644697403773 [Eh]
	 Opposite-Spin Energy      =      -1.1010674576651103 [Eh]
	 Correlation Energy        =      -1.4168319274054875 [Eh]
	 Total Energy              =    -310.5607727780122786 [Eh]

	 ================> DF-SCS-MP2 Energies <==================
	-----------------------------------------------------------
	 SCS Same-Spin Scale       =       0.3333333333333333 [-]
	 SCS Opposite-Spin Scale   =       1.2000000000000000 [-]
	 SCS Same-Spin Energy      =      -0.1052548232467924 [Eh]
	 SCS Opposite-Spin Energy  =      -1.3212809491981323 [Eh]
	 SCS Correlation Energy    =      -1.4265357724449248 [Eh]
	 SCS Total Energy          =    -310.5704766230517180 [Eh]
	-----------------------------------------------------------

  Dipole Moment: [D]
     X:     1.8522      Y:    -0.0211      Z:    -0.5508     Total:     1.9325

*** Psi4 exiting successfully. Buy a developer a beer!
