                               Psi4 1.3.2 release

  ==> Input File <==

--------------------------------------------------------------------------
#psi4
#
memory 32 gb

molecule  {
0 1
  O       -2.3916800    -1.0522970    -0.0243250
  C       -1.5013820     0.0265210    -0.3499700
  C       -0.1949314    -0.1722378     0.2673282
  C        2.3500291    -0.4702371     0.2358157
  C        0.9860590    -0.2881690    -0.3549330
  C       -2.1959480     1.2879740     0.1259890
  C        3.2526380     0.7192940     0.0124360
  H       -1.3570540     0.0791090    -1.4412390
  H       -0.1904860    -0.2488370     1.3972520
  H        2.7976780    -1.3847260    -0.0993500
  H        2.2027970    -0.6058810     1.3632980
  H        0.9746330    -0.2154440    -1.4448770
  H       -2.3344480     1.2448060     1.2091660
  H       -1.6005480     2.1700530    -0.1223020
  H       -3.1779120     1.3727550    -0.3453210
  H        2.8243150     1.6377400     0.4218030
  H        3.3966440     0.8648080    -1.0620310
  H        4.2355510     0.5661250     0.4665360
  H       -1.9269720    -1.8751040    -0.2580250
units angstrom
no_reorient  #important for SAPT in psi4, default
symmetry c1  #important for SAPT in psi4, default
}

set PROPERTIES_ORIGIN ["COM"]
properties('MP2/aug-cc-pvtz', properties = ['dipole'])
--------------------------------------------------------------------------

    Molecular point group: c1
  Charge       = 0
  Multiplicity = 1
  Basis Set: AUG-CC-PVTZ
    Blend: AUG-CC-PVTZ
  Basis Set: (AUG-CC-PVTZ AUX)
    Blend: AUG-CC-PVTZ-JKFIT

    Orbital Energies [Eh]
    ---------------------

    Doubly Occupied:

       1A    -20.554600     2A    -11.280054     3A    -11.237111
       4A    -11.233590     5A    -11.229304     6A    -11.219931
       7A    -11.211659     8A     -1.354415     9A     -1.096917
      10A     -1.041051    11A     -0.976617    12A     -0.877453
      13A     -0.810595    14A     -0.754352    15A     -0.695565
      16A     -0.654644    17A     -0.618038    18A     -0.589309
      19A     -0.580953    20A     -0.543746    21A     -0.532770
      22A     -0.528790    23A     -0.523584    24A     -0.510020
      25A     -0.480323    26A     -0.468509    27A     -0.443572
      28A     -0.358537

  @DF-RHF Final Energy:  -309.14521292676517

   => Energetics <=

    Nuclear Repulsion Energy =            299.5246824655025648
    One-Electron Energy =               -1012.5277723260904850
    Two-Electron Energy =                 403.8578769338227517
    Total Energy =                       -309.1452129267651685
  Basis Set: (AUG-CC-PVTZ AUX)
    Blend: AUG-CC-PVTZ-RI
    Molecular point group: c1

    Geometry (in Angstrom), charge = 0, multiplicity = 1:

       Center              X                  Y                   Z               Mass
    ------------   -----------------  -----------------  -----------------  -----------------
         O           -2.391607944400    -1.052696214768    -0.013699326446    15.994914619570
         C           -1.501309944400     0.026121785232    -0.339344326446    12.000000000000
         C           -0.194859344400    -0.172637014768     0.277953873554    12.000000000000
         C            2.350101155600    -0.470636314768     0.246441373554    12.000000000000
         C            0.986131055600    -0.288568214768    -0.344307326446    12.000000000000
         C           -2.195875944400     1.287574785232     0.136614673554    12.000000000000
         C            3.252710055600     0.718894785232     0.023061673554    12.000000000000
         H           -1.356981944400     0.078709785232    -1.430613326446     1.007825032230
         H           -0.190413944400    -0.249236214768     1.407877673554     1.007825032230
         H            2.797750055600    -1.385125214768    -0.088724326446     1.007825032230
         H            2.202869055600    -0.606280214768     1.373923673554     1.007825032230
         H            0.974705055600    -0.215843214768    -1.434251326446     1.007825032230
         H           -2.334375944400     1.244406785232     1.219791673554     1.007825032230
         H           -1.600475944400     2.169653785232    -0.111676326446     1.007825032230
         H           -3.177839944400     1.372355785232    -0.334695326446     1.007825032230
         H            2.824387055600     1.637340785232     0.432428673554     1.007825032230
         H            3.396716055600     0.864408785232    -1.051405326446     1.007825032230
         H            4.235623055600     0.565725785232     0.477161673554     1.007825032230
         H           -1.926899944400    -1.875503214768    -0.247399326446     1.007825032230

  Basis Set: AUG-CC-PVTZ
    Blend: AUG-CC-PVTZ
  Basis Set: (AUG-CC-PVTZ AUX)
    Blend: AUG-CC-PVTZ-JKFIT
	 Reference Energy          =    -309.1452129267651685 [Eh]
	 Singles Energy            =      -0.0000000000000000 [Eh]
	 Same-Spin Energy          =      -0.3173562582762650 [Eh]
	 Opposite-Spin Energy      =      -1.1034125632345624 [Eh]
	 Correlation Energy        =      -1.4207688215108274 [Eh]
	 Total Energy              =    -310.5659817482759877 [Eh]

	 ================> DF-SCS-MP2 Energies <==================
	-----------------------------------------------------------
	 SCS Same-Spin Scale       =       0.3333333333333333 [-]
	 SCS Opposite-Spin Scale   =       1.2000000000000000 [-]
	 SCS Same-Spin Energy      =      -0.1057854194254217 [Eh]
	 SCS Opposite-Spin Energy  =      -1.3240950758814749 [Eh]
	 SCS Correlation Energy    =      -1.4298804953068966 [Eh]
	 SCS Total Energy          =    -310.5750934220720865 [Eh]
	-----------------------------------------------------------

  Dipole Moment: [D]
     X:     1.9295      Y:     0.0218      Z:    -0.5908     Total:     2.0181

*** Psi4 exiting successfully. Buy a developer a beer!
