                               Psi4 1.3.2 release

  ==> Input File <==

--------------------------------------------------------------------------
#psi4
#
memory 32 gb

molecule  {
0 1
  O       -2.3936987    -1.0577027    -0.0487170
  C       -1.5013820     0.0265210    -0.3499700
  C       -0.1728060    -0.1763470     0.3083280
  C        2.3285040    -0.4694590     0.2834420
  C        0.9860590    -0.2881690    -0.3549330
  C       -2.1959480     1.2879740     0.1259890
  C        3.2526380     0.7192940     0.0124360
  H       -1.3688465     0.0640624    -1.4433542
  H       -0.1904860    -0.2488370     1.3972520
  H        2.7976780    -1.3847260    -0.0993500
  H        2.2027970    -0.6058810     1.3632980
  H        0.9746330    -0.2154440    -1.4448770
  H       -2.3344480     1.2448060     1.2091660
  H       -1.6005480     2.1700530    -0.1223020
  H       -3.1779120     1.3727550    -0.3453210
  H        2.8243150     1.6377400     0.4218030
  H        3.3966440     0.8648080    -1.0620310
  H        4.2355510     0.5661250     0.4665360
  H       -1.9269720    -1.8751040    -0.2580250
units angstrom
no_reorient  #important for SAPT in psi4, default
symmetry c1  #important for SAPT in psi4, default
}

set PROPERTIES_ORIGIN ["COM"]
properties('MP2/aug-cc-pvtz', properties = ['dipole'])
--------------------------------------------------------------------------

    Molecular point group: c1
  Charge       = 0
  Multiplicity = 1
  Basis Set: AUG-CC-PVTZ
    Blend: AUG-CC-PVTZ
  Basis Set: (AUG-CC-PVTZ AUX)
    Blend: AUG-CC-PVTZ-JKFIT

    Orbital Energies [Eh]
    ---------------------

    Doubly Occupied:

       1A    -20.551657     2A    -11.281070     3A    -11.236559
       4A    -11.230825     5A    -11.226667     6A    -11.219773
       7A    -11.211108     8A     -1.353902     9A     -1.094879
      10A     -1.035317    11A     -0.974938    12A     -0.873454
      13A     -0.808222    14A     -0.761304    15A     -0.693212
      16A     -0.654640    17A     -0.611019    18A     -0.594813
      19A     -0.578099    20A     -0.538990    21A     -0.536308
      22A     -0.528474    23A     -0.522543    24A     -0.511097
      25A     -0.487547    26A     -0.470249    27A     -0.440184
      28A     -0.357084

  @DF-RHF Final Energy:  -309.15246644120975

   => Energetics <=

    Nuclear Repulsion Energy =            299.0956786529159785
    One-Electron Energy =               -1011.7284198086596234
    Two-Electron Energy =                 403.4802747145338344
    Total Energy =                       -309.1524664412097536
  Basis Set: (AUG-CC-PVTZ AUX)
    Blend: AUG-CC-PVTZ-RI
    Molecular point group: c1

    Geometry (in Angstrom), charge = 0, multiplicity = 1:

       Center              X                  Y                   Z               Mass
    ------------   -----------------  -----------------  -----------------  -----------------
         O           -2.393257271350    -1.056687158783    -0.044797705087    15.994914619570
         C           -1.500940571350     0.027536541217    -0.346050705087    12.000000000000
         C           -0.172364571350    -0.175331458783     0.312247294913    12.000000000000
         C            2.328945428650    -0.468443458783     0.287361294913    12.000000000000
         C            0.986500428650    -0.287153458783    -0.351013705087    12.000000000000
         C           -2.195506571350     1.288989541217     0.129908294913    12.000000000000
         C            3.253079428650     0.720309541217     0.016355294913    12.000000000000
         H           -1.368405071350     0.065077941217    -1.439434905087     1.007825032230
         H           -0.190044571350    -0.247821458783     1.401171294913     1.007825032230
         H            2.798119428650    -1.383710458783    -0.095430705087     1.007825032230
         H            2.203238428650    -0.604865458783     1.367217294913     1.007825032230
         H            0.975074428650    -0.214428458783    -1.440957705087     1.007825032230
         H           -2.334006571350     1.245821541217     1.213085294913     1.007825032230
         H           -1.600106571350     2.171068541217    -0.118382705087     1.007825032230
         H           -3.177470571350     1.373770541217    -0.341401705087     1.007825032230
         H            2.824756428650     1.638755541217     0.425722294913     1.007825032230
         H            3.397085428650     0.865823541217    -1.058111705087     1.007825032230
         H            4.235992428650     0.567140541217     0.470455294913     1.007825032230
         H           -1.926530571350    -1.874088458783    -0.254105705087     1.007825032230

  Basis Set: AUG-CC-PVTZ
    Blend: AUG-CC-PVTZ
  Basis Set: (AUG-CC-PVTZ AUX)
    Blend: AUG-CC-PVTZ-JKFIT
	 Reference Energy          =    -309.1524664412097536 [Eh]
	 Singles Energy            =      -0.0000000000000000 [Eh]
	 Same-Spin Energy          =      -0.3165246623303810 [Eh]
	 Opposite-Spin Energy      =      -1.1020257172662835 [Eh]
	 Correlation Energy        =      -1.4185503795966645 [Eh]
	 Total Energy              =    -310.5710168208063919 [Eh]

	 ================> DF-SCS-MP2 Energies <==================
	-----------------------------------------------------------
	 SCS Same-Spin Scale       =       0.3333333333333333 [-]
	 SCS Opposite-Spin Scale   =       1.2000000000000000 [-]
	 SCS Same-Spin Energy      =      -0.1055082207767936 [Eh]
	 SCS Opposite-Spin Energy  =      -1.3224308607195401 [Eh]
	 SCS Correlation Energy    =      -1.4279390814963338 [Eh]
	 SCS Total Energy          =    -310.5804055227060871 [Eh]
	-----------------------------------------------------------

  Dipole Moment: [D]
     X:     1.9401      Y:     0.0232      Z:    -0.5049     Total:     2.0049

*** Psi4 exiting successfully. Buy a developer a beer!
