                               Psi4 1.3.2 release

  ==> Input File <==

--------------------------------------------------------------------------
#psi4
#
memory 32 gb

molecule  {
0 1
  O       -2.3916800    -1.0522970    -0.0243250
  C       -1.4895570     0.0267119    -0.3732583
  C       -0.1728060    -0.1763470     0.3083280
  C        2.3285040    -0.4694590     0.2834420
  C        0.9860590    -0.2881690    -0.3549330
  C       -2.1959480     1.2879740     0.1259890
  C        3.2526380     0.7192940     0.0124360
  H       -1.3570540     0.0791090    -1.4412390
  H       -0.1715692    -0.2510829     1.3972430
  H        2.7976780    -1.3847260    -0.0993500
  H        2.2027970    -0.6058810     1.3632980
  H        0.9746330    -0.2154440    -1.4448770
  H       -2.3344480     1.2448060     1.2091660
  H       -1.6005480     2.1700530    -0.1223020
  H       -3.1779120     1.3727550    -0.3453210
  H        2.8243150     1.6377400     0.4218030
  H        3.3966440     0.8648080    -1.0620310
  H        4.2355510     0.5661250     0.4665360
  H       -1.9269720    -1.8751040    -0.2580250
units angstrom
no_reorient  #important for SAPT in psi4, default
symmetry c1  #important for SAPT in psi4, default
}

set PROPERTIES_ORIGIN ["COM"]
properties('MP2/aug-cc-pvtz', properties = ['dipole'])
--------------------------------------------------------------------------

    Molecular point group: c1
  Charge       = 0
  Multiplicity = 1
  Basis Set: AUG-CC-PVTZ
    Blend: AUG-CC-PVTZ
  Basis Set: (AUG-CC-PVTZ AUX)
    Blend: AUG-CC-PVTZ-JKFIT

    Orbital Energies [Eh]
    ---------------------

    Doubly Occupied:

       1A    -20.552540     2A    -11.280730     3A    -11.235638
       4A    -11.230573     5A    -11.226485     6A    -11.219657
       7A    -11.211106     8A     -1.348089     9A     -1.094985
      10A     -1.034216    11A     -0.973461    12A     -0.873292
      13A     -0.808794    14A     -0.761742    15A     -0.690032
      16A     -0.654561    17A     -0.610491    18A     -0.595526
      19A     -0.575375    20A     -0.538692    21A     -0.535688
      22A     -0.525312    23A     -0.521351    24A     -0.509788
      25A     -0.487362    26A     -0.472203    27A     -0.444834
      28A     -0.356259

  @DF-RHF Final Energy:  -309.15088799725783

   => Energetics <=

    Nuclear Repulsion Energy =            298.9804186458890172
    One-Electron Energy =               -1011.5250544545076536
    Two-Electron Energy =                 403.3937478113608108
    Total Energy =                       -309.1508879972578256
  Basis Set: (AUG-CC-PVTZ AUX)
    Blend: AUG-CC-PVTZ-RI
    Molecular point group: c1

    Geometry (in Angstrom), charge = 0, multiplicity = 1:

       Center              X                  Y                   Z               Mass
    ------------   -----------------  -----------------  -----------------  -----------------
         O           -2.393288136383    -1.052297110490    -0.021532814429    15.994914619570
         C           -1.491165136383     0.026711789510    -0.370466114429    12.000000000000
         C           -0.174414136383    -0.176347110490     0.311120185571    12.000000000000
         C            2.326895863617    -0.469459110490     0.286234185571    12.000000000000
         C            0.984450863617    -0.288169110490    -0.352140814429    12.000000000000
         C           -2.197556136383     1.287973889510     0.128781185571    12.000000000000
         C            3.251029863617     0.719293889510     0.015228185571    12.000000000000
         H           -1.358662136383     0.079108889510    -1.438446814429     1.007825032230
         H           -0.173177336383    -0.251083010490     1.400035185571     1.007825032230
         H            2.796069863617    -1.384726110490    -0.096557814429     1.007825032230
         H            2.201188863617    -0.605881110490     1.366090185571     1.007825032230
         H            0.973024863617    -0.215444110490    -1.442084814429     1.007825032230
         H           -2.336056136383     1.244805889510     1.211958185571     1.007825032230
         H           -1.602156136383     2.170052889510    -0.119509814429     1.007825032230
         H           -3.179520136383     1.372754889510    -0.342528814429     1.007825032230
         H            2.822706863617     1.637739889510     0.424595185571     1.007825032230
         H            3.395035863617     0.864807889510    -1.059238814429     1.007825032230
         H            4.233942863617     0.566124889510     0.469328185571     1.007825032230
         H           -1.928580136383    -1.875104110490    -0.255232814429     1.007825032230

  Basis Set: AUG-CC-PVTZ
    Blend: AUG-CC-PVTZ
  Basis Set: (AUG-CC-PVTZ AUX)
    Blend: AUG-CC-PVTZ-JKFIT
	 Reference Energy          =    -309.1508879972578256 [Eh]
	 Singles Energy            =      -0.0000000000000000 [Eh]
	 Same-Spin Energy          =      -0.3167062180035659 [Eh]
	 Opposite-Spin Energy      =      -1.1026302085693886 [Eh]
	 Correlation Energy        =      -1.4193364265729544 [Eh]
	 Total Energy              =    -310.5702244238307799 [Eh]

	 ================> DF-SCS-MP2 Energies <==================
	-----------------------------------------------------------
	 SCS Same-Spin Scale       =       0.3333333333333333 [-]
	 SCS Opposite-Spin Scale   =       1.2000000000000000 [-]
	 SCS Same-Spin Energy      =      -0.1055687393345219 [Eh]
	 SCS Opposite-Spin Energy  =      -1.3231562502832663 [Eh]
	 SCS Correlation Energy    =      -1.4287249896177883 [Eh]
	 SCS Total Energy          =    -310.5796129868755884 [Eh]
	-----------------------------------------------------------

  Dipole Moment: [D]
     X:     1.9453      Y:     0.0232      Z:    -0.5841     Total:     2.0312

*** Psi4 exiting successfully. Buy a developer a beer!
