                               Psi4 1.3.2 release

  ==> Input File <==

--------------------------------------------------------------------------
#psi4
#
memory 32 gb

molecule  {
0 1
  O       -2.3916800    -1.0522970    -0.0243250
  C       -1.5013820     0.0265210    -0.3499700
  C       -0.1728060    -0.1763470     0.3083280
  C        2.3285040    -0.4694590     0.2834420
  C        0.9860590    -0.2881690    -0.3549330
  C       -2.1959480     1.2879740     0.1259890
  C        3.2526380     0.7192940     0.0124360
  H       -1.3570540     0.0791090    -1.4412390
  H       -0.1904860    -0.2488370     1.3972520
  H        2.7976780    -1.3847260    -0.0993500
  H        2.2027970    -0.6058810     1.3632980
  H        0.9746330    -0.2154440    -1.4448770
  H       -2.3344480     1.2448060     1.2091660
  H       -1.6005480     2.1700530    -0.1223020
  H       -3.1779120     1.3727550    -0.3453210
  H        2.8243150     1.6377400     0.4218030
  H        3.3966440     0.8648080    -1.0620310
  H        4.2355510     0.5661250     0.4665360
  H       -1.8792331    -1.9596299    -0.2820327
units angstrom
no_reorient  #important for SAPT in psi4, default
symmetry c1  #important for SAPT in psi4, default
}

set PROPERTIES_ORIGIN ["COM"]
properties('MP2/aug-cc-pvtz', properties = ['dipole'])
--------------------------------------------------------------------------

    Molecular point group: c1
  Charge       = 0
  Multiplicity = 1
  Basis Set: AUG-CC-PVTZ
    Blend: AUG-CC-PVTZ
  Basis Set: (AUG-CC-PVTZ AUX)
    Blend: AUG-CC-PVTZ-JKFIT

    Orbital Energies [Eh]
    ---------------------

    Doubly Occupied:

       1A    -20.561930     2A    -11.280310     3A    -11.235614
       4A    -11.230387     5A    -11.225850     6A    -11.219433
       7A    -11.210673     8A     -1.334756     9A     -1.093408
      10A     -1.032025    11A     -0.973429    12A     -0.872746
      13A     -0.804283    14A     -0.759605    15A     -0.675108
      16A     -0.653390    17A     -0.609116    18A     -0.594081
      19A     -0.575824    20A     -0.538263    21A     -0.535864
      22A     -0.525198    23A     -0.520757    24A     -0.507965
      25A     -0.487016    26A     -0.468027    27A     -0.439094
      28A     -0.356214

  @DF-RHF Final Energy:  -309.13840726488854

   => Energetics <=

    Nuclear Repulsion Energy =            298.6268131614622234
    One-Electron Energy =               -1010.8897110996181254
    Two-Electron Energy =                 403.1244906732673599
    Total Energy =                       -309.1384072648885422
  Basis Set: (AUG-CC-PVTZ AUX)
    Blend: AUG-CC-PVTZ-RI
    Molecular point group: c1

    Geometry (in Angstrom), charge = 0, multiplicity = 1:

       Center              X                  Y                   Z               Mass
    ------------   -----------------  -----------------  -----------------  -----------------
         O           -2.392160614131    -1.051445720216    -0.024083280327    15.994914619570
         C           -1.501862614131     0.027372279784    -0.349728280327    12.000000000000
         C           -0.173286614131    -0.175495720216     0.308569719673    12.000000000000
         C            2.328023385869    -0.468607720216     0.283683719673    12.000000000000
         C            0.985578385869    -0.287317720216    -0.354691280327    12.000000000000
         C           -2.196428614131     1.288825279784     0.126230719673    12.000000000000
         C            3.252157385869     0.720145279784     0.012677719673    12.000000000000
         H           -1.357534614131     0.079960279784    -1.440997280327     1.007825032230
         H           -0.190966614131    -0.247985720216     1.397493719673     1.007825032230
         H            2.797197385869    -1.383874720216    -0.099108280327     1.007825032230
         H            2.202316385869    -0.605029720216     1.363539719673     1.007825032230
         H            0.974152385869    -0.214592720216    -1.444635280327     1.007825032230
         H           -2.334928614131     1.245657279784     1.209407719673     1.007825032230
         H           -1.601028614131     2.170904279784    -0.122060280327     1.007825032230
         H           -3.178392614131     1.373606279784    -0.345079280327     1.007825032230
         H            2.823834385869     1.638591279784     0.422044719673     1.007825032230
         H            3.396163385869     0.865659279784    -1.061789280327     1.007825032230
         H            4.235070385869     0.566976279784     0.466777719673     1.007825032230
         H           -1.879713714131    -1.958778620216    -0.281790980327     1.007825032230

  Basis Set: AUG-CC-PVTZ
    Blend: AUG-CC-PVTZ
  Basis Set: (AUG-CC-PVTZ AUX)
    Blend: AUG-CC-PVTZ-JKFIT
	 Reference Energy          =    -309.1384072648885422 [Eh]
	 Singles Energy            =      -0.0000000000000000 [Eh]
	 Same-Spin Energy          =      -0.3178891813647027 [Eh]
	 Opposite-Spin Energy      =      -1.1057375040502260 [Eh]
	 Correlation Energy        =      -1.4236266854149286 [Eh]
	 Total Energy              =    -310.5620339503034870 [Eh]

	 ================> DF-SCS-MP2 Energies <==================
	-----------------------------------------------------------
	 SCS Same-Spin Scale       =       0.3333333333333333 [-]
	 SCS Opposite-Spin Scale   =       1.2000000000000000 [-]
	 SCS Same-Spin Energy      =      -0.1059630604549009 [Eh]
	 SCS Opposite-Spin Energy  =      -1.3268850048602712 [Eh]
	 SCS Correlation Energy    =      -1.4328480653151721 [Eh]
	 SCS Total Energy          =    -310.5712553302037122 [Eh]
	-----------------------------------------------------------

  Dipole Moment: [D]
     X:     1.9223      Y:    -0.0493      Z:    -0.5633     Total:     2.0037

*** Psi4 exiting successfully. Buy a developer a beer!
