                               Psi4 1.3.2 release

  ==> Input File <==

--------------------------------------------------------------------------
#psi4
#
memory 32 gb

molecule  {
0 1
  O       -2.3916800    -1.0522970    -0.0243250
  C       -1.5013820     0.0265210    -0.3499700
  C       -0.1728060    -0.1763470     0.3083280
  C        2.3285040    -0.4694590     0.2834420
  C        0.9860590    -0.2881690    -0.3549330
  C       -2.1959480     1.2879740     0.1259890
  C        3.2526380     0.7192940     0.0124360
  H       -1.3570540     0.0791090    -1.4412390
  H       -0.1872464    -0.2355541     1.1977199
  H        2.7976780    -1.3847260    -0.0993500
  H        2.2027970    -0.6058810     1.3632980
  H        0.9746330    -0.2154440    -1.4448770
  H       -2.3344480     1.2448060     1.2091660
  H       -1.6005480     2.1700530    -0.1223020
  H       -3.1779120     1.3727550    -0.3453210
  H        2.8243150     1.6377400     0.4218030
  H        3.3966440     0.8648080    -1.0620310
  H        4.2355510     0.5661250     0.4665360
  H       -1.9269720    -1.8751040    -0.2580250
units angstrom
no_reorient  #important for SAPT in psi4, default
symmetry c1  #important for SAPT in psi4, default
}

set PROPERTIES_ORIGIN ["COM"]
properties('MP2/aug-cc-pvtz', properties = ['dipole'])
--------------------------------------------------------------------------

    Molecular point group: c1
  Charge       = 0
  Multiplicity = 1
  Basis Set: AUG-CC-PVTZ
    Blend: AUG-CC-PVTZ
  Basis Set: (AUG-CC-PVTZ AUX)
    Blend: AUG-CC-PVTZ-JKFIT

    Orbital Energies [Eh]
    ---------------------

    Doubly Occupied:

       1A    -20.553334     2A    -11.278955     3A    -11.235089
       4A    -11.230771     5A    -11.219778     6A    -11.210533
       7A    -11.202029     8A     -1.352601     9A     -1.099826
      10A     -1.036874    11A     -0.977848    12A     -0.876945
      13A     -0.808779    14A     -0.789159    15A     -0.694378
      16A     -0.653835    17A     -0.615023    18A     -0.605769
      19A     -0.577849    20A     -0.549884    21A     -0.535995
      22A     -0.527716    23A     -0.523114    24A     -0.511161
      25A     -0.487601    26A     -0.470590    27A     -0.441078
      28A     -0.355846

  @DF-RHF Final Energy:  -309.11777369108029

   => Energetics <=

    Nuclear Repulsion Energy =            300.2197700708244383
    One-Electron Energy =               -1013.8303681996397927
    Two-Electron Energy =                 404.4928244377350666
    Total Energy =                       -309.1177736910802878
  Basis Set: (AUG-CC-PVTZ AUX)
    Blend: AUG-CC-PVTZ-RI
    Molecular point group: c1

    Geometry (in Angstrom), charge = 0, multiplicity = 1:

       Center              X                  Y                   Z               Mass
    ------------   -----------------  -----------------  -----------------  -----------------
         O           -2.391712537006    -1.052430587077    -0.022315871210    15.994914619570
         C           -1.501414537006     0.026387412923    -0.347960871210    12.000000000000
         C           -0.172838537006    -0.176480587077     0.310337128790    12.000000000000
         C            2.328471462994    -0.469592587077     0.285451128790    12.000000000000
         C            0.986026462994    -0.288302587077    -0.352923871210    12.000000000000
         C           -2.195980537006     1.287840412923     0.127998128790    12.000000000000
         C            3.252605462994     0.719160412923     0.014445128790    12.000000000000
         H           -1.357086537006     0.078975412923    -1.439229871210     1.007825032230
         H           -0.187278937006    -0.235687687077     1.199729028790     1.007825032230
         H            2.797645462994    -1.384859587077    -0.097340871210     1.007825032230
         H            2.202764462994    -0.606014587077     1.365307128790     1.007825032230
         H            0.974600462994    -0.215577587077    -1.442867871210     1.007825032230
         H           -2.334480537006     1.244672412923     1.211175128790     1.007825032230
         H           -1.600580537006     2.169919412923    -0.120292871210     1.007825032230
         H           -3.177944537006     1.372621412923    -0.343311871210     1.007825032230
         H            2.824282462994     1.637606412923     0.423812128790     1.007825032230
         H            3.396611462994     0.864674412923    -1.060021871210     1.007825032230
         H            4.235518462994     0.565991412923     0.468545128790     1.007825032230
         H           -1.927004537006    -1.875237587077    -0.256015871210     1.007825032230

  Basis Set: AUG-CC-PVTZ
    Blend: AUG-CC-PVTZ
  Basis Set: (AUG-CC-PVTZ AUX)
    Blend: AUG-CC-PVTZ-JKFIT
	 Reference Energy          =    -309.1177736910802878 [Eh]
	 Singles Energy            =      -0.0000000000000000 [Eh]
	 Same-Spin Energy          =      -0.3164585556473800 [Eh]
	 Opposite-Spin Energy      =      -1.1019086553166619 [Eh]
	 Correlation Energy        =      -1.4183672109640419 [Eh]
	 Total Energy              =    -310.5361409020443375 [Eh]

	 ================> DF-SCS-MP2 Energies <==================
	-----------------------------------------------------------
	 SCS Same-Spin Scale       =       0.3333333333333333 [-]
	 SCS Opposite-Spin Scale   =       1.2000000000000000 [-]
	 SCS Same-Spin Energy      =      -0.1054861852157933 [Eh]
	 SCS Opposite-Spin Energy  =      -1.3222903863799942 [Eh]
	 SCS Correlation Energy    =      -1.4277765715957875 [Eh]
	 SCS Total Energy          =    -310.5455502626761017 [Eh]
	-----------------------------------------------------------

  Dipole Moment: [D]
     X:     1.9391      Y:     0.0019      Z:    -0.4990     Total:     2.0023

*** Psi4 exiting successfully. Buy a developer a beer!
