                               Psi4 1.3.2 release

  ==> Input File <==

--------------------------------------------------------------------------
#psi4
#
memory 32 gb

molecule  {
0 1
  O       -2.3916800    -1.0522970    -0.0243250
  C       -1.6253661    -0.1237166    -0.3046202
  C       -0.1728060    -0.1763470     0.3083280
  C        2.3285040    -0.4694590     0.2834420
  C        0.9860590    -0.2881690    -0.3549330
  C       -2.1959480     1.2879740     0.1259890
  C        3.2526380     0.7192940     0.0124360
  H       -1.3570540     0.0791090    -1.4412390
  H       -0.1904860    -0.2488370     1.3972520
  H        2.7976780    -1.3847260    -0.0993500
  H        2.2027970    -0.6058810     1.3632980
  H        0.9746330    -0.2154440    -1.4448770
  H       -2.3344480     1.2448060     1.2091660
  H       -1.6005480     2.1700530    -0.1223020
  H       -3.1779120     1.3727550    -0.3453210
  H        2.8243150     1.6377400     0.4218030
  H        3.3966440     0.8648080    -1.0620310
  H        4.2355510     0.5661250     0.4665360
  H       -1.9269720    -1.8751040    -0.2580250
units angstrom
no_reorient  #important for SAPT in psi4, default
symmetry c1  #important for SAPT in psi4, default
}

set PROPERTIES_ORIGIN ["COM"]
properties('MP2/aug-cc-pvtz', properties = ['dipole'])
--------------------------------------------------------------------------

    Molecular point group: c1
  Charge       = 0
  Multiplicity = 1
  Basis Set: AUG-CC-PVTZ
    Blend: AUG-CC-PVTZ
  Basis Set: (AUG-CC-PVTZ AUX)
    Blend: AUG-CC-PVTZ-JKFIT

    Orbital Energies [Eh]
    ---------------------

    Doubly Occupied:

       1A    -20.579555     2A    -11.290495     3A    -11.230378
       4A    -11.227181     5A    -11.221721     6A    -11.215953
       7A    -11.208513     8A     -1.457045     9A     -1.084219
      10A     -1.017006    11A     -0.966182    12A     -0.864415
      13A     -0.822211    14A     -0.763922    15A     -0.729978
      16A     -0.661513    17A     -0.631808    18A     -0.606025
      19A     -0.596523    20A     -0.541195    21A     -0.538674
      22A     -0.531178    23A     -0.526837    24A     -0.505336
      25A     -0.483070    26A     -0.439869    27A     -0.400521
      28A     -0.349812

  @DF-RHF Final Energy:  -309.11018747437294

   => Energetics <=

    Nuclear Repulsion Energy =            299.9847891500548940
    One-Electron Energy =               -1013.2076906366143021
    Two-Electron Energy =                 404.1127140121864727
    Total Energy =                       -309.1101874743729354
  Basis Set: (AUG-CC-PVTZ AUX)
    Blend: AUG-CC-PVTZ-RI
    Molecular point group: c1

    Geometry (in Angstrom), charge = 0, multiplicity = 1:

       Center              X                  Y                   Z               Mass
    ------------   -----------------  -----------------  -----------------  -----------------
         O           -2.376815026731    -1.034284323291    -0.029762168232    15.994914619570
         C           -1.610501126731    -0.105703923291    -0.310057368232    12.000000000000
         C           -0.157941026731    -0.158334323291     0.302890831768    12.000000000000
         C            2.343368973269    -0.451446323291     0.278004831768    12.000000000000
         C            1.000923973269    -0.270156323291    -0.360370168232    12.000000000000
         C           -2.181083026731     1.305986676709     0.120551831768    12.000000000000
         C            3.267502973269     0.737306676709     0.006998831768    12.000000000000
         H           -1.342189026731     0.097121676709    -1.446676168232     1.007825032230
         H           -0.175621026731    -0.230824323291     1.391814831768     1.007825032230
         H            2.812542973269    -1.366713323291    -0.104787168232     1.007825032230
         H            2.217661973269    -0.587868323291     1.357860831768     1.007825032230
         H            0.989497973269    -0.197431323291    -1.450314168232     1.007825032230
         H           -2.319583026731     1.262818676709     1.203728831768     1.007825032230
         H           -1.585683026731     2.188065676709    -0.127739168232     1.007825032230
         H           -3.163047026731     1.390767676709    -0.350758168232     1.007825032230
         H            2.839179973269     1.655752676709     0.416365831768     1.007825032230
         H            3.411508973269     0.882820676709    -1.067468168232     1.007825032230
         H            4.250415973269     0.584137676709     0.461098831768     1.007825032230
         H           -1.912107026731    -1.857091323291    -0.263462168232     1.007825032230

  Basis Set: AUG-CC-PVTZ
    Blend: AUG-CC-PVTZ
  Basis Set: (AUG-CC-PVTZ AUX)
    Blend: AUG-CC-PVTZ-JKFIT
	 Reference Energy          =    -309.1101874743729354 [Eh]
	 Singles Energy            =      -0.0000000000000000 [Eh]
	 Same-Spin Energy          =      -0.3170233940503399 [Eh]
	 Opposite-Spin Energy      =      -1.1012606135488014 [Eh]
	 Correlation Energy        =      -1.4182840075991412 [Eh]
	 Total Energy              =    -310.5284714819720762 [Eh]

	 ================> DF-SCS-MP2 Energies <==================
	-----------------------------------------------------------
	 SCS Same-Spin Scale       =       0.3333333333333333 [-]
	 SCS Opposite-Spin Scale   =       1.2000000000000000 [-]
	 SCS Same-Spin Energy      =      -0.1056744646834466 [Eh]
	 SCS Opposite-Spin Energy  =      -1.3215127362585617 [Eh]
	 SCS Correlation Energy    =      -1.4271872009420083 [Eh]
	 SCS Total Energy          =    -310.5373746753149362 [Eh]
	-----------------------------------------------------------

  Dipole Moment: [D]
     X:     1.2893      Y:    -0.7061      Z:    -0.3649     Total:     1.5146

*** Psi4 exiting successfully. Buy a developer a beer!
