                               Psi4 1.4a3.dev225

  ==> Input File <==

--------------------------------------------------------------------------
#psi4
#
memory 32 gb

molecule  {
0 1
  O        2.4733480    -1.0180220    -0.0592030
  C        1.5612870     0.0272190     0.3186860
  C        0.2241640    -0.1896060    -0.3216700
  C       -2.2699720    -0.5538550    -0.2568310
  C       -0.9183080    -0.3574540     0.3612590
  C        2.2155680     1.3228410    -0.1266610
  C       -3.2245640     0.5955150     0.0801580
  H        1.4340271     0.0401189     1.4336587
  H        0.2208170    -0.2229080    -1.4128920
  H       -2.7032570    -1.4976940     0.0989920
  H       -2.1635450    -0.6441890    -1.3439560
  H       -0.8861850    -0.3229140     1.4529890
  H        2.3348110     1.3198720    -1.2134080
  H        1.6025990     2.1805020     0.1626330
  H        3.2041590     1.4168830     0.3297970
  H       -2.8327200     1.5423190    -0.3012060
  H       -3.3500700     0.6943310     1.1626160
  H       -4.2121190     0.4296020    -0.3601990
  H        2.0333780    -1.8594800     0.1548220
units angstrom
no_reorient  #important for SAPT in psi4, default
symmetry c1  #important for SAPT in psi4, default
}

set PROPERTIES_ORIGIN ["COM"]
properties('MP2/aug-cc-pvtz', properties = ['dipole'])
--------------------------------------------------------------------------

    Molecular point group: c1
  Charge       = 0
  Multiplicity = 1
  Basis Set: AUG-CC-PVTZ
    Blend: AUG-CC-PVTZ
  Basis Set: (AUG-CC-PVTZ AUX)
    Blend: AUG-CC-PVTZ-JKFIT

    Orbital Energies [Eh]
    ---------------------

    Doubly Occupied:

       1A    -20.554033     2A    -11.284198     3A    -11.236820
       4A    -11.231129     5A    -11.227049     6A    -11.220013
       7A    -11.211323     8A     -1.352467     9A     -1.093808
      10A     -1.034088    11A     -0.974334    12A     -0.873017
      13A     -0.806306    14A     -0.759692    15A     -0.691864
      16A     -0.652801    17A     -0.610373    18A     -0.594210
      19A     -0.578169    20A     -0.538844    21A     -0.536047
      22A     -0.527805    23A     -0.521544    24A     -0.510287
      25A     -0.487529    26A     -0.470576    27A     -0.439874
      28A     -0.356575

  @DF-RHF Final Energy:  -309.15105081650216

   => Energetics <=

    Nuclear Repulsion Energy =            298.7365707444233749
    One-Electron Energy =               -1011.0256956443324725
    Two-Electron Energy =                 403.1380740834069343
    Total Energy =                       -309.1510508165021633
  Basis Set: (AUG-CC-PVTZ AUX)
    Blend: AUG-CC-PVTZ-RI
    Molecular point group: c1

    Geometry (in Angstrom), charge = 0, multiplicity = 1:

       Center              X                  Y                   Z               Mass
    ------------   -----------------  -----------------  -----------------  -----------------
         O            2.420800961233    -0.987581647541    -0.057978826005    15.994914619570
         C            1.508739961233     0.057659352459     0.319910173995    12.000000000000
         C            0.171616961233    -0.159165647541    -0.320445826005    12.000000000000
         C           -2.322519038767    -0.523414647541    -0.255606826005    12.000000000000
         C           -0.970855038767    -0.327013647541     0.362483173995    12.000000000000
         C            2.163020961233     1.353281352459    -0.125436826005    12.000000000000
         C           -3.277111038767     0.625955352459     0.081382173995    12.000000000000
         H            1.381480061233     0.070559252459     1.434882873995     1.007825032230
         H            0.168269961233    -0.192467647541    -1.411667826005     1.007825032230
         H           -2.755804038767    -1.467253647541     0.100216173995     1.007825032230
         H           -2.216092038767    -0.613748647541    -1.342731826005     1.007825032230
         H           -0.938732038767    -0.292473647541     1.454213173995     1.007825032230
         H            2.282263961233     1.350312352459    -1.212183826005     1.007825032230
         H            1.550051961233     2.210942352459     0.163857173995     1.007825032230
         H            3.151611961233     1.447323352459     0.331021173995     1.007825032230
         H           -2.885267038767     1.572759352459    -0.299981826005     1.007825032230
         H           -3.402617038767     0.724771352459     1.163840173995     1.007825032230
         H           -4.264666038767     0.460042352459    -0.358974826005     1.007825032230
         H            1.980830961233    -1.829039647541     0.156046173995     1.007825032230

  Basis Set: AUG-CC-PVTZ
    Blend: AUG-CC-PVTZ
  Basis Set: (AUG-CC-PVTZ AUX)
    Blend: AUG-CC-PVTZ-JKFIT
	 Reference Energy          =    -309.1510508165021633 [Eh]
	 Singles Energy            =      -0.0000000000000000 [Eh]
	 Same-Spin Energy          =      -0.3166996667385711 [Eh]
	 Opposite-Spin Energy      =      -1.1026863241441907 [Eh]
	 Correlation Energy        =      -1.4193859908827617 [Eh]
	 Total Energy              =    -310.5704368073849082 [Eh]

	 ================> DF-SCS-MP2 Energies <==================
	-----------------------------------------------------------
	 SCS Same-Spin Scale       =       0.3333333333333333 [-]
	 SCS Opposite-Spin Scale   =       1.2000000000000000 [-]
	 SCS Same-Spin Energy      =      -0.1055665555795237 [Eh]
	 SCS Opposite-Spin Energy  =      -1.3232235889730288 [Eh]
	 SCS Correlation Energy    =      -1.4287901445525526 [Eh]
	 SCS Total Energy          =    -310.5798409610547424 [Eh]
	-----------------------------------------------------------

  Dipole Moment: [D]
     X:    -1.9050      Y:    -0.0605      Z:     0.5719     Total:     1.9899

*** Psi4 exiting successfully. Buy a developer a beer!
