                               Psi4 1.4a3.dev225

  ==> Input File <==

--------------------------------------------------------------------------
#psi4
#
memory 32 gb

molecule  {
0 1
  O        2.4733480    -1.0180220    -0.0592030
  C        1.5485998     0.0417587     0.3239426
  C        0.2241640    -0.1896060    -0.3216700
  C       -2.2699720    -0.5538550    -0.2568310
  C       -0.9183080    -0.3574540     0.3612590
  C        2.2155680     1.3228410    -0.1266610
  C       -3.2245640     0.5955150     0.0801580
  H        1.4362950     0.0398890     1.4137890
  H        0.2208170    -0.2229080    -1.4128920
  H       -2.7032570    -1.4976940     0.0989920
  H       -2.1635450    -0.6441890    -1.3439560
  H       -0.8861850    -0.3229140     1.4529890
  H        2.3348110     1.3198720    -1.2134080
  H        1.6025990     2.1805020     0.1626330
  H        3.2041590     1.4168830     0.3297970
  H       -2.8327200     1.5423190    -0.3012060
  H       -3.3500700     0.6943310     1.1626160
  H       -4.2121190     0.4296020    -0.3601990
  H        2.0333780    -1.8594800     0.1548220
units angstrom
no_reorient  #important for SAPT in psi4, default
symmetry c1  #important for SAPT in psi4, default
}

set PROPERTIES_ORIGIN ["COM"]
properties('MP2/aug-cc-pvtz', properties = ['dipole'])
--------------------------------------------------------------------------

    Molecular point group: c1
  Charge       = 0
  Multiplicity = 1
  Basis Set: AUG-CC-PVTZ
    Blend: AUG-CC-PVTZ
  Basis Set: (AUG-CC-PVTZ AUX)
    Blend: AUG-CC-PVTZ-JKFIT

    Orbital Energies [Eh]
    ---------------------

    Doubly Occupied:

       1A    -20.551131     2A    -11.281557     3A    -11.237346
       4A    -11.231439     5A    -11.227300     6A    -11.220356
       7A    -11.211447     8A     -1.344364     9A     -1.095071
      10A     -1.036083    11A     -0.975261    12A     -0.874071
      13A     -0.807259    14A     -0.761321    15A     -0.687904
      16A     -0.654072    17A     -0.610725    18A     -0.594883
      19A     -0.574994    20A     -0.539490    21A     -0.536378
      22A     -0.525894    23A     -0.520270    24A     -0.510290
      25A     -0.487941    26A     -0.472765    27A     -0.443248
      28A     -0.356832

  @DF-RHF Final Energy:  -309.15092439755847

   => Energetics <=

    Nuclear Repulsion Energy =            298.7735642871663799
    One-Electron Energy =               -1011.1095894106493915
    Two-Electron Energy =                 403.1851007259245989
    Total Energy =                       -309.1509243975584695
  Basis Set: (AUG-CC-PVTZ AUX)
    Blend: AUG-CC-PVTZ-RI
    Molecular point group: c1

    Geometry (in Angstrom), charge = 0, multiplicity = 1:

       Center              X                  Y                   Z               Mass
    ------------   -----------------  -----------------  -----------------  -----------------
         O            2.422299238075    -0.989322548370    -0.058408984150    15.994914619570
         C            1.497551038075     0.070458151630     0.324736615850    12.000000000000
         C            0.173115238075    -0.160906548370    -0.320875984150    12.000000000000
         C           -2.321020761925    -0.525155548370    -0.256036984150    12.000000000000
         C           -0.969356761925    -0.328754548370     0.362053015850    12.000000000000
         C            2.164519238075     1.351540451630    -0.125866984150    12.000000000000
         C           -3.275612761925     0.624214451630     0.080952015850    12.000000000000
         H            1.385246238075     0.068588451630     1.414583015850     1.007825032230
         H            0.169768238075    -0.194208548370    -1.412097984150     1.007825032230
         H           -2.754305761925    -1.468994548370     0.099786015850     1.007825032230
         H           -2.214593761925    -0.615489548370    -1.343161984150     1.007825032230
         H           -0.937233761925    -0.294214548370     1.453783015850     1.007825032230
         H            2.283762238075     1.348571451630    -1.212613984150     1.007825032230
         H            1.551550238075     2.209201451630     0.163427015850     1.007825032230
         H            3.153110238075     1.445582451630     0.330591015850     1.007825032230
         H           -2.883768761925     1.571018451630    -0.300411984150     1.007825032230
         H           -3.401118761925     0.723030451630     1.163410015850     1.007825032230
         H           -4.263167761925     0.458301451630    -0.359404984150     1.007825032230
         H            1.982329238075    -1.830780548370     0.155616015850     1.007825032230

  Basis Set: AUG-CC-PVTZ
    Blend: AUG-CC-PVTZ
  Basis Set: (AUG-CC-PVTZ AUX)
    Blend: AUG-CC-PVTZ-JKFIT
	 Reference Energy          =    -309.1509243975584695 [Eh]
	 Singles Energy            =      -0.0000000000000000 [Eh]
	 Same-Spin Energy          =      -0.3167899246224878 [Eh]
	 Opposite-Spin Energy      =      -1.1028894885004648 [Eh]
	 Correlation Energy        =      -1.4196794131229526 [Eh]
	 Total Energy              =    -310.5706038106814049 [Eh]

	 ================> DF-SCS-MP2 Energies <==================
	-----------------------------------------------------------
	 SCS Same-Spin Scale       =       0.3333333333333333 [-]
	 SCS Opposite-Spin Scale   =       1.2000000000000000 [-]
	 SCS Same-Spin Energy      =      -0.1055966415408293 [Eh]
	 SCS Opposite-Spin Energy  =      -1.3234673862005577 [Eh]
	 SCS Correlation Energy    =      -1.4290640277413869 [Eh]
	 SCS Total Energy          =    -310.5799884252998595 [Eh]
	-----------------------------------------------------------

  Dipole Moment: [D]
     X:    -1.9634      Y:     0.0018      Z:     0.6021     Total:     2.0536

*** Psi4 exiting successfully. Buy a developer a beer!
