                               Psi4 1.3.2 release

  ==> Input File <==

--------------------------------------------------------------------------
#psi4
#
memory 32 gb

molecule  {
0 1
  O       -2.3916800    -1.0522970    -0.0243250
  C       -1.4844239     0.0098461    -0.3578843
  C       -0.1728060    -0.1763470     0.3083280
  C        2.3285040    -0.4694590     0.2834420
  C        0.9860590    -0.2881690    -0.3549330
  C       -2.1959480     1.2879740     0.1259890
  C        3.2526380     0.7192940     0.0124360
  H       -1.3570540     0.0791090    -1.4412390
  H       -0.1904860    -0.2488370     1.3972520
  H        2.7976780    -1.3847260    -0.0993500
  H        2.2027970    -0.6058810     1.3632980
  H        0.9746330    -0.2154440    -1.4448770
  H       -2.3344480     1.2448060     1.2091660
  H       -1.6005480     2.1700530    -0.1223020
  H       -3.1779120     1.3727550    -0.3453210
  H        2.8243150     1.6377400     0.4218030
  H        3.3966440     0.8648080    -1.0620310
  H        4.2355510     0.5661250     0.4665360
  H       -1.9136494    -1.8659291    -0.2632184
units angstrom
no_reorient  #important for SAPT in psi4, default
symmetry c1  #important for SAPT in psi4, default
}

set PROPERTIES_ORIGIN ["COM"]
properties('MP2/aug-cc-pvtz', properties = ['dipole'])
--------------------------------------------------------------------------

    Molecular point group: c1
  Charge       = 0
  Multiplicity = 1
  Basis Set: AUG-CC-PVTZ
    Blend: AUG-CC-PVTZ
  Basis Set: (AUG-CC-PVTZ AUX)
    Blend: AUG-CC-PVTZ-JKFIT

    Orbital Energies [Eh]
    ---------------------

    Doubly Occupied:

       1A    -20.554608     2A    -11.280274     3A    -11.236771
       4A    -11.230947     5A    -11.226135     6A    -11.219873
       7A    -11.210843     8A     -1.354125     9A     -1.095784
      10A     -1.033793    11A     -0.972009    12A     -0.874453
      13A     -0.807981    14A     -0.762013    15A     -0.691867
      16A     -0.655376    17A     -0.610988    18A     -0.595132
      19A     -0.578507    20A     -0.539053    21A     -0.536080
      22A     -0.525881    23A     -0.521973    24A     -0.509301
      25A     -0.487602    26A     -0.469834    27A     -0.444716
      28A     -0.356592

  @DF-RHF Final Energy:  -309.15078406371123

   => Energetics <=

    Nuclear Repulsion Energy =            299.2038004488469483
    One-Electron Energy =               -1011.9441467009349935
    Two-Electron Energy =                 403.5895621883768740
    Total Energy =                       -309.1507840637112281
  Basis Set: (AUG-CC-PVTZ AUX)
    Blend: AUG-CC-PVTZ-RI
    Molecular point group: c1

    Geometry (in Angstrom), charge = 0, multiplicity = 1:

       Center              X                  Y                   Z               Mass
    ------------   -----------------  -----------------  -----------------  -----------------
         O           -2.393847232074    -1.050390009963    -0.023323854036    15.994914619570
         C           -1.486591132074     0.011753090037    -0.356883154036    12.000000000000
         C           -0.174973232074    -0.174440009963     0.309329145964    12.000000000000
         C            2.326336767926    -0.467552009963     0.284443145964    12.000000000000
         C            0.983891767926    -0.286262009963    -0.353931854036    12.000000000000
         C           -2.198115232074     1.289880990037     0.126990145964    12.000000000000
         C            3.250470767926     0.721200990037     0.013437145964    12.000000000000
         H           -1.359221232074     0.081015990037    -1.440237854036     1.007825032230
         H           -0.192653232074    -0.246930009963     1.398253145964     1.007825032230
         H            2.795510767926    -1.382819009963    -0.098348854036     1.007825032230
         H            2.200629767926    -0.603974009963     1.364299145964     1.007825032230
         H            0.972465767926    -0.213537009963    -1.443875854036     1.007825032230
         H           -2.336615232074     1.246712990037     1.210167145964     1.007825032230
         H           -1.602715232074     2.171959990037    -0.121300854036     1.007825032230
         H           -3.180079232074     1.374661990037    -0.344319854036     1.007825032230
         H            2.822147767926     1.639646990037     0.422804145964     1.007825032230
         H            3.394476767926     0.866714990037    -1.061029854036     1.007825032230
         H            4.233383767926     0.568031990037     0.467537145964     1.007825032230
         H           -1.915816632074    -1.864022109963    -0.262217254036     1.007825032230

  Basis Set: AUG-CC-PVTZ
    Blend: AUG-CC-PVTZ
  Basis Set: (AUG-CC-PVTZ AUX)
    Blend: AUG-CC-PVTZ-JKFIT
	 Reference Energy          =    -309.1507840637112281 [Eh]
	 Singles Energy            =      -0.0000000000000000 [Eh]
	 Same-Spin Energy          =      -0.3168168951353533 [Eh]
	 Opposite-Spin Energy      =      -1.1026586655008184 [Eh]
	 Correlation Energy        =      -1.4194755606361718 [Eh]
	 Total Energy              =    -310.5702596243473863 [Eh]

	 ================> DF-SCS-MP2 Energies <==================
	-----------------------------------------------------------
	 SCS Same-Spin Scale       =       0.3333333333333333 [-]
	 SCS Opposite-Spin Scale   =       1.2000000000000000 [-]
	 SCS Same-Spin Energy      =      -0.1056056317117844 [Eh]
	 SCS Opposite-Spin Energy  =      -1.3231903986009821 [Eh]
	 SCS Correlation Energy    =      -1.4287960303127665 [Eh]
	 SCS Total Energy          =    -310.5795800940239815 [Eh]
	-----------------------------------------------------------

  Dipole Moment: [D]
     X:     1.9649      Y:    -0.0157      Z:    -0.5666     Total:     2.0451

*** Psi4 exiting successfully. Buy a developer a beer!
