                               Psi4 1.3.2 release

  ==> Input File <==

--------------------------------------------------------------------------
#psi4
#
memory 32 gb

molecule  {
0 1
  O       -2.3916800    -1.0522970    -0.0243250
  C       -1.5013820     0.0265210    -0.3499700
  C       -0.1612121    -0.1784530     0.3285280
  C        2.3171264    -0.4689871     0.3069671
  C        0.9860590    -0.2881690    -0.3549330
  C       -2.1959480     1.2879740     0.1259890
  C        3.2526380     0.7192940     0.0124360
  H       -1.3570540     0.0791090    -1.4412390
  H       -0.1904860    -0.2488370     1.3972520
  H        2.7976780    -1.3847260    -0.0993500
  H        2.2027970    -0.6058810     1.3632980
  H        0.9746330    -0.2154440    -1.4448770
  H       -2.3344480     1.2448060     1.2091660
  H       -1.6005480     2.1700530    -0.1223020
  H       -3.1779120     1.3727550    -0.3453210
  H        2.8243150     1.6377400     0.4218030
  H        3.3966440     0.8648080    -1.0620310
  H        4.2355510     0.5661250     0.4665360
  H       -1.9269720    -1.8751040    -0.2580250
units angstrom
no_reorient  #important for SAPT in psi4, default
symmetry c1  #important for SAPT in psi4, default
}

set PROPERTIES_ORIGIN ["COM"]
properties('MP2/aug-cc-pvtz', properties = ['dipole'])
--------------------------------------------------------------------------

    Molecular point group: c1
  Charge       = 0
  Multiplicity = 1
  Basis Set: AUG-CC-PVTZ
    Blend: AUG-CC-PVTZ
  Basis Set: (AUG-CC-PVTZ AUX)
    Blend: AUG-CC-PVTZ-JKFIT

    Orbital Energies [Eh]
    ---------------------

    Doubly Occupied:

       1A    -20.553217     2A    -11.281674     3A    -11.236028
       4A    -11.229518     5A    -11.224935     6A    -11.219634
       7A    -11.210282     8A     -1.352140     9A     -1.093818
      10A     -1.032164    11A     -0.973724    12A     -0.871588
      13A     -0.806273    14A     -0.764555    15A     -0.691713
      16A     -0.653845    17A     -0.607964    18A     -0.596949
      19A     -0.577140    20A     -0.542584    21A     -0.533674
      22A     -0.527143    23A     -0.521000    24A     -0.509198
      25A     -0.493618    26A     -0.469018    27A     -0.438193
      28A     -0.355766

  @DF-RHF Final Energy:  -309.15087745235246

   => Energetics <=

    Nuclear Repulsion Energy =            298.9617086683589946
    One-Electron Energy =               -1011.4904687597124848
    Two-Electron Energy =                 403.3778826390009726
    Total Energy =                       -309.1508774523524608
  Basis Set: (AUG-CC-PVTZ AUX)
    Blend: AUG-CC-PVTZ-RI
    Molecular point group: c1

    Geometry (in Angstrom), charge = 0, multiplicity = 1:

       Center              X                  Y                   Z               Mass
    ------------   -----------------  -----------------  -----------------  -----------------
         O           -2.391705849446    -1.052100919480    -0.029567377236    15.994914619570
         C           -1.501407849446     0.026717080520    -0.355212377236    12.000000000000
         C           -0.161237949446    -0.178256919480     0.323285622764    12.000000000000
         C            2.317100550554    -0.468791019480     0.301724722764    12.000000000000
         C            0.986033150554    -0.287972919480    -0.360175377236    12.000000000000
         C           -2.195973849446     1.288170080520     0.120746622764    12.000000000000
         C            3.252612150554     0.719490080520     0.007193622764    12.000000000000
         H           -1.357079849446     0.079305080520    -1.446481377236     1.007825032230
         H           -0.190511849446    -0.248640919480     1.392009622764     1.007825032230
         H            2.797652150554    -1.384529919480    -0.104592377236     1.007825032230
         H            2.202771150554    -0.605684919480     1.358055622764     1.007825032230
         H            0.974607150554    -0.215247919480    -1.450119377236     1.007825032230
         H           -2.334473849446     1.245002080520     1.203923622764     1.007825032230
         H           -1.600573849446     2.170249080520    -0.127544377236     1.007825032230
         H           -3.177937849446     1.372951080520    -0.350563377236     1.007825032230
         H            2.824289150554     1.637936080520     0.416560622764     1.007825032230
         H            3.396618150554     0.865004080520    -1.067273377236     1.007825032230
         H            4.235525150554     0.566321080520     0.461293622764     1.007825032230
         H           -1.926997849446    -1.874907919480    -0.263267377236     1.007825032230

  Basis Set: AUG-CC-PVTZ
    Blend: AUG-CC-PVTZ
  Basis Set: (AUG-CC-PVTZ AUX)
    Blend: AUG-CC-PVTZ-JKFIT
	 Reference Energy          =    -309.1508774523524608 [Eh]
	 Singles Energy            =      -0.0000000000000000 [Eh]
	 Same-Spin Energy          =      -0.3164989970369131 [Eh]
	 Opposite-Spin Energy      =      -1.1022130999252546 [Eh]
	 Correlation Energy        =      -1.4187120969621678 [Eh]
	 Total Energy              =    -310.5695895493146281 [Eh]

	 ================> DF-SCS-MP2 Energies <==================
	-----------------------------------------------------------
	 SCS Same-Spin Scale       =       0.3333333333333333 [-]
	 SCS Opposite-Spin Scale   =       1.2000000000000000 [-]
	 SCS Same-Spin Energy      =      -0.1054996656789710 [Eh]
	 SCS Opposite-Spin Energy  =      -1.3226557199103055 [Eh]
	 SCS Correlation Energy    =      -1.4281553855892766 [Eh]
	 SCS Total Energy          =    -310.5790328379417247 [Eh]
	-----------------------------------------------------------

  Dipole Moment: [D]
     X:     1.9065      Y:     0.0023      Z:    -0.5409     Total:     1.9818

*** Psi4 exiting successfully. Buy a developer a beer!
