                               Psi4 1.3.2 release

  ==> Input File <==

--------------------------------------------------------------------------
#psi4
#
memory 32 gb

molecule  {
0 1
  O       -2.3905689    -1.0494708    -0.0121658
  C       -1.5013820     0.0265210    -0.3499700
  C       -0.1728060    -0.1763470     0.3083280
  C        2.3285040    -0.4694590     0.2834420
  C        0.9860590    -0.2881690    -0.3549330
  C       -2.1959480     1.2879740     0.1259890
  C        3.2526380     0.7192940     0.0124360
  H       -1.3511740     0.0866266    -1.4400567
  H       -0.1904860    -0.2488370     1.3972520
  H        2.7976780    -1.3847260    -0.0993500
  H        2.2027970    -0.6058810     1.3632980
  H        0.9746330    -0.2154440    -1.4448770
  H       -2.3344480     1.2448060     1.2091660
  H       -1.6005480     2.1700530    -0.1223020
  H       -3.1779120     1.3727550    -0.3453210
  H        2.8243150     1.6377400     0.4218030
  H        3.3966440     0.8648080    -1.0620310
  H        4.2355510     0.5661250     0.4665360
  H       -1.9269720    -1.8751040    -0.2580250
units angstrom
no_reorient  #important for SAPT in psi4, default
symmetry c1  #important for SAPT in psi4, default
}

set PROPERTIES_ORIGIN ["COM"]
properties('MP2/aug-cc-pvtz', properties = ['dipole'])
--------------------------------------------------------------------------

    Molecular point group: c1
  Charge       = 0
  Multiplicity = 1
  Basis Set: AUG-CC-PVTZ
    Blend: AUG-CC-PVTZ
  Basis Set: (AUG-CC-PVTZ AUX)
    Blend: AUG-CC-PVTZ-JKFIT

    Orbital Energies [Eh]
    ---------------------

    Doubly Occupied:

       1A    -20.554675     2A    -11.281175     3A    -11.235950
       4A    -11.230512     5A    -11.226049     6A    -11.219541
       7A    -11.210523     8A     -1.352352     9A     -1.094478
      10A     -1.034831    11A     -0.974540    12A     -0.873230
      13A     -0.807096    14A     -0.760483    15A     -0.692704
      16A     -0.653978    17A     -0.610630    18A     -0.594484
      19A     -0.578494    20A     -0.538655    21A     -0.536082
      22A     -0.527548    23A     -0.521297    24A     -0.509919
      25A     -0.487250    26A     -0.471877    27A     -0.440979
      28A     -0.356499

  @DF-RHF Final Energy:  -309.15134673818045

   => Energetics <=

    Nuclear Repulsion Energy =            299.1718356828708352
    One-Electron Energy =               -1011.8947053316842357
    Two-Electron Energy =                 403.5715229106330071
    Total Energy =                       -309.1513467381804503
  Basis Set: (AUG-CC-PVTZ AUX)
    Blend: AUG-CC-PVTZ-RI
    Molecular point group: c1

    Geometry (in Angstrom), charge = 0, multiplicity = 1:

       Center              X                  Y                   Z               Mass
    ------------   -----------------  -----------------  -----------------  -----------------
         O           -2.390805585799    -1.049997981646    -0.014120854046    15.994914619570
         C           -1.501618685799     0.025993818354    -0.351925054046    12.000000000000
         C           -0.173042685799    -0.176874181646     0.306372945954    12.000000000000
         C            2.328267314201    -0.469986181646     0.281486945954    12.000000000000
         C            0.985822314201    -0.288696181646    -0.356888054046    12.000000000000
         C           -2.196184685799     1.287446818354     0.124033945954    12.000000000000
         C            3.252401314201     0.718766818354     0.010480945954    12.000000000000
         H           -1.351410685799     0.086099418354    -1.442011754046     1.007825032230
         H           -0.190722685799    -0.249364181646     1.395296945954     1.007825032230
         H            2.797441314201    -1.385253181646    -0.101305054046     1.007825032230
         H            2.202560314201    -0.606408181646     1.361342945954     1.007825032230
         H            0.974396314201    -0.215971181646    -1.446832054046     1.007825032230
         H           -2.334684685799     1.244278818354     1.207210945954     1.007825032230
         H           -1.600784685799     2.169525818354    -0.124257054046     1.007825032230
         H           -3.178148685799     1.372227818354    -0.347276054046     1.007825032230
         H            2.824078314201     1.637212818354     0.419847945954     1.007825032230
         H            3.396407314201     0.864280818354    -1.063986054046     1.007825032230
         H            4.235314314201     0.565597818354     0.464580945954     1.007825032230
         H           -1.927208685799    -1.875631181646    -0.259980054046     1.007825032230

  Basis Set: AUG-CC-PVTZ
    Blend: AUG-CC-PVTZ
  Basis Set: (AUG-CC-PVTZ AUX)
    Blend: AUG-CC-PVTZ-JKFIT
	 Reference Energy          =    -309.1513467381804503 [Eh]
	 Singles Energy            =      -0.0000000000000000 [Eh]
	 Same-Spin Energy          =      -0.3168159573466353 [Eh]
	 Opposite-Spin Energy      =      -1.1026556099715270 [Eh]
	 Correlation Energy        =      -1.4194715673181624 [Eh]
	 Total Energy              =    -310.5708183054986193 [Eh]

	 ================> DF-SCS-MP2 Energies <==================
	-----------------------------------------------------------
	 SCS Same-Spin Scale       =       0.3333333333333333 [-]
	 SCS Opposite-Spin Scale   =       1.2000000000000000 [-]
	 SCS Same-Spin Energy      =      -0.1056053191155451 [Eh]
	 SCS Opposite-Spin Energy  =      -1.3231867319658324 [Eh]
	 SCS Correlation Energy    =      -1.4287920510813774 [Eh]
	 SCS Total Energy          =    -310.5801387892618095 [Eh]
	-----------------------------------------------------------

  Dipole Moment: [D]
     X:     1.9008      Y:    -0.0011      Z:    -0.5773     Total:     1.9866

*** Psi4 exiting successfully. Buy a developer a beer!
