                               Psi4 1.3.2 release

  ==> Input File <==

--------------------------------------------------------------------------
#psi4
#
memory 32 gb

molecule  {
0 1
  O       -2.3916800    -1.0522970    -0.0243250
  C       -1.5013820     0.0265210    -0.3499700
  C       -0.1728060    -0.1763470     0.3083280
  C        2.3285040    -0.4694590     0.2834420
  C        1.0183897    -0.2968016    -0.2932789
  C       -2.1959480     1.2879740     0.1259890
  C        3.2526380     0.7192940     0.0124360
  H       -1.3570540     0.0791090    -1.4412390
  H       -0.1338634    -0.2564547     1.3961649
  H        2.7976780    -1.3847260    -0.0993500
  H        2.2027970    -0.6058810     1.3632980
  H        0.9746330    -0.2154440    -1.4448770
  H       -2.3344480     1.2448060     1.2091660
  H       -1.6005480     2.1700530    -0.1223020
  H       -3.1779120     1.3727550    -0.3453210
  H        2.8243150     1.6377400     0.4218030
  H        3.3966440     0.8648080    -1.0620310
  H        4.2355510     0.5661250     0.4665360
  H       -1.9269720    -1.8751040    -0.2580250
units angstrom
no_reorient  #important for SAPT in psi4, default
symmetry c1  #important for SAPT in psi4, default
}

set PROPERTIES_ORIGIN ["COM"]
properties('MP2/aug-cc-pvtz', properties = ['dipole'])
--------------------------------------------------------------------------

    Molecular point group: c1
  Charge       = 0
  Multiplicity = 1
  Basis Set: AUG-CC-PVTZ
    Blend: AUG-CC-PVTZ
  Basis Set: (AUG-CC-PVTZ AUX)
    Blend: AUG-CC-PVTZ-JKFIT

    Orbital Energies [Eh]
    ---------------------

    Doubly Occupied:

       1A    -20.554472     2A    -11.284205     3A    -11.238541
       4A    -11.229126     5A    -11.225617     6A    -11.221329
       7A    -11.211403     8A     -1.353636     9A     -1.101225
      10A     -1.037836    11A     -0.975440    12A     -0.879505
      13A     -0.810320    14A     -0.750680    15A     -0.694611
      16A     -0.653963    17A     -0.619000    18A     -0.593937
      19A     -0.579218    20A     -0.541946    21A     -0.530475
      22A     -0.528245    23A     -0.522423    24A     -0.511130
      25A     -0.481486    26A     -0.473669    27A     -0.443997
      28A     -0.355198

  @DF-RHF Final Energy:  -309.14473767384595

   => Energetics <=

    Nuclear Repulsion Energy =            299.4769235310231466
    One-Electron Energy =               -1012.4380549805808869
    Two-Electron Energy =                 403.8163937757118447
    Total Energy =                       -309.1447376738459525
  Basis Set: (AUG-CC-PVTZ AUX)
    Blend: AUG-CC-PVTZ-RI
    Molecular point group: c1

    Geometry (in Angstrom), charge = 0, multiplicity = 1:

       Center              X                  Y                   Z               Mass
    ------------   -----------------  -----------------  -----------------  -----------------
         O           -2.396126308152    -1.051185139742    -0.031706001751    15.994914619570
         C           -1.505828308152     0.027632860258    -0.357351001751    12.000000000000
         C           -0.177252308152    -0.175235139742     0.300946998249    12.000000000000
         C            2.324057691848    -0.468347139742     0.276060998249    12.000000000000
         C            1.013943391848    -0.295689739742    -0.300659901751    12.000000000000
         C           -2.200394308152     1.289085860258     0.118607998249    12.000000000000
         C            3.248191691848     0.720405860258     0.005054998249    12.000000000000
         H           -1.361500308152     0.080220860258    -1.448620001751     1.007825032230
         H           -0.138309708152    -0.255342839742     1.388783898249     1.007825032230
         H            2.793231691848    -1.383614139742    -0.106731001751     1.007825032230
         H            2.198350691848    -0.604769139742     1.355916998249     1.007825032230
         H            0.970186691848    -0.214332139742    -1.452258001751     1.007825032230
         H           -2.338894308152     1.245917860258     1.201784998249     1.007825032230
         H           -1.604994308152     2.171164860258    -0.129683001751     1.007825032230
         H           -3.182358308152     1.373866860258    -0.352702001751     1.007825032230
         H            2.819868691848     1.638851860258     0.414421998249     1.007825032230
         H            3.392197691848     0.865919860258    -1.069412001751     1.007825032230
         H            4.231104691848     0.567236860258     0.459154998249     1.007825032230
         H           -1.931418308152    -1.873992139742    -0.265406001751     1.007825032230

  Basis Set: AUG-CC-PVTZ
    Blend: AUG-CC-PVTZ
  Basis Set: (AUG-CC-PVTZ AUX)
    Blend: AUG-CC-PVTZ-JKFIT
	 Reference Energy          =    -309.1447376738459525 [Eh]
	 Singles Energy            =      -0.0000000000000000 [Eh]
	 Same-Spin Energy          =      -0.3174952976351276 [Eh]
	 Opposite-Spin Energy      =      -1.1034413162842474 [Eh]
	 Correlation Energy        =      -1.4209366139193751 [Eh]
	 Total Energy              =    -310.5656742877653187 [Eh]

	 ================> DF-SCS-MP2 Energies <==================
	-----------------------------------------------------------
	 SCS Same-Spin Scale       =       0.3333333333333333 [-]
	 SCS Opposite-Spin Scale   =       1.2000000000000000 [-]
	 SCS Same-Spin Energy      =      -0.1058317658783759 [Eh]
	 SCS Opposite-Spin Energy  =      -1.3241295795410968 [Eh]
	 SCS Correlation Energy    =      -1.4299613454194726 [Eh]
	 SCS Total Energy          =    -310.5746990192654380 [Eh]
	-----------------------------------------------------------

  Dipole Moment: [D]
     X:     1.9652      Y:     0.0094      Z:    -0.5156     Total:     2.0318

*** Psi4 exiting successfully. Buy a developer a beer!
