                               Psi4 1.4a3.dev225

  ==> Input File <==

--------------------------------------------------------------------------
#psi4
#
memory 32 gb

molecule  {
0 1
  O        2.4733480    -1.0180220    -0.0592030
  C        1.5930049    -0.0091304     0.3055445
  C        0.2241640    -0.1896060    -0.3216700
  C       -2.2699720    -0.5538550    -0.2568310
  C       -0.9183080    -0.3574540     0.3612590
  C        2.2155680     1.3228410    -0.1266610
  C       -3.2245640     0.5955150     0.0801580
  H        1.4362950     0.0398890     1.4137890
  H        0.2208170    -0.2229080    -1.4128920
  H       -2.7032570    -1.4976940     0.0989920
  H       -2.1635450    -0.6441890    -1.3439560
  H       -0.8861850    -0.3229140     1.4529890
  H        2.3348110     1.3198720    -1.2134080
  H        1.6025990     2.1805020     0.1626330
  H        3.2041590     1.4168830     0.3297970
  H       -2.8327200     1.5423190    -0.3012060
  H       -3.3500700     0.6943310     1.1626160
  H       -4.2121190     0.4296020    -0.3601990
  H        2.0333780    -1.8594800     0.1548220
units angstrom
no_reorient  #important for SAPT in psi4, default
symmetry c1  #important for SAPT in psi4, default
}

set PROPERTIES_ORIGIN ["COM"]
properties('MP2/aug-cc-pvtz', properties = ['dipole'])
--------------------------------------------------------------------------

    Molecular point group: c1
  Charge       = 0
  Multiplicity = 1
  Basis Set: AUG-CC-PVTZ
    Blend: AUG-CC-PVTZ
  Basis Set: (AUG-CC-PVTZ AUX)
    Blend: AUG-CC-PVTZ-JKFIT

    Orbital Energies [Eh]
    ---------------------

    Doubly Occupied:

       1A    -20.559810     2A    -11.282667     3A    -11.235352
       4A    -11.230289     5A    -11.225867     6A    -11.219100
       7A    -11.210435     8A     -1.373642     9A     -1.091073
      10A     -1.030174    11A     -0.972056    12A     -0.870904
      13A     -0.808146    14A     -0.759244    15A     -0.703720
      16A     -0.653189    17A     -0.609567    18A     -0.593876
      19A     -0.587751    20A     -0.538063    21A     -0.535113
      22A     -0.530324    23A     -0.525251    24A     -0.509702
      25A     -0.486437    26A     -0.465799    27A     -0.433116
      28A     -0.355443

  @DF-RHF Final Energy:  -309.15044311271345

   => Energetics <=

    Nuclear Repulsion Energy =            298.9941252641144160
    One-Electron Energy =               -1011.4969174102930083
    Two-Electron Energy =                 403.3523490334650887
    Total Energy =                       -309.1504431127134467
  Basis Set: (AUG-CC-PVTZ AUX)
    Blend: AUG-CC-PVTZ-RI
    Molecular point group: c1

    Geometry (in Angstrom), charge = 0, multiplicity = 1:

       Center              X                  Y                   Z               Mass
    ------------   -----------------  -----------------  -----------------  -----------------
         O            2.416975354482    -0.983221275216    -0.056203171243    15.994914619570
         C            1.536632254482     0.025670324784     0.308544328757    12.000000000000
         C            0.167791354482    -0.154805275216    -0.318670171243    12.000000000000
         C           -2.326344645518    -0.519054275216    -0.253831171243    12.000000000000
         C           -0.974680645518    -0.322653275216     0.364258828757    12.000000000000
         C            2.159195354482     1.357641724784    -0.123661171243    12.000000000000
         C           -3.280936645518     0.630315724784     0.083157828757    12.000000000000
         H            1.379922354482     0.074689724784     1.416788828757     1.007825032230
         H            0.164444354482    -0.188107275216    -1.409892171243     1.007825032230
         H           -2.759629645518    -1.462893275216     0.101991828757     1.007825032230
         H           -2.219917645518    -0.609388275216    -1.340956171243     1.007825032230
         H           -0.942557645518    -0.288113275216     1.455988828757     1.007825032230
         H            2.278438354482     1.354672724784    -1.210408171243     1.007825032230
         H            1.546226354482     2.215302724784     0.165632828757     1.007825032230
         H            3.147786354482     1.451683724784     0.332796828757     1.007825032230
         H           -2.889092645518     1.577119724784    -0.298206171243     1.007825032230
         H           -3.406442645518     0.729131724784     1.165615828757     1.007825032230
         H           -4.268491645518     0.464402724784    -0.357199171243     1.007825032230
         H            1.977005354482    -1.824679275216     0.157821828757     1.007825032230

  Basis Set: AUG-CC-PVTZ
    Blend: AUG-CC-PVTZ
  Basis Set: (AUG-CC-PVTZ AUX)
    Blend: AUG-CC-PVTZ-JKFIT
	 Reference Energy          =    -309.1504431127134467 [Eh]
	 Singles Energy            =      -0.0000000000000000 [Eh]
	 Same-Spin Energy          =      -0.3164498376900258 [Eh]
	 Opposite-Spin Energy      =      -1.1017390176680399 [Eh]
	 Correlation Energy        =      -1.4181888553580657 [Eh]
	 Total Energy              =    -310.5686319680714860 [Eh]

	 ================> DF-SCS-MP2 Energies <==================
	-----------------------------------------------------------
	 SCS Same-Spin Scale       =       0.3333333333333333 [-]
	 SCS Opposite-Spin Scale   =       1.2000000000000000 [-]
	 SCS Same-Spin Energy      =      -0.1054832792300086 [Eh]
	 SCS Opposite-Spin Energy  =      -1.3220868212016479 [Eh]
	 SCS Correlation Energy    =      -1.4275701004316566 [Eh]
	 SCS Total Energy          =    -310.5780132131450841 [Eh]
	-----------------------------------------------------------

  Dipole Moment: [D]
     X:    -1.7658      Y:    -0.2105      Z:     0.5499     Total:     1.8614

*** Psi4 exiting successfully. Buy a developer a beer!
