                               Psi4 1.3.2 release

  ==> Input File <==

--------------------------------------------------------------------------
#psi4
#
memory 32 gb

molecule  {
0 1
  O       -2.3752717    -1.0685080    -0.0341351
  C       -1.5013820     0.0265210    -0.3499700
  C       -0.1728060    -0.1763470     0.3083280
  C        2.3285040    -0.4694590     0.2834420
  C        0.9860590    -0.2881690    -0.3549330
  C       -2.1754063     1.3022637     0.1173568
  C        3.2526380     0.7192940     0.0124360
  H       -1.3570540     0.0791090    -1.4412390
  H       -0.1904860    -0.2488370     1.3972520
  H        2.7976780    -1.3847260    -0.0993500
  H        2.2027970    -0.6058810     1.3632980
  H        0.9746330    -0.2154440    -1.4448770
  H       -2.3344480     1.2448060     1.2091660
  H       -1.6005480     2.1700530    -0.1223020
  H       -3.1779120     1.3727550    -0.3453210
  H        2.8243150     1.6377400     0.4218030
  H        3.3966440     0.8648080    -1.0620310
  H        4.2355510     0.5661250     0.4665360
  H       -1.9269720    -1.8751040    -0.2580250
units angstrom
no_reorient  #important for SAPT in psi4, default
symmetry c1  #important for SAPT in psi4, default
}

set PROPERTIES_ORIGIN ["COM"]
properties('MP2/aug-cc-pvtz', properties = ['dipole'])
--------------------------------------------------------------------------

    Molecular point group: c1
  Charge       = 0
  Multiplicity = 1
  Basis Set: AUG-CC-PVTZ
    Blend: AUG-CC-PVTZ
  Basis Set: (AUG-CC-PVTZ AUX)
    Blend: AUG-CC-PVTZ-JKFIT

    Orbital Energies [Eh]
    ---------------------

    Doubly Occupied:

       1A    -20.551287     2A    -11.281814     3A    -11.235402
       4A    -11.230219     5A    -11.225785     6A    -11.219359
       7A    -11.211990     8A     -1.357264     9A     -1.094631
      10A     -1.036359    11A     -0.974922    12A     -0.873140
      13A     -0.809117    14A     -0.760769    15A     -0.697850
      16A     -0.653555    17A     -0.610530    18A     -0.593772
      19A     -0.578477    20A     -0.542414    21A     -0.537717
      22A     -0.531807    23A     -0.519626    24A     -0.509993
      25A     -0.487011    26A     -0.469574    27A     -0.439944
      28A     -0.356090

  @DF-RHF Final Energy:  -309.15217480390061

   => Energetics <=

    Nuclear Repulsion Energy =            299.2707928509931889
    One-Electron Energy =               -1012.0651014474990461
    Two-Electron Energy =                 403.6421337926052502
    Total Energy =                       -309.1521748039006070
  Basis Set: (AUG-CC-PVTZ AUX)
    Blend: AUG-CC-PVTZ-RI
    Molecular point group: c1

    Geometry (in Angstrom), charge = 0, multiplicity = 1:

       Center              X                  Y                   Z               Mass
    ------------   -----------------  -----------------  -----------------  -----------------
         O           -2.380356597827    -1.067630445122    -0.031532451677    15.994914619570
         C           -1.506466897827     0.027398554878    -0.347367351677    12.000000000000
         C           -0.177890897827    -0.175469445122     0.310930648323    12.000000000000
         C            2.323419102173    -0.468581445122     0.286044648323    12.000000000000
         C            0.980974102173    -0.287291445122    -0.352330351677    12.000000000000
         C           -2.180491197827     1.303141254878     0.119959448323    12.000000000000
         C            3.247553102173     0.720171554878     0.015038648323    12.000000000000
         H           -1.362138897827     0.079986554878    -1.438636351677     1.007825032230
         H           -0.195570897827    -0.247959445122     1.399854648323     1.007825032230
         H            2.792593102173    -1.383848445122    -0.096747351677     1.007825032230
         H            2.197712102173    -0.605003445122     1.365900648323     1.007825032230
         H            0.969548102173    -0.214566445122    -1.442274351677     1.007825032230
         H           -2.339532897827     1.245683554878     1.211768648323     1.007825032230
         H           -1.605632897827     2.170930554878    -0.119699351677     1.007825032230
         H           -3.182996897827     1.373632554878    -0.342718351677     1.007825032230
         H            2.819230102173     1.638617554878     0.424405648323     1.007825032230
         H            3.391559102173     0.865685554878    -1.059428351677     1.007825032230
         H            4.230466102173     0.567002554878     0.469138648323     1.007825032230
         H           -1.932056897827    -1.874226445122    -0.255422351677     1.007825032230

  Basis Set: AUG-CC-PVTZ
    Blend: AUG-CC-PVTZ
  Basis Set: (AUG-CC-PVTZ AUX)
    Blend: AUG-CC-PVTZ-JKFIT
	 Reference Energy          =    -309.1521748039006070 [Eh]
	 Singles Energy            =      -0.0000000000000000 [Eh]
	 Same-Spin Energy          =      -0.3163540555970367 [Eh]
	 Opposite-Spin Energy      =      -1.1015590642169466 [Eh]
	 Correlation Energy        =      -1.4179131198139834 [Eh]
	 Total Energy              =    -310.5700879237145955 [Eh]

	 ================> DF-SCS-MP2 Energies <==================
	-----------------------------------------------------------
	 SCS Same-Spin Scale       =       0.3333333333333333 [-]
	 SCS Opposite-Spin Scale   =       1.2000000000000000 [-]
	 SCS Same-Spin Energy      =      -0.1054513518656789 [Eh]
	 SCS Opposite-Spin Energy  =      -1.3218708770603358 [Eh]
	 SCS Correlation Energy    =      -1.4273222289260148 [Eh]
	 SCS Total Energy          =    -310.5794970328266231 [Eh]
	-----------------------------------------------------------

  Dipole Moment: [D]
     X:     1.8794      Y:     0.0464      Z:    -0.5440     Total:     1.9571

*** Psi4 exiting successfully. Buy a developer a beer!
