                               Psi4 1.4a3.dev225

  ==> Input File <==

--------------------------------------------------------------------------
#psi4
#
memory 32 gb

molecule  {
0 1
  O        2.4733480    -1.0180220    -0.0592030
  C        1.5612870     0.0272190     0.3186860
  C        0.2241640    -0.1896060    -0.3216700
  C       -2.2699720    -0.5538550    -0.2568310
  C       -0.9353399    -0.3599563     0.3714400
  C        2.2155680     1.3228410    -0.1266610
  C       -3.2245640     0.5955150     0.0801580
  H        1.4362950     0.0398890     1.4137890
  H        0.2208170    -0.2229080    -1.4128920
  H       -2.7032570    -1.4976940     0.0989920
  H       -2.1635450    -0.6441890    -1.3439560
  H       -0.8861850    -0.3229140     1.4529890
  H        2.3348110     1.3198720    -1.2134080
  H        1.6025990     2.1805020     0.1626330
  H        3.2041590     1.4168830     0.3297970
  H       -2.8327200     1.5423190    -0.3012060
  H       -3.3500700     0.6943310     1.1626160
  H       -4.2121190     0.4296020    -0.3601990
  H        2.0333780    -1.8594800     0.1548220
units angstrom
no_reorient  #important for SAPT in psi4, default
symmetry c1  #important for SAPT in psi4, default
}

set PROPERTIES_ORIGIN ["COM"]
properties('MP2/aug-cc-pvtz', properties = ['dipole'])
--------------------------------------------------------------------------

    Molecular point group: c1
  Charge       = 0
  Multiplicity = 1
  Basis Set: AUG-CC-PVTZ
    Blend: AUG-CC-PVTZ
  Basis Set: (AUG-CC-PVTZ AUX)
    Blend: AUG-CC-PVTZ-JKFIT

    Orbital Energies [Eh]
    ---------------------

    Doubly Occupied:

       1A    -20.553553     2A    -11.281782     3A    -11.238446
       4A    -11.230744     5A    -11.229563     6A    -11.220062
       7A    -11.211086     8A     -1.352156     9A     -1.093050
      10A     -1.034744    11A     -0.972171    12A     -0.874346
      13A     -0.806540    14A     -0.762305    15A     -0.692201
      16A     -0.653398    17A     -0.610507    18A     -0.594909
      19A     -0.577705    20A     -0.538638    21A     -0.536124
      22A     -0.527787    23A     -0.521735    24A     -0.510801
      25A     -0.488612    26A     -0.472322    27A     -0.441185
      28A     -0.351553

  @DF-RHF Final Energy:  -309.15009364597688

   => Energetics <=

    Nuclear Repulsion Energy =            298.6666185727787024
    One-Electron Energy =               -1010.8773758320251090
    Two-Electron Energy =                 403.0606636132695257
    Total Energy =                       -309.1500936459768809
  Basis Set: (AUG-CC-PVTZ AUX)
    Blend: AUG-CC-PVTZ-RI
    Molecular point group: c1

    Geometry (in Angstrom), charge = 0, multiplicity = 1:

       Center              X                  Y                   Z               Mass
    ------------   -----------------  -----------------  -----------------  -----------------
         O            2.422820139436    -0.987279323061    -0.058999387783    15.994914619570
         C            1.510759139436     0.057961676939     0.318889612217    12.000000000000
         C            0.173636139436    -0.158863323061    -0.321466387783    12.000000000000
         C           -2.320499860564    -0.523112323061    -0.256627387783    12.000000000000
         C           -0.985867760564    -0.329213623061     0.371643612217    12.000000000000
         C            2.165040139436     1.353583676939    -0.126457387783    12.000000000000
         C           -3.275091860564     0.626257676939     0.080361612217    12.000000000000
         H            1.385767139436     0.070631676939     1.413992612217     1.007825032230
         H            0.170289139436    -0.192165323061    -1.412688387783     1.007825032230
         H           -2.753784860564    -1.466951323061     0.099195612217     1.007825032230
         H           -2.214072860564    -0.613446323061    -1.343752387783     1.007825032230
         H           -0.936712860564    -0.292171323061     1.453192612217     1.007825032230
         H            2.284283139436     1.350614676939    -1.213204387783     1.007825032230
         H            1.552071139436     2.211244676939     0.162836612217     1.007825032230
         H            3.153631139436     1.447625676939     0.330000612217     1.007825032230
         H           -2.883247860564     1.573061676939    -0.301002387783     1.007825032230
         H           -3.400597860564     0.725073676939     1.162819612217     1.007825032230
         H           -4.262646860564     0.460344676939    -0.359995387783     1.007825032230
         H            1.982850139436    -1.828737323061     0.155025612217     1.007825032230

  Basis Set: AUG-CC-PVTZ
    Blend: AUG-CC-PVTZ
  Basis Set: (AUG-CC-PVTZ AUX)
    Blend: AUG-CC-PVTZ-JKFIT
	 Reference Energy          =    -309.1500936459768809 [Eh]
	 Singles Energy            =      -0.0000000000000000 [Eh]
	 Same-Spin Energy          =      -0.3169637093042880 [Eh]
	 Opposite-Spin Energy      =      -1.1030916580173056 [Eh]
	 Correlation Energy        =      -1.4200553673215937 [Eh]
	 Total Energy              =    -310.5701490132984759 [Eh]

	 ================> DF-SCS-MP2 Energies <==================
	-----------------------------------------------------------
	 SCS Same-Spin Scale       =       0.3333333333333333 [-]
	 SCS Opposite-Spin Scale   =       1.2000000000000000 [-]
	 SCS Same-Spin Energy      =      -0.1056545697680960 [Eh]
	 SCS Opposite-Spin Energy  =      -1.3237099896207667 [Eh]
	 SCS Correlation Energy    =      -1.4293645593888626 [Eh]
	 SCS Total Energy          =    -310.5794582053657678 [Eh]
	-----------------------------------------------------------

  Dipole Moment: [D]
     X:    -1.9210      Y:    -0.0586      Z:     0.5933     Total:     2.0114

*** Psi4 exiting successfully. Buy a developer a beer!
