                               Psi4 1.3.2 release

  ==> Input File <==

--------------------------------------------------------------------------
#psi4
#
memory 32 gb

molecule  {
0 1
  O       -2.3916800    -1.0522970    -0.0243250
  C       -1.5013820     0.0265210    -0.3499700
  C       -0.1847498    -0.1099811     0.3482225
  C        2.3285040    -0.4694590     0.2834420
  C        0.9860590    -0.2881690    -0.3549330
  C       -2.1337636     1.3018337     0.1733784
  C        3.2526380     0.7192940     0.0124360
  H       -1.3570540     0.0791090    -1.4412390
  H       -0.1904860    -0.2488370     1.3972520
  H        2.7976780    -1.3847260    -0.0993500
  H        2.2027970    -0.6058810     1.3632980
  H        0.9746330    -0.2154440    -1.4448770
  H       -2.3344480     1.2448060     1.2091660
  H       -1.6005480     2.1700530    -0.1223020
  H       -3.1779120     1.3727550    -0.3453210
  H        2.8243150     1.6377400     0.4218030
  H        3.3966440     0.8648080    -1.0620310
  H        4.2355510     0.5661250     0.4665360
  H       -1.9269720    -1.8751040    -0.2580250
units angstrom
no_reorient  #important for SAPT in psi4, default
symmetry c1  #important for SAPT in psi4, default
}

set PROPERTIES_ORIGIN ["COM"]
properties('MP2/aug-cc-pvtz', properties = ['dipole'])
--------------------------------------------------------------------------

    Molecular point group: c1
  Charge       = 0
  Multiplicity = 1
  Basis Set: AUG-CC-PVTZ
    Blend: AUG-CC-PVTZ
  Basis Set: (AUG-CC-PVTZ AUX)
    Blend: AUG-CC-PVTZ-JKFIT

    Orbital Energies [Eh]
    ---------------------

    Doubly Occupied:

       1A    -20.556097     2A    -11.281784     3A    -11.240710
       4A    -11.230054     5A    -11.227955     6A    -11.219038
       7A    -11.210514     8A     -1.353783     9A     -1.091150
      10A     -1.037506    11A     -0.969185    12A     -0.872182
      13A     -0.805779    14A     -0.766733    15A     -0.694602
      16A     -0.652379    17A     -0.606865    18A     -0.597504
      19A     -0.580999    20A     -0.546367    21A     -0.540912
      22A     -0.530103    23A     -0.513262    24A     -0.509573
      25A     -0.486978    26A     -0.468774    27A     -0.439927
      28A     -0.346448

  @DF-RHF Final Energy:  -309.13881301848687

   => Energetics <=

    Nuclear Repulsion Energy =            299.0509080627767844
    One-Electron Energy =               -1011.6251172787499399
    Two-Electron Energy =                 403.4353961974862841
    Total Energy =                       -309.1388130184868714
  Basis Set: (AUG-CC-PVTZ AUX)
    Blend: AUG-CC-PVTZ-RI
    Molecular point group: c1

    Geometry (in Angstrom), charge = 0, multiplicity = 1:

       Center              X                  Y                   Z               Mass
    ------------   -----------------  -----------------  -----------------  -----------------
         O           -2.397703438686    -1.061915366778    -0.034789794945    15.994914619570
         C           -1.507405438686     0.016902633222    -0.360434794945    12.000000000000
         C           -0.190773238686    -0.119599466778     0.337757705055    12.000000000000
         C            2.322480561314    -0.479077366778     0.272977205055    12.000000000000
         C            0.980035561314    -0.297787366778    -0.365397794945    12.000000000000
         C           -2.139787038686     1.292215333222     0.162913605055    12.000000000000
         C            3.246614561314     0.709675633222     0.001971205055    12.000000000000
         H           -1.363077438686     0.069490633222    -1.451703794945     1.007825032230
         H           -0.196509438686    -0.258455366778     1.386787205055     1.007825032230
         H            2.791654561314    -1.394344366778    -0.109814794945     1.007825032230
         H            2.196773561314    -0.615499366778     1.352833205055     1.007825032230
         H            0.968609561314    -0.225062366778    -1.455341794945     1.007825032230
         H           -2.340471438686     1.235187633222     1.198701205055     1.007825032230
         H           -1.606571438686     2.160434633222    -0.132766794945     1.007825032230
         H           -3.183935438686     1.363136633222    -0.355785794945     1.007825032230
         H            2.818291561314     1.628121633222     0.411338205055     1.007825032230
         H            3.390620561314     0.855189633222    -1.072495794945     1.007825032230
         H            4.229527561314     0.556506633222     0.456071205055     1.007825032230
         H           -1.932995438686    -1.884722366778    -0.268489794945     1.007825032230

  Basis Set: AUG-CC-PVTZ
    Blend: AUG-CC-PVTZ
  Basis Set: (AUG-CC-PVTZ AUX)
    Blend: AUG-CC-PVTZ-JKFIT
	 Reference Energy          =    -309.1388130184868714 [Eh]
	 Singles Energy            =      -0.0000000000000000 [Eh]
	 Same-Spin Energy          =      -0.3174845388138678 [Eh]
	 Opposite-Spin Energy      =      -1.1042288108392184 [Eh]
	 Correlation Energy        =      -1.4217133496530863 [Eh]
	 Total Energy              =    -310.5605263681399606 [Eh]

	 ================> DF-SCS-MP2 Energies <==================
	-----------------------------------------------------------
	 SCS Same-Spin Scale       =       0.3333333333333333 [-]
	 SCS Opposite-Spin Scale   =       1.2000000000000000 [-]
	 SCS Same-Spin Energy      =      -0.1058281796046226 [Eh]
	 SCS Opposite-Spin Energy  =      -1.3250745730070621 [Eh]
	 SCS Correlation Energy    =      -1.4309027526116846 [Eh]
	 SCS Total Energy          =    -310.5697157710985721 [Eh]
	-----------------------------------------------------------

  Dipole Moment: [D]
     X:     1.9105      Y:    -0.0843      Z:    -0.5298     Total:     1.9844

*** Psi4 exiting successfully. Buy a developer a beer!
