                               Psi4 1.4a3.dev225

  ==> Input File <==

--------------------------------------------------------------------------
#psi4
#
memory 32 gb

molecule  {
0 1
  O        2.4733480    -1.0180220    -0.0592030
  C        1.5612870     0.0272190     0.3186860
  C        0.2241640    -0.1896060    -0.3216700
  C       -2.2699720    -0.5538550    -0.2568310
  C       -0.9183080    -0.3574540     0.3612590
  C        2.2155680     1.3228410    -0.1266610
  C       -3.2245640     0.5955150     0.0801580
  H        1.4362950     0.0398890     1.4137890
  H        0.2208170    -0.2229080    -1.4128920
  H       -2.7032570    -1.4976940     0.0989920
  H       -2.1635450    -0.6441890    -1.3439560
  H       -0.8861850    -0.3229140     1.4529890
  H        2.3348110     1.3198720    -1.2134080
  H        1.6025990     2.1805020     0.1626330
  H        3.2041590     1.4168830     0.3297970
  H       -2.8327200     1.5423190    -0.3012060
  H       -3.3500700     0.6943310     1.1626160
  H       -4.2121190     0.4296020    -0.3601990
  H        2.0559786    -1.8162557     0.1438279
units angstrom
no_reorient  #important for SAPT in psi4, default
symmetry c1  #important for SAPT in psi4, default
}

set PROPERTIES_ORIGIN ["COM"]
properties('MP2/aug-cc-pvtz', properties = ['dipole'])
--------------------------------------------------------------------------

    Molecular point group: c1
  Charge       = 0
  Multiplicity = 1
  Basis Set: AUG-CC-PVTZ
    Blend: AUG-CC-PVTZ
  Basis Set: (AUG-CC-PVTZ AUX)
    Blend: AUG-CC-PVTZ-JKFIT

    Orbital Energies [Eh]
    ---------------------

    Doubly Occupied:

       1A    -20.548838     2A    -11.282197     3A    -11.237053
       4A    -11.231232     5A    -11.227118     6A    -11.220095
       7A    -11.211244     8A     -1.363963     9A     -1.094628
      10A     -1.036232    11A     -0.975049    12A     -0.873513
      13A     -0.809480    14A     -0.761288    15A     -0.701707
      16A     -0.654090    17A     -0.611057    18A     -0.594747
      19A     -0.579271    20A     -0.539082    21A     -0.536175
      22A     -0.529093    23A     -0.522156    24A     -0.511306
      25A     -0.487673    26A     -0.472658    27A     -0.441762
      28A     -0.356774

  @DF-RHF Final Energy:  -309.15239918645659

   => Energetics <=

    Nuclear Repulsion Energy =            299.1251896861222690
    One-Electron Energy =               -1011.7362182607301975
    Two-Electron Energy =                 403.4586293881512802
    Total Energy =                       -309.1523991864565915
  Basis Set: (AUG-CC-PVTZ AUX)
    Blend: AUG-CC-PVTZ-RI
    Molecular point group: c1

    Geometry (in Angstrom), charge = 0, multiplicity = 1:

       Center              X                  Y                   Z               Mass
    ------------   -----------------  -----------------  -----------------  -----------------
         O            2.420550552666    -0.988014571365    -0.057668048919    15.994914619570
         C            1.508489552666     0.057226428635     0.320220951081    12.000000000000
         C            0.171366552666    -0.159598571365    -0.320135048919    12.000000000000
         C           -2.322769447334    -0.523847571365    -0.255296048919    12.000000000000
         C           -0.971105447334    -0.327446571365     0.362793951081    12.000000000000
         C            2.162770552666     1.352848428635    -0.125126048919    12.000000000000
         C           -3.277361447334     0.625522428635     0.081692951081    12.000000000000
         H            1.383497552666     0.069896428635     1.415323951081     1.007825032230
         H            0.168019552666    -0.192900571365    -1.411357048919     1.007825032230
         H           -2.756054447334    -1.467686571365     0.100526951081     1.007825032230
         H           -2.216342447334    -0.614181571365    -1.342421048919     1.007825032230
         H           -0.938982447334    -0.292906571365     1.454523951081     1.007825032230
         H            2.282013552666     1.349879428635    -1.211873048919     1.007825032230
         H            1.549801552666     2.210509428635     0.164167951081     1.007825032230
         H            3.151361552666     1.446890428635     0.331331951081     1.007825032230
         H           -2.885517447334     1.572326428635    -0.299671048919     1.007825032230
         H           -3.402867447334     0.724338428635     1.164150951081     1.007825032230
         H           -4.264916447334     0.459609428635    -0.358664048919     1.007825032230
         H            2.003181152666    -1.786248271365     0.145362851081     1.007825032230

  Basis Set: AUG-CC-PVTZ
    Blend: AUG-CC-PVTZ
  Basis Set: (AUG-CC-PVTZ AUX)
    Blend: AUG-CC-PVTZ-JKFIT
	 Reference Energy          =    -309.1523991864565915 [Eh]
	 Singles Energy            =      -0.0000000000000000 [Eh]
	 Same-Spin Energy          =      -0.3160452988656902 [Eh]
	 Opposite-Spin Energy      =      -1.1009567856170213 [Eh]
	 Correlation Energy        =      -1.4170020844827116 [Eh]
	 Total Energy              =    -310.5694012709392950 [Eh]

	 ================> DF-SCS-MP2 Energies <==================
	-----------------------------------------------------------
	 SCS Same-Spin Scale       =       0.3333333333333333 [-]
	 SCS Opposite-Spin Scale   =       1.2000000000000000 [-]
	 SCS Same-Spin Energy      =      -0.1053484329552301 [Eh]
	 SCS Opposite-Spin Energy  =      -1.3211481427404255 [Eh]
	 SCS Correlation Energy    =      -1.4264965756956556 [Eh]
	 SCS Total Energy          =    -310.5788957621522286 [Eh]
	-----------------------------------------------------------

  Dipole Moment: [D]
     X:    -1.9067      Y:    -0.0232      Z:     0.5847     Total:     1.9945

*** Psi4 exiting successfully. Buy a developer a beer!
