                               Psi4 1.3.2 release

  ==> Input File <==

--------------------------------------------------------------------------
#psi4
#
memory 32 gb

molecule  {
0 1
  O       -2.3916800    -1.0522970    -0.0243250
  C       -1.5013820     0.0265210    -0.3499700
  C       -0.1947428    -0.1707370     0.2674048
  C        2.3285040    -0.4694590     0.2834420
  C        0.9860590    -0.2881690    -0.3549330
  C       -2.1959480     1.2879740     0.1259890
  C        3.2526380     0.7192940     0.0124360
  H       -1.3570540     0.0791090    -1.4412390
  H       -0.1904860    -0.2488370     1.3972520
  H        2.7976780    -1.3847260    -0.0993500
  H        2.2027970    -0.6058810     1.3632980
  H        0.9368526    -0.2104771    -1.4434825
  H       -2.3344480     1.2448060     1.2091660
  H       -1.6005480     2.1700530    -0.1223020
  H       -3.1779120     1.3727550    -0.3453210
  H        2.8243150     1.6377400     0.4218030
  H        3.3966440     0.8648080    -1.0620310
  H        4.2355510     0.5661250     0.4665360
  H       -1.9269720    -1.8751040    -0.2580250
units angstrom
no_reorient  #important for SAPT in psi4, default
symmetry c1  #important for SAPT in psi4, default
}

set PROPERTIES_ORIGIN ["COM"]
properties('MP2/aug-cc-pvtz', properties = ['dipole'])
--------------------------------------------------------------------------

    Molecular point group: c1
  Charge       = 0
  Multiplicity = 1
  Basis Set: AUG-CC-PVTZ
    Blend: AUG-CC-PVTZ
  Basis Set: (AUG-CC-PVTZ AUX)
    Blend: AUG-CC-PVTZ-JKFIT

    Orbital Energies [Eh]
    ---------------------

    Doubly Occupied:

       1A    -20.554340     2A    -11.279618     3A    -11.236565
       4A    -11.233031     5A    -11.227518     6A    -11.220438
       7A    -11.211386     8A     -1.354130     9A     -1.096495
      10A     -1.038979    11A     -0.975387    12A     -0.876710
      13A     -0.811060    14A     -0.755354    15A     -0.695151
      16A     -0.654694    17A     -0.612957    18A     -0.592586
      19A     -0.580559    20A     -0.537781    21A     -0.531846
      22A     -0.528436    23A     -0.520834    24A     -0.508746
      25A     -0.486002    26A     -0.476593    27A     -0.443319
      28A     -0.356614

  @DF-RHF Final Energy:  -309.14837802618672

   => Energetics <=

    Nuclear Repulsion Energy =            299.5305297100983353
    One-Electron Energy =               -1012.5635572530244417
    Two-Electron Energy =                 403.8846495167393869
    Total Energy =                       -309.1483780261867196
  Basis Set: (AUG-CC-PVTZ AUX)
    Blend: AUG-CC-PVTZ-RI
    Molecular point group: c1

    Geometry (in Angstrom), charge = 0, multiplicity = 1:

       Center              X                  Y                   Z               Mass
    ------------   -----------------  -----------------  -----------------  -----------------
         O           -2.388669413927    -1.053019453345    -0.019432636527    15.994914619570
         C           -1.498371413927     0.025798546655    -0.345077636527    12.000000000000
         C           -0.191732213927    -0.171459453345     0.272297163473    12.000000000000
         C            2.331514586073    -0.470181453345     0.288334363473    12.000000000000
         C            0.989069586073    -0.288891453345    -0.350040636527    12.000000000000
         C           -2.192937413927     1.287251546655     0.130881363473    12.000000000000
         C            3.255648586073     0.718571546655     0.017328363473    12.000000000000
         H           -1.354043413927     0.078386546655    -1.436346636527     1.007825032230
         H           -0.187475413927    -0.249559453345     1.402144363473     1.007825032230
         H            2.800688586073    -1.385448453345    -0.094457636527     1.007825032230
         H            2.205807586073    -0.606603453345     1.368190363473     1.007825032230
         H            0.939863186073    -0.211199553345    -1.438590136527     1.007825032230
         H           -2.331437413927     1.244083546655     1.214058363473     1.007825032230
         H           -1.597537413927     2.169330546655    -0.117409636527     1.007825032230
         H           -3.174901413927     1.372032546655    -0.340428636527     1.007825032230
         H            2.827325586073     1.637017546655     0.426695363473     1.007825032230
         H            3.399654586073     0.864085546655    -1.057138636527     1.007825032230
         H            4.238561586073     0.565402546655     0.471428363473     1.007825032230
         H           -1.923961413927    -1.875826453345    -0.253132636527     1.007825032230

  Basis Set: AUG-CC-PVTZ
    Blend: AUG-CC-PVTZ
  Basis Set: (AUG-CC-PVTZ AUX)
    Blend: AUG-CC-PVTZ-JKFIT
	 Reference Energy          =    -309.1483780261867196 [Eh]
	 Singles Energy            =      -0.0000000000000000 [Eh]
	 Same-Spin Energy          =      -0.3172406086519404 [Eh]
	 Opposite-Spin Energy      =      -1.1030765575319499 [Eh]
	 Correlation Energy        =      -1.4203171661838903 [Eh]
	 Total Energy              =    -310.5686951923706260 [Eh]

	 ================> DF-SCS-MP2 Energies <==================
	-----------------------------------------------------------
	 SCS Same-Spin Scale       =       0.3333333333333333 [-]
	 SCS Opposite-Spin Scale   =       1.2000000000000000 [-]
	 SCS Same-Spin Energy      =      -0.1057468695506468 [Eh]
	 SCS Opposite-Spin Energy  =      -1.3236918690383399 [Eh]
	 SCS Correlation Energy    =      -1.4294387385889866 [Eh]
	 SCS Total Energy          =    -310.5778167647757186 [Eh]
	-----------------------------------------------------------

  Dipole Moment: [D]
     X:     1.9352      Y:     0.0168      Z:    -0.5610     Total:     2.0150

*** Psi4 exiting successfully. Buy a developer a beer!
