                               Psi4 1.3.2 release

  ==> Input File <==

--------------------------------------------------------------------------
#psi4
#
memory 32 gb

molecule  {
0 1
  O       -2.3916800    -1.0522970    -0.0243250
  C       -1.5013820     0.0265210    -0.3499700
  C        0.0047473    -0.2034586     0.3963041
  C        2.3285040    -0.4694590     0.2834420
  C        0.9860590    -0.2881690    -0.3549330
  C       -2.1959480     1.2879740     0.1259890
  C        3.2526380     0.7192940     0.0124360
  H       -1.3570540     0.0791090    -1.4412390
  H       -0.1904860    -0.2488370     1.3972520
  H        2.7976780    -1.3847260    -0.0993500
  H        2.2027970    -0.6058810     1.3632980
  H        0.9746330    -0.2154440    -1.4448770
  H       -2.3344480     1.2448060     1.2091660
  H       -1.6005480     2.1700530    -0.1223020
  H       -3.1779120     1.3727550    -0.3453210
  H        2.8243150     1.6377400     0.4218030
  H        3.3966440     0.8648080    -1.0620310
  H        4.2355510     0.5661250     0.4665360
  H       -1.9269720    -1.8751040    -0.2580250
units angstrom
no_reorient  #important for SAPT in psi4, default
symmetry c1  #important for SAPT in psi4, default
}

set PROPERTIES_ORIGIN ["COM"]
properties('MP2/aug-cc-pvtz', properties = ['dipole'])
--------------------------------------------------------------------------

    Molecular point group: c1
  Charge       = 0
  Multiplicity = 1
  Basis Set: AUG-CC-PVTZ
    Blend: AUG-CC-PVTZ
  Basis Set: (AUG-CC-PVTZ AUX)
    Blend: AUG-CC-PVTZ-JKFIT

    Orbital Energies [Eh]
    ---------------------

    Doubly Occupied:

       1A    -20.553644     2A    -11.285775     3A    -11.224255
       4A    -11.220716     5A    -11.216839     6A    -11.215953
       7A    -11.209263     8A     -1.348944     9A     -1.107916
      10A     -1.019772    11A     -0.982891    12A     -0.859178
      13A     -0.801354    14A     -0.771140    15A     -0.685792
      16A     -0.658007    17A     -0.615326    18A     -0.593926
      19A     -0.571368    20A     -0.562218    21A     -0.533523
      22A     -0.525561    23A     -0.519313    24A     -0.510129
      25A     -0.488916    26A     -0.462183    27A     -0.396671
      28A     -0.383069

  @DF-RHF Final Energy:  -309.11579171043837

   => Energetics <=

    Nuclear Repulsion Energy =            298.5794061344211627
    One-Electron Energy =               -1010.7431122371548327
    Two-Electron Energy =                 403.0479143922952403
    Total Energy =                       -309.1157917104383728
  Basis Set: (AUG-CC-PVTZ AUX)
    Blend: AUG-CC-PVTZ-RI
    Molecular point group: c1

    Geometry (in Angstrom), charge = 0, multiplicity = 1:

       Center              X                  Y                   Z               Mass
    ------------   -----------------  -----------------  -----------------  -----------------
         O           -2.412967405993    -1.049046332411    -0.034872785238    15.994914619570
         C           -1.522669405993     0.029771667589    -0.360517785238    12.000000000000
         C           -0.016540105993    -0.200207932411     0.385756314762    12.000000000000
         C            2.307216594007    -0.466208332411     0.272894214762    12.000000000000
         C            0.964771594007    -0.284918332411    -0.365480785238    12.000000000000
         C           -2.217235405993     1.291224667589     0.115441214762    12.000000000000
         C            3.231350594007     0.722544667589     0.001888214762    12.000000000000
         H           -1.378341405993     0.082359667589    -1.451786785238     1.007825032230
         H           -0.211773405993    -0.245586332411     1.386704214762     1.007825032230
         H            2.776390594007    -1.381475332411    -0.109897785238     1.007825032230
         H            2.181509594007    -0.602630332411     1.352750214762     1.007825032230
         H            0.953345594007    -0.212193332411    -1.455424785238     1.007825032230
         H           -2.355735405993     1.248056667589     1.198618214762     1.007825032230
         H           -1.621835405993     2.173303667589    -0.132849785238     1.007825032230
         H           -3.199199405993     1.376005667589    -0.355868785238     1.007825032230
         H            2.803027594007     1.640990667589     0.411255214762     1.007825032230
         H            3.375356594007     0.868058667589    -1.072578785238     1.007825032230
         H            4.214263594007     0.569375667589     0.455988214762     1.007825032230
         H           -1.948259405993    -1.871853332411    -0.268572785238     1.007825032230

  Basis Set: AUG-CC-PVTZ
    Blend: AUG-CC-PVTZ
  Basis Set: (AUG-CC-PVTZ AUX)
    Blend: AUG-CC-PVTZ-JKFIT
	 Reference Energy          =    -309.1157917104383728 [Eh]
	 Singles Energy            =      -0.0000000000000000 [Eh]
	 Same-Spin Energy          =      -0.3158499935419300 [Eh]
	 Opposite-Spin Energy      =      -1.1014308422406314 [Eh]
	 Correlation Energy        =      -1.4172808357825613 [Eh]
	 Total Energy              =    -310.5330725462209216 [Eh]

	 ================> DF-SCS-MP2 Energies <==================
	-----------------------------------------------------------
	 SCS Same-Spin Scale       =       0.3333333333333333 [-]
	 SCS Opposite-Spin Scale   =       1.2000000000000000 [-]
	 SCS Same-Spin Energy      =      -0.1052833311806433 [Eh]
	 SCS Opposite-Spin Energy  =      -1.3217170106887577 [Eh]
	 SCS Correlation Energy    =      -1.4270003418694011 [Eh]
	 SCS Total Energy          =    -310.5427920523077887 [Eh]
	-----------------------------------------------------------

  Dipole Moment: [D]
     X:     1.8085      Y:    -0.0514      Z:    -0.5416     Total:     1.8886

*** Psi4 exiting successfully. Buy a developer a beer!
