                               Psi4 1.3.2 release

  ==> Input File <==

--------------------------------------------------------------------------
#psi4
#
memory 32 gb

molecule  {
0 1
  O       -2.3916800    -1.0522970    -0.0243250
  C       -1.5127467     0.0267222    -0.3264537
  C       -0.1728060    -0.1763470     0.3083280
  C        2.3285040    -0.4694590     0.2834420
  C        0.9972489    -0.2906587    -0.3345497
  C       -2.1959480     1.2879740     0.1259890
  C        3.2526380     0.7192940     0.0124360
  H       -1.3570540     0.0791090    -1.4412390
  H       -0.1904860    -0.2488370     1.3972520
  H        2.7976780    -1.3847260    -0.0993500
  H        2.2027970    -0.6058810     1.3632980
  H        0.9746330    -0.2154440    -1.4448770
  H       -2.3344480     1.2448060     1.2091660
  H       -1.6005480     2.1700530    -0.1223020
  H       -3.1779120     1.3727550    -0.3453210
  H        2.8243150     1.6377400     0.4218030
  H        3.3966440     0.8648080    -1.0620310
  H        4.2355510     0.5661250     0.4665360
  H       -1.9269720    -1.8751040    -0.2580250
units angstrom
no_reorient  #important for SAPT in psi4, default
symmetry c1  #important for SAPT in psi4, default
}

set PROPERTIES_ORIGIN ["COM"]
properties('MP2/aug-cc-pvtz', properties = ['dipole'])
--------------------------------------------------------------------------

    Molecular point group: c1
  Charge       = 0
  Multiplicity = 1
  Basis Set: AUG-CC-PVTZ
    Blend: AUG-CC-PVTZ
  Basis Set: (AUG-CC-PVTZ AUX)
    Blend: AUG-CC-PVTZ-JKFIT

    Orbital Energies [Eh]
    ---------------------

    Doubly Occupied:

       1A    -20.555000     2A    -11.282777     3A    -11.237396
       4A    -11.230150     5A    -11.225812     6A    -11.220136
       7A    -11.210647     8A     -1.357738     9A     -1.096291
      10A     -1.036966    11A     -0.976086    12A     -0.875361
      13A     -0.807315    14A     -0.756615    15A     -0.696037
      16A     -0.653590    17A     -0.613745    18A     -0.593577
      19A     -0.581685    20A     -0.538129    21A     -0.535657
      22A     -0.531098    23A     -0.522167    24A     -0.511191
      25A     -0.485123    26A     -0.473039    27A     -0.436529
      28A     -0.356551

  @DF-RHF Final Energy:  -309.15020345534413

   => Energetics <=

    Nuclear Repulsion Energy =            299.4153796683208952
    One-Electron Energy =               -1012.3383538877772025
    Two-Electron Energy =                 403.7727707641122379
    Total Energy =                       -309.1502034553441263
  Basis Set: (AUG-CC-PVTZ AUX)
    Blend: AUG-CC-PVTZ-RI
    Molecular point group: c1

    Geometry (in Angstrom), charge = 0, multiplicity = 1:

       Center              X                  Y                   Z               Mass
    ------------   -----------------  -----------------  -----------------  -----------------
         O           -2.391658959091    -1.052022461162    -0.029588298655    15.994914619570
         C           -1.512725659091     0.026996738838    -0.331716998655    12.000000000000
         C           -0.172784959091    -0.176072461162     0.303064701345    12.000000000000
         C            2.328525040909    -0.469184461162     0.278178701345    12.000000000000
         C            0.997269940909    -0.290384161162    -0.339812998655    12.000000000000
         C           -2.195926959091     1.288248538838     0.120725701345    12.000000000000
         C            3.252659040909     0.719568538838     0.007172701345    12.000000000000
         H           -1.357032959091     0.079383538838    -1.446502298655     1.007825032230
         H           -0.190464959091    -0.248562461162     1.391988701345     1.007825032230
         H            2.797699040909    -1.384451461162    -0.104613298655     1.007825032230
         H            2.202818040909    -0.605606461162     1.358034701345     1.007825032230
         H            0.974654040909    -0.215169461162    -1.450140298655     1.007825032230
         H           -2.334426959091     1.245080538838     1.203902701345     1.007825032230
         H           -1.600526959091     2.170327538838    -0.127565298655     1.007825032230
         H           -3.177890959091     1.373029538838    -0.350584298655     1.007825032230
         H            2.824336040909     1.638014538838     0.416539701345     1.007825032230
         H            3.396665040909     0.865082538838    -1.067294298655     1.007825032230
         H            4.235572040909     0.566399538838     0.461272701345     1.007825032230
         H           -1.926950959091    -1.874829461162    -0.263288298655     1.007825032230

  Basis Set: AUG-CC-PVTZ
    Blend: AUG-CC-PVTZ
  Basis Set: (AUG-CC-PVTZ AUX)
    Blend: AUG-CC-PVTZ-JKFIT
	 Reference Energy          =    -309.1502034553441263 [Eh]
	 Singles Energy            =      -0.0000000000000000 [Eh]
	 Same-Spin Energy          =      -0.3169804269580803 [Eh]
	 Opposite-Spin Energy      =      -1.1025922194414886 [Eh]
	 Correlation Energy        =      -1.4195726463995688 [Eh]
	 Total Energy              =    -310.5697761017436846 [Eh]

	 ================> DF-SCS-MP2 Energies <==================
	-----------------------------------------------------------
	 SCS Same-Spin Scale       =       0.3333333333333333 [-]
	 SCS Opposite-Spin Scale   =       1.2000000000000000 [-]
	 SCS Same-Spin Energy      =      -0.1056601423193601 [Eh]
	 SCS Opposite-Spin Energy  =      -1.3231106633297862 [Eh]
	 SCS Correlation Energy    =      -1.4287708056491464 [Eh]
	 SCS Total Energy          =    -310.5789742609932773 [Eh]
	-----------------------------------------------------------

  Dipole Moment: [D]
     X:     1.9017      Y:    -0.0077      Z:    -0.5089     Total:     1.9687

*** Psi4 exiting successfully. Buy a developer a beer!
