                               Psi4 1.4a3.dev225

  ==> Input File <==

--------------------------------------------------------------------------
#psi4
#
memory 32 gb

molecule  {
0 1
  O        2.4733480    -1.0180220    -0.0592030
  C        1.5612870     0.0272190     0.3186860
  C        0.2241640    -0.1896060    -0.3216700
  C       -2.2699720    -0.5538550    -0.2568310
  C       -0.9183080    -0.3574540     0.3612590
  C        2.2155680     1.3228410    -0.1266610
  C       -3.2245640     0.5955150     0.0801580
  H        1.4419647     0.0393143     1.3641148
  H        0.2208170    -0.2229080    -1.4128920
  H       -2.7032570    -1.4976940     0.0989920
  H       -2.1635450    -0.6441890    -1.3439560
  H       -0.8861850    -0.3229140     1.4529890
  H        2.3348110     1.3198720    -1.2134080
  H        1.6025990     2.1805020     0.1626330
  H        3.2041590     1.4168830     0.3297970
  H       -2.8327200     1.5423190    -0.3012060
  H       -3.3500700     0.6943310     1.1626160
  H       -4.2121190     0.4296020    -0.3601990
  H        2.0333780    -1.8594800     0.1548220
units angstrom
no_reorient  #important for SAPT in psi4, default
symmetry c1  #important for SAPT in psi4, default
}

set PROPERTIES_ORIGIN ["COM"]
properties('MP2/aug-cc-pvtz', properties = ['dipole'])
--------------------------------------------------------------------------

    Molecular point group: c1
  Charge       = 0
  Multiplicity = 1
  Basis Set: AUG-CC-PVTZ
    Blend: AUG-CC-PVTZ
  Basis Set: (AUG-CC-PVTZ AUX)
    Blend: AUG-CC-PVTZ-JKFIT

    Orbital Energies [Eh]
    ---------------------

    Doubly Occupied:

       1A    -20.552760     2A    -11.275338     3A    -11.236665
       4A    -11.231070     5A    -11.226507     6A    -11.219957
       7A    -11.210674     8A     -1.351812     9A     -1.094177
      10A     -1.035518    11A     -0.974383    12A     -0.873688
      13A     -0.810540    14A     -0.762880    15A     -0.693888
      16A     -0.655692    17A     -0.610372    18A     -0.595077
      19A     -0.577434    20A     -0.538677    21A     -0.535834
      22A     -0.527788    23A     -0.521546    24A     -0.510297
      25A     -0.487448    26A     -0.472943    27A     -0.442584
      28A     -0.356407

  @DF-RHF Final Energy:  -309.15115287131562

   => Energetics <=

    Nuclear Repulsion Energy =            299.0823894407742500
    One-Electron Energy =               -1011.7031680990075984
    Two-Electron Energy =                 403.4696257869177316
    Total Energy =                       -309.1511528713156167
  Basis Set: (AUG-CC-PVTZ AUX)
    Blend: AUG-CC-PVTZ-RI
    Molecular point group: c1

    Geometry (in Angstrom), charge = 0, multiplicity = 1:

       Center              X                  Y                   Z               Mass
    ------------   -----------------  -----------------  -----------------  -----------------
         O            2.420721035100    -0.987573545776    -0.057278567107    15.994914619570
         C            1.508660035100     0.057667454224     0.320610432893    12.000000000000
         C            0.171537035100    -0.159157545776    -0.319745567107    12.000000000000
         C           -2.322598964900    -0.523406545776    -0.254906567107    12.000000000000
         C           -0.970934964900    -0.327005545776     0.363183432893    12.000000000000
         C            2.162941035100     1.353289454224    -0.124736567107    12.000000000000
         C           -3.277190964900     0.625963454224     0.082082432893    12.000000000000
         H            1.389337735100     0.069762754224     1.366039232893     1.007825032230
         H            0.168190035100    -0.192459545776    -1.410967567107     1.007825032230
         H           -2.755883964900    -1.467245545776     0.100916432893     1.007825032230
         H           -2.216171964900    -0.613740545776    -1.342031567107     1.007825032230
         H           -0.938811964900    -0.292465545776     1.454913432893     1.007825032230
         H            2.282184035100     1.350320454224    -1.211483567107     1.007825032230
         H            1.549972035100     2.210950454224     0.164557432893     1.007825032230
         H            3.151532035100     1.447331454224     0.331721432893     1.007825032230
         H           -2.885346964900     1.572767454224    -0.299281567107     1.007825032230
         H           -3.402696964900     0.724779454224     1.164540432893     1.007825032230
         H           -4.264745964900     0.460050454224    -0.358274567107     1.007825032230
         H            1.980751035100    -1.829031545776     0.156746432893     1.007825032230

  Basis Set: AUG-CC-PVTZ
    Blend: AUG-CC-PVTZ
  Basis Set: (AUG-CC-PVTZ AUX)
    Blend: AUG-CC-PVTZ-JKFIT
	 Reference Energy          =    -309.1511528713156167 [Eh]
	 Singles Energy            =      -0.0000000000000000 [Eh]
	 Same-Spin Energy          =      -0.3165632174460267 [Eh]
	 Opposite-Spin Energy      =      -1.1020969851688429 [Eh]
	 Correlation Energy        =      -1.4186602026148696 [Eh]
	 Total Energy              =    -310.5698130739305043 [Eh]

	 ================> DF-SCS-MP2 Energies <==================
	-----------------------------------------------------------
	 SCS Same-Spin Scale       =       0.3333333333333333 [-]
	 SCS Opposite-Spin Scale   =       1.2000000000000000 [-]
	 SCS Same-Spin Energy      =      -0.1055210724820089 [Eh]
	 SCS Opposite-Spin Energy  =      -1.3225163822026114 [Eh]
	 SCS Correlation Energy    =      -1.4280374546846202 [Eh]
	 SCS Total Energy          =    -310.5791903260002300 [Eh]
	-----------------------------------------------------------

  Dipole Moment: [D]
     X:    -1.9164      Y:    -0.0492      Z:     0.6268     Total:     2.0169

*** Psi4 exiting successfully. Buy a developer a beer!
