                               Psi4 1.3.2 release

  ==> Input File <==

--------------------------------------------------------------------------
#psi4
#
memory 32 gb

molecule  {
0 1
  O       -2.3916800    -1.0522970    -0.0243250
  C       -1.5013820     0.0265210    -0.3499700
  C       -0.1763841    -0.1542779     0.3218322
  C        2.3285040    -0.4694590     0.2834420
  C        0.9860590    -0.2881690    -0.3549330
  C       -2.1754231     1.2929801     0.1419369
  C        3.2526380     0.7192940     0.0124360
  H       -1.3570540     0.0791090    -1.4412390
  H       -0.1904860    -0.2488370     1.3972520
  H        2.7976780    -1.3847260    -0.0993500
  H        2.2027970    -0.6058810     1.3632980
  H        0.9746330    -0.2154440    -1.4448770
  H       -2.3344480     1.2448060     1.2091660
  H       -1.6005480     2.1700530    -0.1223020
  H       -3.1779120     1.3727550    -0.3453210
  H        2.8243150     1.6377400     0.4218030
  H        3.3966440     0.8648080    -1.0620310
  H        4.2355510     0.5661250     0.4665360
  H       -1.9269720    -1.8751040    -0.2580250
units angstrom
no_reorient  #important for SAPT in psi4, default
symmetry c1  #important for SAPT in psi4, default
}

set PROPERTIES_ORIGIN ["COM"]
properties('MP2/aug-cc-pvtz', properties = ['dipole'])
--------------------------------------------------------------------------

    Molecular point group: c1
  Charge       = 0
  Multiplicity = 1
  Basis Set: AUG-CC-PVTZ
    Blend: AUG-CC-PVTZ
  Basis Set: (AUG-CC-PVTZ AUX)
    Blend: AUG-CC-PVTZ-JKFIT

    Orbital Energies [Eh]
    ---------------------

    Doubly Occupied:

       1A    -20.554467     2A    -11.281236     3A    -11.237451
       4A    -11.230347     5A    -11.226631     6A    -11.219367
       7A    -11.210364     8A     -1.353152     9A     -1.093337
      10A     -1.035685    11A     -0.972818    12A     -0.872804
      13A     -0.806671    14A     -0.762806    15A     -0.693422
      16A     -0.653565    17A     -0.609396    18A     -0.595377
      19A     -0.578476    20A     -0.539958    21A     -0.535116
      22A     -0.530905    23A     -0.520566    24A     -0.510769
      25A     -0.487137    26A     -0.470345    27A     -0.441344
      28A     -0.353371

  @DF-RHF Final Energy:  -309.15001709232598

   => Energetics <=

    Nuclear Repulsion Energy =            299.1151582670043467
    One-Electron Energy =               -1011.7765855627720839
    Two-Electron Energy =                 403.5114102034416987
    Total Energy =                       -309.1500170923259816
  Basis Set: (AUG-CC-PVTZ AUX)
    Blend: AUG-CC-PVTZ-RI
    Molecular point group: c1

    Geometry (in Angstrom), charge = 0, multiplicity = 1:

       Center              X                  Y                   Z               Mass
    ------------   -----------------  -----------------  -----------------  -----------------
         O           -2.393711727924    -1.055542978415    -0.027856137074    15.994914619570
         C           -1.503413727924     0.023275021585    -0.353501137074    12.000000000000
         C           -0.178415827924    -0.157523878415     0.318301062926    12.000000000000
         C            2.326472272076    -0.472704978415     0.279910862926    12.000000000000
         C            0.984027272076    -0.291414978415    -0.358464137074    12.000000000000
         C           -2.177454827924     1.289734121585     0.138405762926    12.000000000000
         C            3.250606272076     0.716048021585     0.008904862926    12.000000000000
         H           -1.359085727924     0.075863021585    -1.444770137074     1.007825032230
         H           -0.192517727924    -0.252082978415     1.393720862926     1.007825032230
         H            2.795646272076    -1.387971978415    -0.102881137074     1.007825032230
         H            2.200765272076    -0.609126978415     1.359766862926     1.007825032230
         H            0.972601272076    -0.218689978415    -1.448408137074     1.007825032230
         H           -2.336479727924     1.241560021585     1.205634862926     1.007825032230
         H           -1.602579727924     2.166807021585    -0.125833137074     1.007825032230
         H           -3.179943727924     1.369509021585    -0.348852137074     1.007825032230
         H            2.822283272076     1.634494021585     0.418271862926     1.007825032230
         H            3.394612272076     0.861562021585    -1.065562137074     1.007825032230
         H            4.233519272076     0.562879021585     0.463004862926     1.007825032230
         H           -1.929003727924    -1.878349978415    -0.261556137074     1.007825032230

  Basis Set: AUG-CC-PVTZ
    Blend: AUG-CC-PVTZ
  Basis Set: (AUG-CC-PVTZ AUX)
    Blend: AUG-CC-PVTZ-JKFIT
	 Reference Energy          =    -309.1500170923259816 [Eh]
	 Singles Energy            =      -0.0000000000000000 [Eh]
	 Same-Spin Energy          =      -0.3168915032226586 [Eh]
	 Opposite-Spin Energy      =      -1.1028426388103130 [Eh]
	 Correlation Energy        =      -1.4197341420329717 [Eh]
	 Total Energy              =    -310.5697512343589324 [Eh]

	 ================> DF-SCS-MP2 Energies <==================
	-----------------------------------------------------------
	 SCS Same-Spin Scale       =       0.3333333333333333 [-]
	 SCS Opposite-Spin Scale   =       1.2000000000000000 [-]
	 SCS Same-Spin Energy      =      -0.1056305010742195 [Eh]
	 SCS Opposite-Spin Energy  =      -1.3234111665723756 [Eh]
	 SCS Correlation Energy    =      -1.4290416676465951 [Eh]
	 SCS Total Energy          =    -310.5790587599725541 [Eh]
	-----------------------------------------------------------

  Dipole Moment: [D]
     X:     1.9072      Y:    -0.0214      Z:    -0.5443     Total:     1.9835

*** Psi4 exiting successfully. Buy a developer a beer!
