                               Psi4 1.3.2 release

  ==> Input File <==

--------------------------------------------------------------------------
#psi4
#
memory 32 gb

molecule  {
0 1
  O       -2.3735846    -1.0627646    -0.0104957
  C       -1.5013820     0.0265210    -0.3499700
  C       -0.1816556    -0.1985679     0.3188223
  C        2.3285040    -0.4694590     0.2834420
  C        0.9860590    -0.2881690    -0.3549330
  C       -2.1959480     1.2879740     0.1259890
  C        3.2526380     0.7192940     0.0124360
  H       -1.3570540     0.0791090    -1.4412390
  H       -0.1904860    -0.2488370     1.3972520
  H        2.7976780    -1.3847260    -0.0993500
  H        2.2027970    -0.6058810     1.3632980
  H        0.9746330    -0.2154440    -1.4448770
  H       -2.3344480     1.2448060     1.2091660
  H       -1.6005480     2.1700530    -0.1223020
  H       -3.1779120     1.3727550    -0.3453210
  H        2.8243150     1.6377400     0.4218030
  H        3.3966440     0.8648080    -1.0620310
  H        4.2355510     0.5661250     0.4665360
  H       -1.9269720    -1.8751040    -0.2580250
units angstrom
no_reorient  #important for SAPT in psi4, default
symmetry c1  #important for SAPT in psi4, default
}

set PROPERTIES_ORIGIN ["COM"]
properties('MP2/aug-cc-pvtz', properties = ['dipole'])
--------------------------------------------------------------------------

    Molecular point group: c1
  Charge       = 0
  Multiplicity = 1
  Basis Set: AUG-CC-PVTZ
    Blend: AUG-CC-PVTZ
  Basis Set: (AUG-CC-PVTZ AUX)
    Blend: AUG-CC-PVTZ-JKFIT

    Orbital Energies [Eh]
    ---------------------

    Doubly Occupied:

       1A    -20.550969     2A    -11.281508     3A    -11.237034
       4A    -11.230104     5A    -11.226227     6A    -11.219339
       7A    -11.211576     8A     -1.355161     9A     -1.092803
      10A     -1.035193    11A     -0.973784    12A     -0.873496
      13A     -0.807336    14A     -0.762373    15A     -0.695364
      16A     -0.653446    17A     -0.609981    18A     -0.595505
      19A     -0.578278    20A     -0.539934    21A     -0.535811
      22A     -0.529763    23A     -0.521997    24A     -0.509612
      25A     -0.487117    26A     -0.471054    27A     -0.441235
      28A     -0.353387

  @DF-RHF Final Energy:  -309.15171401048912

   => Energetics <=

    Nuclear Repulsion Energy =            299.1934168277965114
    One-Electron Energy =               -1011.9314892490943976
    Two-Electron Energy =                 403.5863584108087139
    Total Energy =                       -309.1517140104891155
  Basis Set: (AUG-CC-PVTZ AUX)
    Blend: AUG-CC-PVTZ-RI
    Molecular point group: c1

    Geometry (in Angstrom), charge = 0, multiplicity = 1:

       Center              X                  Y                   Z               Mass
    ------------   -----------------  -----------------  -----------------  -----------------
         O           -2.375415282263    -1.058427497646    -0.013963941662    15.994914619570
         C           -1.503212682263     0.030858102354    -0.353438241662    12.000000000000
         C           -0.183486282263    -0.194230797646     0.315354058338    12.000000000000
         C            2.326673317737    -0.465121897646     0.279973758338    12.000000000000
         C            0.984228317737    -0.283831897646    -0.358401241662    12.000000000000
         C           -2.197778682263     1.292311102354     0.122520758338    12.000000000000
         C            3.250807317737     0.723631102354     0.008967758338    12.000000000000
         H           -1.358884682263     0.083446102354    -1.444707241662     1.007825032230
         H           -0.192316682263    -0.244499897646     1.393783758338     1.007825032230
         H            2.795847317737    -1.380388897646    -0.102818241662     1.007825032230
         H            2.200966317737    -0.601543897646     1.359829758338     1.007825032230
         H            0.972802317737    -0.211106897646    -1.448345241662     1.007825032230
         H           -2.336278682263     1.249143102354     1.205697758338     1.007825032230
         H           -1.602378682263     2.174390102354    -0.125770241662     1.007825032230
         H           -3.179742682263     1.377092102354    -0.348789241662     1.007825032230
         H            2.822484317737     1.642077102354     0.418334758338     1.007825032230
         H            3.394813317737     0.869145102354    -1.065499241662     1.007825032230
         H            4.233720317737     0.570462102354     0.463067758338     1.007825032230
         H           -1.928802682263    -1.870766897646    -0.261493241662     1.007825032230

  Basis Set: AUG-CC-PVTZ
    Blend: AUG-CC-PVTZ
  Basis Set: (AUG-CC-PVTZ AUX)
    Blend: AUG-CC-PVTZ-JKFIT
	 Reference Energy          =    -309.1517140104891155 [Eh]
	 Singles Energy            =      -0.0000000000000000 [Eh]
	 Same-Spin Energy          =      -0.3165920842884942 [Eh]
	 Opposite-Spin Energy      =      -1.1021618322733977 [Eh]
	 Correlation Energy        =      -1.4187539165618919 [Eh]
	 Total Energy              =    -310.5704679270510269 [Eh]

	 ================> DF-SCS-MP2 Energies <==================
	-----------------------------------------------------------
	 SCS Same-Spin Scale       =       0.3333333333333333 [-]
	 SCS Opposite-Spin Scale   =       1.2000000000000000 [-]
	 SCS Same-Spin Energy      =      -0.1055306947628314 [Eh]
	 SCS Opposite-Spin Energy  =      -1.3225941987280772 [Eh]
	 SCS Correlation Energy    =      -1.4281248934909085 [Eh]
	 SCS Total Energy          =    -310.5798389039800327 [Eh]
	-----------------------------------------------------------

  Dipole Moment: [D]
     X:     1.8634      Y:     0.0606      Z:    -0.5822     Total:     1.9531

*** Psi4 exiting successfully. Buy a developer a beer!
