                               Psi4 1.3.2 release

  ==> Input File <==

--------------------------------------------------------------------------
#psi4
#
memory 32 gb

molecule  {
0 1
  O       -2.4270517    -1.0303792    -0.0522770
  C       -1.5013820     0.0265210    -0.3499700
  C       -0.1563235    -0.1317267     0.2867411
  C        2.3285040    -0.4694590     0.2834420
  C        0.9860590    -0.2881690    -0.3549330
  C       -2.1959480     1.2879740     0.1259890
  C        3.2526380     0.7192940     0.0124360
  H       -1.3570540     0.0791090    -1.4412390
  H       -0.1904860    -0.2488370     1.3972520
  H        2.7976780    -1.3847260    -0.0993500
  H        2.2027970    -0.6058810     1.3632980
  H        0.9746330    -0.2154440    -1.4448770
  H       -2.3344480     1.2448060     1.2091660
  H       -1.6005480     2.1700530    -0.1223020
  H       -3.1779120     1.3727550    -0.3453210
  H        2.8243150     1.6377400     0.4218030
  H        3.3966440     0.8648080    -1.0620310
  H        4.2355510     0.5661250     0.4665360
  H       -1.9269720    -1.8751040    -0.2580250
units angstrom
no_reorient  #important for SAPT in psi4, default
symmetry c1  #important for SAPT in psi4, default
}

set PROPERTIES_ORIGIN ["COM"]
properties('MP2/aug-cc-pvtz', properties = ['dipole'])
--------------------------------------------------------------------------

    Molecular point group: c1
  Charge       = 0
  Multiplicity = 1
  Basis Set: AUG-CC-PVTZ
    Blend: AUG-CC-PVTZ
  Basis Set: (AUG-CC-PVTZ AUX)
    Blend: AUG-CC-PVTZ-JKFIT

    Orbital Energies [Eh]
    ---------------------

    Doubly Occupied:

       1A    -20.559146     2A    -11.280557     3A    -11.234817
       4A    -11.231705     5A    -11.226799     6A    -11.220248
       7A    -11.208982     8A     -1.348640     9A     -1.098249
      10A     -1.034749    11A     -0.976248    12A     -0.873076
      13A     -0.808015    14A     -0.757275    15A     -0.687919
      16A     -0.655321    17A     -0.612221    18A     -0.592996
      19A     -0.578762    20A     -0.538023    21A     -0.534899
      22A     -0.524286    23A     -0.520811    24A     -0.511624
      25A     -0.487833    26A     -0.471673    27A     -0.438821
      28A     -0.362852

  @DF-RHF Final Energy:  -309.14713609563233

   => Energetics <=

    Nuclear Repulsion Energy =            299.0508100595395717
    One-Electron Energy =               -1011.6427984150800512
    Two-Electron Energy =                 403.4448522599081457
    Total Energy =                       -309.1471360956323338
  Basis Set: (AUG-CC-PVTZ AUX)
    Blend: AUG-CC-PVTZ-RI
    Molecular point group: c1

    Geometry (in Angstrom), charge = 0, multiplicity = 1:

       Center              X                  Y                   Z               Mass
    ------------   -----------------  -----------------  -----------------  -----------------
         O           -2.423375108554    -1.039231344694    -0.045221960653    15.994914619570
         C           -1.497705408554     0.017668855306    -0.342914960653    12.000000000000
         C           -0.152646908554    -0.140578844694     0.293796139347    12.000000000000
         C            2.332180591446    -0.478311144694     0.290497039347    12.000000000000
         C            0.989735591446    -0.297021144694    -0.347877960653    12.000000000000
         C           -2.192271408554     1.279121855306     0.133044039347    12.000000000000
         C            3.256314591446     0.710441855306     0.019491039347    12.000000000000
         H           -1.353377408554     0.070256855306    -1.434183960653     1.007825032230
         H           -0.186809408554    -0.257689144694     1.404307039347     1.007825032230
         H            2.801354591446    -1.393578144694    -0.092294960653     1.007825032230
         H            2.206473591446    -0.614733144694     1.370353039347     1.007825032230
         H            0.978309591446    -0.224296144694    -1.437821960653     1.007825032230
         H           -2.330771408554     1.235953855306     1.216221039347     1.007825032230
         H           -1.596871408554     2.161200855306    -0.115246960653     1.007825032230
         H           -3.174235408554     1.363902855306    -0.338265960653     1.007825032230
         H            2.827991591446     1.628887855306     0.428858039347     1.007825032230
         H            3.400320591446     0.855955855306    -1.054975960653     1.007825032230
         H            4.239227591446     0.557272855306     0.473591039347     1.007825032230
         H           -1.923295408554    -1.883956144694    -0.250969960653     1.007825032230

  Basis Set: AUG-CC-PVTZ
    Blend: AUG-CC-PVTZ
  Basis Set: (AUG-CC-PVTZ AUX)
    Blend: AUG-CC-PVTZ-JKFIT
	 Reference Energy          =    -309.1471360956323338 [Eh]
	 Singles Energy            =      -0.0000000000000000 [Eh]
	 Same-Spin Energy          =      -0.3171465566988823 [Eh]
	 Opposite-Spin Energy      =      -1.1034369116770706 [Eh]
	 Correlation Energy        =      -1.4205834683759528 [Eh]
	 Total Energy              =    -310.5677195640083141 [Eh]

	 ================> DF-SCS-MP2 Energies <==================
	-----------------------------------------------------------
	 SCS Same-Spin Scale       =       0.3333333333333333 [-]
	 SCS Opposite-Spin Scale   =       1.2000000000000000 [-]
	 SCS Same-Spin Energy      =      -0.1057155188996274 [Eh]
	 SCS Opposite-Spin Energy  =      -1.3241242940124847 [Eh]
	 SCS Correlation Energy    =      -1.4298398129121122 [Eh]
	 SCS Total Energy          =    -310.5769759085444548 [Eh]
	-----------------------------------------------------------

  Dipole Moment: [D]
     X:     2.0104      Y:    -0.1011      Z:    -0.5018     Total:     2.0745

*** Psi4 exiting successfully. Buy a developer a beer!
