                               Psi4 1.3.2 release

  ==> Input File <==

--------------------------------------------------------------------------
#psi4
#
memory 32 gb

molecule  {
0 1
  O       -2.3916800    -1.0522970    -0.0243250
  C       -1.5013820     0.0265210    -0.3499700
  C       -0.1728060    -0.1763470     0.3083280
  C        2.3285040    -0.4694590     0.2834420
  C        0.9860590    -0.2881690    -0.3549330
  C       -2.1959480     1.2879740     0.1259890
  C        3.2526380     0.7192940     0.0124360
  H       -1.3570540     0.0791090    -1.4412390
  H       -0.1888662    -0.2421955     1.2974859
  H        2.7976780    -1.3847260    -0.0993500
  H        2.2027970    -0.6058810     1.3632980
  H        0.9746330    -0.2154440    -1.4448770
  H       -2.3344480     1.2448060     1.2091660
  H       -1.6005480     2.1700530    -0.1223020
  H       -3.1779120     1.3727550    -0.3453210
  H        2.8243150     1.6377400     0.4218030
  H        3.3966440     0.8648080    -1.0620310
  H        4.2355510     0.5661250     0.4665360
  H       -1.9269720    -1.8751040    -0.2580250
units angstrom
no_reorient  #important for SAPT in psi4, default
symmetry c1  #important for SAPT in psi4, default
}

set PROPERTIES_ORIGIN ["COM"]
properties('MP2/aug-cc-pvtz', properties = ['dipole'])
--------------------------------------------------------------------------

    Molecular point group: c1
  Charge       = 0
  Multiplicity = 1
  Basis Set: AUG-CC-PVTZ
    Blend: AUG-CC-PVTZ
  Basis Set: (AUG-CC-PVTZ AUX)
    Blend: AUG-CC-PVTZ-JKFIT

    Orbital Energies [Eh]
    ---------------------

    Doubly Occupied:

       1A    -20.553482     2A    -11.279919     3A    -11.235422
       4A    -11.230657     5A    -11.219666     6A    -11.214179
       7A    -11.210626     8A     -1.352715     9A     -1.096561
      10A     -1.035680    11A     -0.975877    12A     -0.874566
      13A     -0.807535    14A     -0.774004    15A     -0.693670
      16A     -0.653937    17A     -0.611754    18A     -0.601012
      19A     -0.578072    20A     -0.545049    21A     -0.536083
      22A     -0.527787    23A     -0.522675    24A     -0.510875
      25A     -0.487490    26A     -0.470921    27A     -0.440992
      28A     -0.356112

  @DF-RHF Final Energy:  -309.14601895449118

   => Energetics <=

    Nuclear Repulsion Energy =            299.6482186990105561
    One-Electron Energy =               -1012.7938400586504031
    Two-Electron Energy =                 403.9996024051486074
    Total Energy =                       -309.1460189544911827
  Basis Set: (AUG-CC-PVTZ AUX)
    Blend: AUG-CC-PVTZ-RI
    Molecular point group: c1

    Geometry (in Angstrom), charge = 0, multiplicity = 1:

       Center              X                  Y                   Z               Mass
    ------------   -----------------  -----------------  -----------------  -----------------
         O           -2.391696226742    -1.052363712779    -0.023320445719    15.994914619570
         C           -1.501398226742     0.026454287221    -0.348965445719    12.000000000000
         C           -0.172822226742    -0.176413712779     0.309332554281    12.000000000000
         C            2.328487773258    -0.469525712779     0.284446554281    12.000000000000
         C            0.986042773258    -0.288235712779    -0.353928445719    12.000000000000
         C           -2.195964226742     1.287907287221     0.126993554281    12.000000000000
         C            3.252621773258     0.719227287221     0.013440554281    12.000000000000
         H           -1.357070226742     0.079042287221    -1.440234445719     1.007825032230
         H           -0.188882426742    -0.242262212779     1.298490454281     1.007825032230
         H            2.797661773258    -1.384792712779    -0.098345445719     1.007825032230
         H            2.202780773258    -0.605947712779     1.364302554281     1.007825032230
         H            0.974616773258    -0.215510712779    -1.443872445719     1.007825032230
         H           -2.334464226742     1.244739287221     1.210170554281     1.007825032230
         H           -1.600564226742     2.169986287221    -0.121297445719     1.007825032230
         H           -3.177928226742     1.372688287221    -0.344316445719     1.007825032230
         H            2.824298773258     1.637673287221     0.422807554281     1.007825032230
         H            3.396627773258     0.864741287221    -1.061026445719     1.007825032230
         H            4.235534773258     0.566058287221     0.467540554281     1.007825032230
         H           -1.926988226742    -1.875170712779    -0.257020445719     1.007825032230

  Basis Set: AUG-CC-PVTZ
    Blend: AUG-CC-PVTZ
  Basis Set: (AUG-CC-PVTZ AUX)
    Blend: AUG-CC-PVTZ-JKFIT
	 Reference Energy          =    -309.1460189544911827 [Eh]
	 Singles Energy            =      -0.0000000000000000 [Eh]
	 Same-Spin Energy          =      -0.3165370091787910 [Eh]
	 Opposite-Spin Energy      =      -1.1019376179354854 [Eh]
	 Correlation Energy        =      -1.4184746271142763 [Eh]
	 Total Energy              =    -310.5644935816054613 [Eh]

	 ================> DF-SCS-MP2 Energies <==================
	-----------------------------------------------------------
	 SCS Same-Spin Scale       =       0.3333333333333333 [-]
	 SCS Opposite-Spin Scale   =       1.2000000000000000 [-]
	 SCS Same-Spin Energy      =      -0.1055123363929303 [Eh]
	 SCS Opposite-Spin Energy  =      -1.3223251415225825 [Eh]
	 SCS Correlation Energy    =      -1.4278374779155127 [Eh]
	 SCS Total Energy          =    -310.5738564324066715 [Eh]
	-----------------------------------------------------------

  Dipole Moment: [D]
     X:     1.9253      Y:     0.0043      Z:    -0.5198     Total:     1.9942

*** Psi4 exiting successfully. Buy a developer a beer!
