                               Psi4 1.3.2 release

  ==> Input File <==

--------------------------------------------------------------------------
#psi4
#
memory 32 gb

molecule  {
0 1
  O       -2.3416617    -1.0999245    -0.0540408
  C       -1.5013820     0.0265210    -0.3499700
  C       -0.1728060    -0.1763470     0.3083280
  C        2.3285040    -0.4694590     0.2834420
  C        0.9860590    -0.2881690    -0.3549330
  C       -2.1337134     1.3296730     0.0996681
  C        3.2526380     0.7192940     0.0124360
  H       -1.3570540     0.0791090    -1.4412390
  H       -0.1904860    -0.2488370     1.3972520
  H        2.7976780    -1.3847260    -0.0993500
  H        2.2027970    -0.6058810     1.3632980
  H        0.9746330    -0.2154440    -1.4448770
  H       -2.3344480     1.2448060     1.2091660
  H       -1.6005480     2.1700530    -0.1223020
  H       -3.1779120     1.3727550    -0.3453210
  H        2.8243150     1.6377400     0.4218030
  H        3.3966440     0.8648080    -1.0620310
  H        4.2355510     0.5661250     0.4665360
  H       -1.9269720    -1.8751040    -0.2580250
units angstrom
no_reorient  #important for SAPT in psi4, default
symmetry c1  #important for SAPT in psi4, default
}

set PROPERTIES_ORIGIN ["COM"]
properties('MP2/aug-cc-pvtz', properties = ['dipole'])
--------------------------------------------------------------------------

    Molecular point group: c1
  Charge       = 0
  Multiplicity = 1
  Basis Set: AUG-CC-PVTZ
    Blend: AUG-CC-PVTZ
  Basis Set: (AUG-CC-PVTZ AUX)
    Blend: AUG-CC-PVTZ-JKFIT

    Orbital Energies [Eh]
    ---------------------

    Doubly Occupied:

       1A    -20.546474     2A    -11.283828     3A    -11.233980
       4A    -11.229469     5A    -11.224973     6A    -11.218863
       7A    -11.215441     8A     -1.367477     9A     -1.094947
      10A     -1.039400    11A     -0.975535    12A     -0.873519
      13A     -0.814209    14A     -0.761086    15A     -0.706809
      16A     -0.652620    17A     -0.610102    18A     -0.592509
      19A     -0.578944    20A     -0.566415    21A     -0.536631
      22A     -0.529734    23A     -0.513472    24A     -0.508511
      25A     -0.486320    26A     -0.465353    27A     -0.438063
      28A     -0.354910

  @DF-RHF Final Energy:  -309.14250446147281

   => Energetics <=

    Nuclear Repulsion Energy =            299.5719209591651406
    One-Electron Energy =               -1012.5896645030903755
    Two-Electron Energy =                 403.8752390824524241
    Total Energy =                       -309.1425044614728108
  Basis Set: (AUG-CC-PVTZ AUX)
    Blend: AUG-CC-PVTZ-RI
    Molecular point group: c1

    Geometry (in Angstrom), charge = 0, multiplicity = 1:

       Center              X                  Y                   Z               Mass
    ------------   -----------------  -----------------  -----------------  -----------------
         O           -2.357116426666    -1.097312559166    -0.046136316782    15.994914619570
         C           -1.516836726666     0.029132940834    -0.342065516782    12.000000000000
         C           -0.188260726666    -0.173735059166     0.316232483218    12.000000000000
         C            2.313049273334    -0.466847059166     0.291346483218    12.000000000000
         C            0.970604273334    -0.285557059166    -0.347028516782    12.000000000000
         C           -2.149168126666     1.332284940834     0.107572583218    12.000000000000
         C            3.237183273334     0.721905940834     0.020340483218    12.000000000000
         H           -1.372508726666     0.081720940834    -1.433334516782     1.007825032230
         H           -0.205940726666    -0.246225059166     1.405156483218     1.007825032230
         H            2.782223273334    -1.382114059166    -0.091445516782     1.007825032230
         H            2.187342273334    -0.603269059166     1.371202483218     1.007825032230
         H            0.959178273334    -0.212832059166    -1.436972516782     1.007825032230
         H           -2.349902726666     1.247417940834     1.217070483218     1.007825032230
         H           -1.616002726666     2.172664940834    -0.114397516782     1.007825032230
         H           -3.193366726666     1.375366940834    -0.337416516782     1.007825032230
         H            2.808860273334     1.640351940834     0.429707483218     1.007825032230
         H            3.381189273334     0.867419940834    -1.054126516782     1.007825032230
         H            4.220096273334     0.568736940834     0.474440483218     1.007825032230
         H           -1.942426726666    -1.872492059166    -0.250120516782     1.007825032230

  Basis Set: AUG-CC-PVTZ
    Blend: AUG-CC-PVTZ
  Basis Set: (AUG-CC-PVTZ AUX)
    Blend: AUG-CC-PVTZ-JKFIT
	 Reference Energy          =    -309.1425044614728108 [Eh]
	 Singles Energy            =      -0.0000000000000000 [Eh]
	 Same-Spin Energy          =      -0.3157905200113213 [Eh]
	 Opposite-Spin Energy      =      -1.1002455662054338 [Eh]
	 Correlation Energy        =      -1.4160360862167551 [Eh]
	 Total Energy              =    -310.5585405476895744 [Eh]

	 ================> DF-SCS-MP2 Energies <==================
	-----------------------------------------------------------
	 SCS Same-Spin Scale       =       0.3333333333333333 [-]
	 SCS Opposite-Spin Scale   =       1.2000000000000000 [-]
	 SCS Same-Spin Energy      =      -0.1052635066704404 [Eh]
	 SCS Opposite-Spin Energy  =      -1.3202946794465205 [Eh]
	 SCS Correlation Energy    =      -1.4255581861169608 [Eh]
	 SCS Total Energy          =    -310.5680626475897839 [Eh]
	-----------------------------------------------------------

  Dipole Moment: [D]
     X:     1.8083      Y:     0.1191      Z:    -0.5229     Total:     1.8861

*** Psi4 exiting successfully. Buy a developer a beer!
