                               Psi4 1.3.2 release

  ==> Input File <==

--------------------------------------------------------------------------
#psi4
#
memory 32 gb

molecule  {
0 1
  O       -2.3916800    -1.0522970    -0.0243250
  C       -1.5013820     0.0265210    -0.3499700
  C       -0.3503593    -0.1492354     0.2203519
  C        2.3285040    -0.4694590     0.2834420
  C        0.9860590    -0.2881690    -0.3549330
  C       -2.1959480     1.2879740     0.1259890
  C        3.2526380     0.7192940     0.0124360
  H       -1.3570540     0.0791090    -1.4412390
  H       -0.1904860    -0.2488370     1.3972520
  H        2.7976780    -1.3847260    -0.0993500
  H        2.2027970    -0.6058810     1.3632980
  H        0.9746330    -0.2154440    -1.4448770
  H       -2.3344480     1.2448060     1.2091660
  H       -1.6005480     2.1700530    -0.1223020
  H       -3.1779120     1.3727550    -0.3453210
  H        2.8243150     1.6377400     0.4218030
  H        3.3966440     0.8648080    -1.0620310
  H        4.2355510     0.5661250     0.4665360
  H       -1.9269720    -1.8751040    -0.2580250
units angstrom
no_reorient  #important for SAPT in psi4, default
symmetry c1  #important for SAPT in psi4, default
}

set PROPERTIES_ORIGIN ["COM"]
properties('MP2/aug-cc-pvtz', properties = ['dipole'])
--------------------------------------------------------------------------

    Molecular point group: c1
  Charge       = 0
  Multiplicity = 1
  Basis Set: AUG-CC-PVTZ
    Blend: AUG-CC-PVTZ
  Basis Set: (AUG-CC-PVTZ AUX)
    Blend: AUG-CC-PVTZ-JKFIT

    Orbital Energies [Eh]
    ---------------------

    Doubly Occupied:

       1A    -20.553934     2A    -11.268468     3A    -11.256070
       4A    -11.240454     5A    -11.238327     6A    -11.222917
       7A    -11.213319     8A     -1.359605     9A     -1.101514
      10A     -1.056789    11A     -0.963252    12A     -0.894008
      13A     -0.811576    14A     -0.754478    15A     -0.700837
      16A     -0.660752    17A     -0.614425    18A     -0.590601
      19A     -0.588281    20A     -0.540831    21A     -0.531275
      22A     -0.529270    23A     -0.524453    24A     -0.503695
      25A     -0.489730    26A     -0.470119    27A     -0.448220
      28A     -0.328317

  @DF-RHF Final Energy:  -309.08550052306845

   => Energetics <=

    Nuclear Repulsion Energy =            300.3521311037774240
    One-Electron Energy =               -1013.9642290326497687
    Two-Electron Energy =                 404.5265974058038978
    Total Energy =                       -309.0855005230684469
  Basis Set: (AUG-CC-PVTZ AUX)
    Blend: AUG-CC-PVTZ-RI
    Molecular point group: c1

    Geometry (in Angstrom), charge = 0, multiplicity = 1:

       Center              X                  Y                   Z               Mass
    ------------   -----------------  -----------------  -----------------  -----------------
         O           -2.370392426963    -1.055547342539    -0.013777257232    15.994914619570
         C           -1.480094426963     0.023270657461    -0.339422257232    12.000000000000
         C           -0.329071726963    -0.152485742539     0.230899642768    12.000000000000
         C            2.349791573037    -0.472709342539     0.293989742768    12.000000000000
         C            1.007346573037    -0.291419342539    -0.344385257232    12.000000000000
         C           -2.174660426963     1.284723657461     0.136536742768    12.000000000000
         C            3.273925573037     0.716043657461     0.022983742768    12.000000000000
         H           -1.335766426963     0.075858657461    -1.430691257232     1.007825032230
         H           -0.169198426963    -0.252087342539     1.407799742768     1.007825032230
         H            2.818965573037    -1.387976342539    -0.088802257232     1.007825032230
         H            2.224084573037    -0.609131342539     1.373845742768     1.007825032230
         H            0.995920573037    -0.218694342539    -1.434329257232     1.007825032230
         H           -2.313160426963     1.241555657461     1.219713742768     1.007825032230
         H           -1.579260426963     2.166802657461    -0.111754257232     1.007825032230
         H           -3.156624426963     1.369504657461    -0.334773257232     1.007825032230
         H            2.845602573037     1.634489657461     0.432350742768     1.007825032230
         H            3.417931573037     0.861557657461    -1.051483257232     1.007825032230
         H            4.256838573037     0.562874657461     0.477083742768     1.007825032230
         H           -1.905684426963    -1.878354342539    -0.247477257232     1.007825032230

  Basis Set: AUG-CC-PVTZ
    Blend: AUG-CC-PVTZ
  Basis Set: (AUG-CC-PVTZ AUX)
    Blend: AUG-CC-PVTZ-JKFIT
	 Reference Energy          =    -309.0855005230684469 [Eh]
	 Singles Energy            =      -0.0000000000000000 [Eh]
	 Same-Spin Energy          =      -0.3222407442570350 [Eh]
	 Opposite-Spin Energy      =      -1.1111969219481490 [Eh]
	 Correlation Energy        =      -1.4334376662051840 [Eh]
	 Total Energy              =    -310.5189381892736264 [Eh]

	 ================> DF-SCS-MP2 Energies <==================
	-----------------------------------------------------------
	 SCS Same-Spin Scale       =       0.3333333333333333 [-]
	 SCS Opposite-Spin Scale   =       1.2000000000000000 [-]
	 SCS Same-Spin Energy      =      -0.1074135814190117 [Eh]
	 SCS Opposite-Spin Energy  =      -1.3334363063377788 [Eh]
	 SCS Correlation Energy    =      -1.4408498877567903 [Eh]
	 SCS Total Energy          =    -310.5263504108252164 [Eh]
	-----------------------------------------------------------

  Dipole Moment: [D]
     X:     1.9943      Y:     0.0737      Z:    -0.5681     Total:     2.0750

*** Psi4 exiting successfully. Buy a developer a beer!
