                               Psi4 1.4a3.dev225

  ==> Input File <==

--------------------------------------------------------------------------
#psi4
#
memory 32 gb

molecule  {
0 1
  O        2.4733480    -1.0180220    -0.0592030
  C        1.5612870     0.0272190     0.3186860
  C        0.2241640    -0.1896060    -0.3216700
  C       -2.2699720    -0.5538550    -0.2568310
  C       -0.9183080    -0.3574540     0.3612590
  C        2.2155680     1.3228410    -0.1266610
  C       -3.2245640     0.5955150     0.0801580
  H        1.4362950     0.0398890     1.4137890
  H        0.2209703    -0.2213828    -1.3629155
  H       -2.7032570    -1.4976940     0.0989920
  H       -2.1635450    -0.6441890    -1.3439560
  H       -0.8861850    -0.3229140     1.4529890
  H        2.3348110     1.3198720    -1.2134080
  H        1.6025990     2.1805020     0.1626330
  H        3.2041590     1.4168830     0.3297970
  H       -2.8327200     1.5423190    -0.3012060
  H       -3.3500700     0.6943310     1.1626160
  H       -4.2121190     0.4296020    -0.3601990
  H        2.0333780    -1.8594800     0.1548220
units angstrom
no_reorient  #important for SAPT in psi4, default
symmetry c1  #important for SAPT in psi4, default
}

set PROPERTIES_ORIGIN ["COM"]
properties('MP2/aug-cc-pvtz', properties = ['dipole'])
--------------------------------------------------------------------------

    Molecular point group: c1
  Charge       = 0
  Multiplicity = 1
  Basis Set: AUG-CC-PVTZ
    Blend: AUG-CC-PVTZ
  Basis Set: (AUG-CC-PVTZ AUX)
    Blend: AUG-CC-PVTZ-JKFIT

    Orbital Energies [Eh]
    ---------------------

    Doubly Occupied:

       1A    -20.553552     2A    -11.281052     3A    -11.236353
       4A    -11.231119     5A    -11.220920     6A    -11.220010
       7A    -11.211074     8A     -1.352163     9A     -1.094730
      10A     -1.034723    11A     -0.974848    12A     -0.873692
      13A     -0.807307    14A     -0.766848    15A     -0.692776
      16A     -0.653504    17A     -0.610705    18A     -0.597671
      19A     -0.577791    20A     -0.542092    21A     -0.535936
      22A     -0.527744    23A     -0.522124    24A     -0.510591
      25A     -0.487583    26A     -0.470995    27A     -0.440895
      28A     -0.356192

  @DF-RHF Final Energy:  -309.15088056983376

   => Energetics <=

    Nuclear Repulsion Energy =            299.0760322072605959
    One-Electron Energy =               -1011.6838500810353025
    Two-Electron Energy =                 403.4569373039409470
    Total Energy =                       -309.1508805698337596
  Basis Set: (AUG-CC-PVTZ AUX)
    Blend: AUG-CC-PVTZ-RI
    Molecular point group: c1

    Geometry (in Angstrom), charge = 0, multiplicity = 1:

       Center              X                  Y                   Z               Mass
    ------------   -----------------  -----------------  -----------------  -----------------
         O            2.420776581427    -0.987594690315    -0.058281980625    15.994914619570
         C            1.508715581427     0.057646309685     0.319607019375    12.000000000000
         C            0.171592581427    -0.159178690315    -0.320748980625    12.000000000000
         C           -2.322543418573    -0.523427690315    -0.255909980625    12.000000000000
         C           -0.970879418573    -0.327026690315     0.362180019375    12.000000000000
         C            2.162996581427     1.353268309685    -0.125739980625    12.000000000000
         C           -3.277135418573     0.625942309685     0.081079019375    12.000000000000
         H            1.383723581427     0.070316309685     1.414710019375     1.007825032230
         H            0.168398881427    -0.190955490315    -1.361994480625     1.007825032230
         H           -2.755828418573    -1.467266690315     0.099913019375     1.007825032230
         H           -2.216116418573    -0.613761690315    -1.343034980625     1.007825032230
         H           -0.938756418573    -0.292486690315     1.453910019375     1.007825032230
         H            2.282239581427     1.350299309685    -1.212486980625     1.007825032230
         H            1.550027581427     2.210929309685     0.163554019375     1.007825032230
         H            3.151587581427     1.447310309685     0.330718019375     1.007825032230
         H           -2.885291418573     1.572746309685    -0.300284980625     1.007825032230
         H           -3.402641418573     0.724758309685     1.163537019375     1.007825032230
         H           -4.264690418573     0.460029309685    -0.359277980625     1.007825032230
         H            1.980806581427    -1.829052690315     0.155743019375     1.007825032230

  Basis Set: AUG-CC-PVTZ
    Blend: AUG-CC-PVTZ
  Basis Set: (AUG-CC-PVTZ AUX)
    Blend: AUG-CC-PVTZ-JKFIT
	 Reference Energy          =    -309.1508805698337596 [Eh]
	 Singles Energy            =      -0.0000000000000000 [Eh]
	 Same-Spin Energy          =      -0.3165596636455572 [Eh]
	 Opposite-Spin Energy      =      -1.1022004176547138 [Eh]
	 Correlation Energy        =      -1.4187600813002710 [Eh]
	 Total Energy              =    -310.5696406511340228 [Eh]

	 ================> DF-SCS-MP2 Energies <==================
	-----------------------------------------------------------
	 SCS Same-Spin Scale       =       0.3333333333333333 [-]
	 SCS Opposite-Spin Scale   =       1.2000000000000000 [-]
	 SCS Same-Spin Energy      =      -0.1055198878818524 [Eh]
	 SCS Opposite-Spin Energy  =      -1.3226405011856566 [Eh]
	 SCS Correlation Energy    =      -1.4281603890675090 [Eh]
	 SCS Total Energy          =    -310.5790409589012597 [Eh]
	-----------------------------------------------------------

  Dipole Moment: [D]
     X:    -1.9140      Y:    -0.0582      Z:     0.5706     Total:     1.9981

*** Psi4 exiting successfully. Buy a developer a beer!
