                               Psi4 1.3.2 release

  ==> Input File <==

--------------------------------------------------------------------------
#psi4
#
memory 32 gb

molecule  {
0 1
  O       -2.3916800    -1.0522970    -0.0243250
  C       -1.4393900     0.1016398    -0.3726449
  C       -0.1728060    -0.1763470     0.3083280
  C        2.3285040    -0.4694590     0.2834420
  C        0.9860590    -0.2881690    -0.3549330
  C       -2.1959480     1.2879740     0.1259890
  C        3.2526380     0.7192940     0.0124360
  H       -1.3570540     0.0791090    -1.4412390
  H       -0.1904860    -0.2488370     1.3972520
  H        2.7976780    -1.3847260    -0.0993500
  H        2.2027970    -0.6058810     1.3632980
  H        0.9746330    -0.2154440    -1.4448770
  H       -2.3344480     1.2448060     1.2091660
  H       -1.6005480     2.1700530    -0.1223020
  H       -3.1779120     1.3727550    -0.3453210
  H        2.8243150     1.6377400     0.4218030
  H        3.3966440     0.8648080    -1.0620310
  H        4.2355510     0.5661250     0.4665360
  H       -1.9269720    -1.8751040    -0.2580250
units angstrom
no_reorient  #important for SAPT in psi4, default
symmetry c1  #important for SAPT in psi4, default
}

set PROPERTIES_ORIGIN ["COM"]
properties('MP2/aug-cc-pvtz', properties = ['dipole'])
--------------------------------------------------------------------------

    Molecular point group: c1
  Charge       = 0
  Multiplicity = 1
  Basis Set: AUG-CC-PVTZ
    Blend: AUG-CC-PVTZ
  Basis Set: (AUG-CC-PVTZ AUX)
    Blend: AUG-CC-PVTZ-JKFIT

    Orbital Energies [Eh]
    ---------------------

    Doubly Occupied:

       1A    -20.540571     2A    -11.281857     3A    -11.239155
       4A    -11.232324     5A    -11.228509     6A    -11.221477
       7A    -11.212678     8A     -1.316502     9A     -1.100831
      10A     -1.042844    11A     -0.979465    12A     -0.877818
      13A     -0.807895    14A     -0.765135    15A     -0.671552
      16A     -0.657046    17A     -0.612609    18A     -0.597450
      19A     -0.569926    20A     -0.543158    21A     -0.537765
      22A     -0.520698    23A     -0.513004    24A     -0.508466
      25A     -0.489545    26A     -0.475359    27A     -0.449460
      28A     -0.357518

  @DF-RHF Final Energy:  -309.14209899807219

   => Energetics <=

    Nuclear Repulsion Energy =            298.8701186768064986
    One-Electron Energy =               -1011.3232011815824762
    Two-Electron Energy =                 403.3109835067037352
    Total Energy =                       -309.1420989980721856
  Basis Set: (AUG-CC-PVTZ AUX)
    Blend: AUG-CC-PVTZ-RI
    Molecular point group: c1

    Geometry (in Angstrom), charge = 0, multiplicity = 1:

       Center              X                  Y                   Z               Mass
    ------------   -----------------  -----------------  -----------------  -----------------
         O           -2.399112355357    -1.061303094567    -0.021606447736    15.994914619570
         C           -1.446822355357     0.092633705433    -0.369926347736    12.000000000000
         C           -0.180238355357    -0.185353094567     0.311046552264    12.000000000000
         C            2.321071644643    -0.478465094567     0.286160552264    12.000000000000
         C            0.978626644643    -0.297175094567    -0.352214447736    12.000000000000
         C           -2.203380355357     1.278967905433     0.128707552264    12.000000000000
         C            3.245205644643     0.710287905433     0.015154552264    12.000000000000
         H           -1.364486355357     0.070102905433    -1.438520447736     1.007825032230
         H           -0.197918355357    -0.257843094567     1.399970552264     1.007825032230
         H            2.790245644643    -1.393732094567    -0.096631447736     1.007825032230
         H            2.195364644643    -0.614887094567     1.366016552264     1.007825032230
         H            0.967200644643    -0.224450094567    -1.442158447736     1.007825032230
         H           -2.341880355357     1.235799905433     1.211884552264     1.007825032230
         H           -1.607980355357     2.161046905433    -0.119583447736     1.007825032230
         H           -3.185344355357     1.363748905433    -0.342602447736     1.007825032230
         H            2.816882644643     1.628733905433     0.424521552264     1.007825032230
         H            3.389211644643     0.855801905433    -1.059312447736     1.007825032230
         H            4.228118644643     0.557118905433     0.469254552264     1.007825032230
         H           -1.934404355357    -1.884110094567    -0.255306447736     1.007825032230

  Basis Set: AUG-CC-PVTZ
    Blend: AUG-CC-PVTZ
  Basis Set: (AUG-CC-PVTZ AUX)
    Blend: AUG-CC-PVTZ-JKFIT
	 Reference Energy          =    -309.1420989980721856 [Eh]
	 Singles Energy            =      -0.0000000000000000 [Eh]
	 Same-Spin Energy          =      -0.3176238816795335 [Eh]
	 Opposite-Spin Energy      =      -1.1047625426409473 [Eh]
	 Correlation Energy        =      -1.4223864243204809 [Eh]
	 Total Energy              =    -310.5644854223926927 [Eh]

	 ================> DF-SCS-MP2 Energies <==================
	-----------------------------------------------------------
	 SCS Same-Spin Scale       =       0.3333333333333333 [-]
	 SCS Opposite-Spin Scale   =       1.2000000000000000 [-]
	 SCS Same-Spin Energy      =      -0.1058746272265112 [Eh]
	 SCS Opposite-Spin Energy  =      -1.3257150511691367 [Eh]
	 SCS Correlation Energy    =      -1.4315896783956479 [Eh]
	 SCS Total Energy          =    -310.5736886764678388 [Eh]
	-----------------------------------------------------------

  Dipole Moment: [D]
     X:     2.1749      Y:     0.3008      Z:    -0.5935     Total:     2.2744

*** Psi4 exiting successfully. Buy a developer a beer!
