                               Psi4 1.3.2 release

  ==> Input File <==

--------------------------------------------------------------------------
#psi4
#
memory 32 gb

molecule  {
0 1
  O       -2.3916800    -1.0522970    -0.0243250
  C       -1.5071151     0.0266293    -0.3382365
  C       -0.1728060    -0.1763470     0.3083280
  C        2.3285040    -0.4694590     0.2834420
  C        0.9916983    -0.2894181    -0.3447662
  C       -2.1959480     1.2879740     0.1259890
  C        3.2526380     0.7192940     0.0124360
  H       -1.3570540     0.0791090    -1.4412390
  H       -0.1904860    -0.2488370     1.3972520
  H        2.7976780    -1.3847260    -0.0993500
  H        2.2027970    -0.6058810     1.3632980
  H        0.9746330    -0.2154440    -1.4448770
  H       -2.3344480     1.2448060     1.2091660
  H       -1.6005480     2.1700530    -0.1223020
  H       -3.1779120     1.3727550    -0.3453210
  H        2.8243150     1.6377400     0.4218030
  H        3.3966440     0.8648080    -1.0620310
  H        4.2355510     0.5661250     0.4665360
  H       -1.9269720    -1.8751040    -0.2580250
units angstrom
no_reorient  #important for SAPT in psi4, default
symmetry c1  #important for SAPT in psi4, default
}

set PROPERTIES_ORIGIN ["COM"]
properties('MP2/aug-cc-pvtz', properties = ['dipole'])
--------------------------------------------------------------------------

    Molecular point group: c1
  Charge       = 0
  Multiplicity = 1
  Basis Set: AUG-CC-PVTZ
    Blend: AUG-CC-PVTZ
  Basis Set: (AUG-CC-PVTZ AUX)
    Blend: AUG-CC-PVTZ-JKFIT

    Orbital Energies [Eh]
    ---------------------

    Doubly Occupied:

       1A    -20.554320     2A    -11.281930     3A    -11.236755
       4A    -11.230382     5A    -11.226004     6A    -11.219873
       7A    -11.210670     8A     -1.355304     9A     -1.095412
      10A     -1.035963    11A     -0.975382    12A     -0.874308
      13A     -0.807348    14A     -0.758611    15A     -0.694499
      16A     -0.653878    17A     -0.612233    18A     -0.594086
      19A     -0.579997    20A     -0.537229    21A     -0.536922
      22A     -0.529504    23A     -0.521952    24A     -0.510787
      25A     -0.486271    26A     -0.472196    27A     -0.438866
      28A     -0.356619

  @DF-RHF Final Energy:  -309.15138913276564

   => Energetics <=

    Nuclear Repulsion Energy =            299.2803984464495102
    One-Electron Energy =               -1012.0889798581482637
    Two-Electron Energy =                 403.6571922789330529
    Total Energy =                       -309.1513891327656438
  Basis Set: (AUG-CC-PVTZ AUX)
    Blend: AUG-CC-PVTZ-RI
    Molecular point group: c1

    Geometry (in Angstrom), charge = 0, multiplicity = 1:

       Center              X                  Y                   Z               Mass
    ------------   -----------------  -----------------  -----------------  -----------------
         O           -2.391668670466    -1.052160062951    -0.026950725216    15.994914619570
         C           -1.507103770466     0.026766237049    -0.340862225216    12.000000000000
         C           -0.172794670466    -0.176210062951     0.305702274784    12.000000000000
         C            2.328515329534    -0.469322062951     0.280816274784    12.000000000000
         C            0.991709629534    -0.289281162951    -0.347391925216    12.000000000000
         C           -2.195936670466     1.288110937049     0.123363274784    12.000000000000
         C            3.252649329534     0.719430937049     0.009810274784    12.000000000000
         H           -1.357042670466     0.079245937049    -1.443864725216     1.007825032230
         H           -0.190474670466    -0.248700062951     1.394626274784     1.007825032230
         H            2.797689329534    -1.384589062951    -0.101975725216     1.007825032230
         H            2.202808329534    -0.605744062951     1.360672274784     1.007825032230
         H            0.974644329534    -0.215307062951    -1.447502725216     1.007825032230
         H           -2.334436670466     1.244942937049     1.206540274784     1.007825032230
         H           -1.600536670466     2.170189937049    -0.124927725216     1.007825032230
         H           -3.177900670466     1.372891937049    -0.347946725216     1.007825032230
         H            2.824326329534     1.637876937049     0.419177274784     1.007825032230
         H            3.396655329534     0.864944937049    -1.064656725216     1.007825032230
         H            4.235562329534     0.566261937049     0.463910274784     1.007825032230
         H           -1.926960670466    -1.874967062951    -0.260650725216     1.007825032230

  Basis Set: AUG-CC-PVTZ
    Blend: AUG-CC-PVTZ
  Basis Set: (AUG-CC-PVTZ AUX)
    Blend: AUG-CC-PVTZ-JKFIT
	 Reference Energy          =    -309.1513891327656438 [Eh]
	 Singles Energy            =      -0.0000000000000000 [Eh]
	 Same-Spin Energy          =      -0.3168366935704956 [Eh]
	 Opposite-Spin Energy      =      -1.1024881950845853 [Eh]
	 Correlation Energy        =      -1.4193248886550809 [Eh]
	 Total Energy              =    -310.5707140214207129 [Eh]

	 ================> DF-SCS-MP2 Energies <==================
	-----------------------------------------------------------
	 SCS Same-Spin Scale       =       0.3333333333333333 [-]
	 SCS Opposite-Spin Scale   =       1.2000000000000000 [-]
	 SCS Same-Spin Energy      =      -0.1056122311901652 [Eh]
	 SCS Opposite-Spin Energy  =      -1.3229858341015024 [Eh]
	 SCS Correlation Energy    =      -1.4285980652916677 [Eh]
	 SCS Total Energy          =    -310.5799871980573243 [Eh]
	-----------------------------------------------------------

  Dipole Moment: [D]
     X:     1.9080      Y:    -0.0002      Z:    -0.5320     Total:     1.9808

*** Psi4 exiting successfully. Buy a developer a beer!
