                               Psi4 1.3.2 release

  ==> Input File <==

--------------------------------------------------------------------------
#psi4
#
memory 32 gb

molecule  {
0 1
  O       -2.3927233    -1.0550410    -0.0365090
  C       -1.5013820     0.0265210    -0.3499700
  C       -0.1728060    -0.1763470     0.3083280
  C        2.3285040    -0.4694590     0.2834420
  C        0.9860590    -0.2881690    -0.3549330
  C       -2.1959480     1.2879740     0.1259890
  C        3.2526380     0.7192940     0.0124360
  H       -1.3629450     0.0715874    -1.4423382
  H       -0.1904860    -0.2488370     1.3972520
  H        2.7976780    -1.3847260    -0.0993500
  H        2.2027970    -0.6058810     1.3632980
  H        0.9746330    -0.2154440    -1.4448770
  H       -2.3344480     1.2448060     1.2091660
  H       -1.6005480     2.1700530    -0.1223020
  H       -3.1779120     1.3727550    -0.3453210
  H        2.8243150     1.6377400     0.4218030
  H        3.3966440     0.8648080    -1.0620310
  H        4.2355510     0.5661250     0.4665360
  H       -1.9269720    -1.8751040    -0.2580250
units angstrom
no_reorient  #important for SAPT in psi4, default
symmetry c1  #important for SAPT in psi4, default
}

set PROPERTIES_ORIGIN ["COM"]
properties('MP2/aug-cc-pvtz', properties = ['dipole'])
--------------------------------------------------------------------------

    Molecular point group: c1
  Charge       = 0
  Multiplicity = 1
  Basis Set: AUG-CC-PVTZ
    Blend: AUG-CC-PVTZ
  Basis Set: (AUG-CC-PVTZ AUX)
    Blend: AUG-CC-PVTZ-JKFIT

    Orbital Energies [Eh]
    ---------------------

    Doubly Occupied:

       1A    -20.552647     2A    -11.281110     3A    -11.236357
       4A    -11.230721     5A    -11.226462     6A    -11.219696
       7A    -11.210916     8A     -1.353391     9A     -1.094747
      10A     -1.035160    11A     -0.974808    12A     -0.873379
      13A     -0.807839    14A     -0.761019    15A     -0.693087
      16A     -0.654432    17A     -0.610893    18A     -0.594705
      19A     -0.578220    20A     -0.538880    21A     -0.536233
      22A     -0.528148    23A     -0.522115    24A     -0.510743
      25A     -0.487450    26A     -0.470793    27A     -0.440501
      28A     -0.356890

  @DF-RHF Final Energy:  -309.15223211972369

   => Energetics <=

    Nuclear Repulsion Energy =            299.1205661667470395
    One-Electron Energy =               -1011.7829151196880275
    Two-Electron Energy =                 403.5101168332172961
    Total Energy =                       -309.1522321197236920
  Basis Set: (AUG-CC-PVTZ AUX)
    Blend: AUG-CC-PVTZ-RI
    Molecular point group: c1

    Geometry (in Angstrom), charge = 0, multiplicity = 1:

       Center              X                  Y                   Z               Mass
    ------------   -----------------  -----------------  -----------------  -----------------
         O           -2.392497171323    -1.054526589180    -0.034550861964    15.994914619570
         C           -1.501155871323     0.027035410820    -0.348011861964    12.000000000000
         C           -0.172579871323    -0.175832589180     0.310286138036    12.000000000000
         C            2.328730128677    -0.468944589180     0.285400138036    12.000000000000
         C            0.986285128677    -0.287654589180    -0.352974861964    12.000000000000
         C           -2.195721871323     1.288488410820     0.127947138036    12.000000000000
         C            3.252864128677     0.719808410820     0.014394138036    12.000000000000
         H           -1.362718871323     0.072101810820    -1.440380061964     1.007825032230
         H           -0.190259871323    -0.248322589180     1.399210138036     1.007825032230
         H            2.797904128677    -1.384211589180    -0.097391861964     1.007825032230
         H            2.203023128677    -0.605366589180     1.365256138036     1.007825032230
         H            0.974859128677    -0.214929589180    -1.442918861964     1.007825032230
         H           -2.334221871323     1.245320410820     1.211124138036     1.007825032230
         H           -1.600321871323     2.170567410820    -0.120343861964     1.007825032230
         H           -3.177685871323     1.373269410820    -0.343362861964     1.007825032230
         H            2.824541128677     1.638254410820     0.423761138036     1.007825032230
         H            3.396870128677     0.865322410820    -1.060072861964     1.007825032230
         H            4.235777128677     0.566639410820     0.468494138036     1.007825032230
         H           -1.926745871323    -1.874589589180    -0.256066861964     1.007825032230

  Basis Set: AUG-CC-PVTZ
    Blend: AUG-CC-PVTZ
  Basis Set: (AUG-CC-PVTZ AUX)
    Blend: AUG-CC-PVTZ-JKFIT
	 Reference Energy          =    -309.1522321197236920 [Eh]
	 Singles Energy            =      -0.0000000000000000 [Eh]
	 Same-Spin Energy          =      -0.3166152902868962 [Eh]
	 Opposite-Spin Energy      =      -1.1022219271331595 [Eh]
	 Correlation Energy        =      -1.4188372174200556 [Eh]
	 Total Energy              =    -310.5710693371437401 [Eh]

	 ================> DF-SCS-MP2 Energies <==================
	-----------------------------------------------------------
	 SCS Same-Spin Scale       =       0.3333333333333333 [-]
	 SCS Opposite-Spin Scale   =       1.2000000000000000 [-]
	 SCS Same-Spin Energy      =      -0.1055384300956320 [Eh]
	 SCS Opposite-Spin Energy  =      -1.3226663125597913 [Eh]
	 SCS Correlation Energy    =      -1.4282047426554234 [Eh]
	 SCS Total Energy          =    -310.5804368623790879 [Eh]
	-----------------------------------------------------------

  Dipole Moment: [D]
     X:     1.9273      Y:     0.0153      Z:    -0.5293     Total:     1.9987

*** Psi4 exiting successfully. Buy a developer a beer!
