                               Psi4 1.4a3.dev225

  ==> Input File <==

--------------------------------------------------------------------------
#psi4
#
memory 32 gb

molecule  {
0 1
  O        2.4733480    -1.0180220    -0.0592030
  C        1.5612870     0.0272190     0.3186860
  C        0.2241640    -0.1896060    -0.3216700
  C       -2.2699720    -0.5538550    -0.2568310
  C       -0.9002762    -0.3548339     0.3695046
  C        2.2155680     1.3228410    -0.1266610
  C       -3.2245640     0.5955150     0.0801580
  H        1.4362950     0.0398890     1.4137890
  H        0.2208170    -0.2229080    -1.4128920
  H       -2.7032570    -1.4976940     0.0989920
  H       -2.1635450    -0.6441890    -1.3439560
  H       -0.8861850    -0.3229140     1.4529890
  H        2.3348110     1.3198720    -1.2134080
  H        1.6025990     2.1805020     0.1626330
  H        3.2041590     1.4168830     0.3297970
  H       -2.8327200     1.5423190    -0.3012060
  H       -3.3500700     0.6943310     1.1626160
  H       -4.2121190     0.4296020    -0.3601990
  H        2.0333780    -1.8594800     0.1548220
units angstrom
no_reorient  #important for SAPT in psi4, default
symmetry c1  #important for SAPT in psi4, default
}

set PROPERTIES_ORIGIN ["COM"]
properties('MP2/aug-cc-pvtz', properties = ['dipole'])
--------------------------------------------------------------------------

    Molecular point group: c1
  Charge       = 0
  Multiplicity = 1
  Basis Set: AUG-CC-PVTZ
    Blend: AUG-CC-PVTZ
  Basis Set: (AUG-CC-PVTZ AUX)
    Blend: AUG-CC-PVTZ-JKFIT

    Orbital Energies [Eh]
    ---------------------

    Doubly Occupied:

       1A    -20.553523     2A    -11.281216     3A    -11.235218
       4A    -11.231678     5A    -11.225499     6A    -11.219615
       7A    -11.211013     8A     -1.352160     9A     -1.093453
      10A     -1.033484    11A     -0.975525    12A     -0.871121
      13A     -0.807352    14A     -0.761830    15A     -0.692248
      16A     -0.654121    17A     -0.608536    18A     -0.594502
      19A     -0.577939    20A     -0.541566    21A     -0.534793
      22A     -0.527512    23A     -0.521137    24A     -0.509631
      25A     -0.488290    26A     -0.468648    27A     -0.439673
      28A     -0.359773

  @DF-RHF Final Energy:  -309.15196472270907

   => Energetics <=

    Nuclear Repulsion Energy =            298.8579861263045245
    One-Electron Energy =               -1011.2777841913047041
    Two-Electron Energy =                 403.2678333422910555
    Total Energy =                       -309.1519647227090672
  Basis Set: (AUG-CC-PVTZ AUX)
    Blend: AUG-CC-PVTZ-RI
    Molecular point group: c1

    Geometry (in Angstrom), charge = 0, multiplicity = 1:

       Center              X                  Y                   Z               Mass
    ------------   -----------------  -----------------  -----------------  -----------------
         O            2.418616229139    -0.987893465610    -0.058767345871    15.994914619570
         C            1.506555229139     0.057347534390     0.319121654129    12.000000000000
         C            0.169432229139    -0.159477465610    -0.321234345871    12.000000000000
         C           -2.324703770861    -0.523726465610    -0.256395345871    12.000000000000
         C           -0.955007970861    -0.324705365610     0.369940254129    12.000000000000
         C            2.160836229139     1.352969534390    -0.126225345871    12.000000000000
         C           -3.279295770861     0.625643534390     0.080593654129    12.000000000000
         H            1.381563229139     0.070017534390     1.414224654129     1.007825032230
         H            0.166085229139    -0.192779465610    -1.412456345871     1.007825032230
         H           -2.757988770861    -1.467565465610     0.099427654129     1.007825032230
         H           -2.218276770861    -0.614060465610    -1.343520345871     1.007825032230
         H           -0.940916770861    -0.292785465610     1.453424654129     1.007825032230
         H            2.280079229139     1.350000534390    -1.212972345871     1.007825032230
         H            1.547867229139     2.210630534390     0.163068654129     1.007825032230
         H            3.149427229139     1.447011534390     0.330232654129     1.007825032230
         H           -2.887451770861     1.572447534390    -0.300770345871     1.007825032230
         H           -3.404801770861     0.724459534390     1.163051654129     1.007825032230
         H           -4.266850770861     0.459730534390    -0.359763345871     1.007825032230
         H            1.978646229139    -1.829351465610     0.155257654129     1.007825032230

  Basis Set: AUG-CC-PVTZ
    Blend: AUG-CC-PVTZ
  Basis Set: (AUG-CC-PVTZ AUX)
    Blend: AUG-CC-PVTZ-JKFIT
	 Reference Energy          =    -309.1519647227090672 [Eh]
	 Singles Energy            =      -0.0000000000000000 [Eh]
	 Same-Spin Energy          =      -0.3163762647878279 [Eh]
	 Opposite-Spin Energy      =      -1.1020798550912341 [Eh]
	 Correlation Energy        =      -1.4184561198790619 [Eh]
	 Total Energy              =    -310.5704208425881347 [Eh]

	 ================> DF-SCS-MP2 Energies <==================
	-----------------------------------------------------------
	 SCS Same-Spin Scale       =       0.3333333333333333 [-]
	 SCS Opposite-Spin Scale   =       1.2000000000000000 [-]
	 SCS Same-Spin Energy      =      -0.1054587549292759 [Eh]
	 SCS Opposite-Spin Energy  =      -1.3224958261094808 [Eh]
	 SCS Correlation Energy    =      -1.4279545810387568 [Eh]
	 SCS Total Energy          =    -310.5799193037478290 [Eh]
	-----------------------------------------------------------

  Dipole Moment: [D]
     X:    -1.8902      Y:    -0.0559      Z:     0.5930     Total:     1.9818

*** Psi4 exiting successfully. Buy a developer a beer!
