                               Psi4 1.3.2 release

  ==> Input File <==

--------------------------------------------------------------------------
#psi4
#
memory 32 gb

molecule  {
0 1
  O       -2.3916800    -1.0522970    -0.0243250
  C       -1.5013820     0.0265210    -0.3499700
  C       -0.1728060    -0.1763470     0.3083280
  C        2.3285040    -0.4694590     0.2834420
  C        0.9971934    -0.2910818    -0.3345754
  C       -2.1959480     1.2879740     0.1259890
  C        3.2526380     0.7192940     0.0124360
  H       -1.3570540     0.0791090    -1.4412390
  H       -0.1716095    -0.2513994     1.3972213
  H        2.7976780    -1.3847260    -0.0993500
  H        2.2027970    -0.6058810     1.3632980
  H        0.9746330    -0.2154440    -1.4448770
  H       -2.3344480     1.2448060     1.2091660
  H       -1.6005480     2.1700530    -0.1223020
  H       -3.1779120     1.3727550    -0.3453210
  H        2.8243150     1.6377400     0.4218030
  H        3.3966440     0.8648080    -1.0620310
  H        4.2355510     0.5661250     0.4665360
  H       -1.9269720    -1.8751040    -0.2580250
units angstrom
no_reorient  #important for SAPT in psi4, default
symmetry c1  #important for SAPT in psi4, default
}

set PROPERTIES_ORIGIN ["COM"]
properties('MP2/aug-cc-pvtz', properties = ['dipole'])
--------------------------------------------------------------------------

    Molecular point group: c1
  Charge       = 0
  Multiplicity = 1
  Basis Set: AUG-CC-PVTZ
    Blend: AUG-CC-PVTZ
  Basis Set: (AUG-CC-PVTZ AUX)
    Blend: AUG-CC-PVTZ-JKFIT

    Orbital Energies [Eh]
    ---------------------

    Doubly Occupied:

       1A    -20.553902     2A    -11.282139     3A    -11.236829
       4A    -11.230093     5A    -11.225912     6A    -11.220164
       7A    -11.210929     8A     -1.353102     9A     -1.096564
      10A     -1.035961    11A     -0.974865    12A     -0.875256
      13A     -0.808296    14A     -0.757305    15A     -0.693444
      16A     -0.653883    17A     -0.613412    18A     -0.594434
      19A     -0.578608    20A     -0.538012    21A     -0.534916
      22A     -0.528149    23A     -0.522032    24A     -0.510720
      25A     -0.484977    26A     -0.473616    27A     -0.442027
      28A     -0.356129

  @DF-RHF Final Energy:  -309.15086810106811

   => Energetics <=

    Nuclear Repulsion Energy =            299.2518256474857026
    One-Electron Energy =               -1012.0340369850346178
    Two-Electron Energy =                 403.6313432364808023
    Total Energy =                       -309.1508681010681130
  Basis Set: (AUG-CC-PVTZ AUX)
    Blend: AUG-CC-PVTZ-RI
    Molecular point group: c1

    Geometry (in Angstrom), charge = 0, multiplicity = 1:

       Center              X                  Y                   Z               Mass
    ------------   -----------------  -----------------  -----------------  -----------------
         O           -2.393204932127    -1.051921810047    -0.026765456360    15.994914619570
         C           -1.502906932127     0.026896189953    -0.352410456360    12.000000000000
         C           -0.174330932127    -0.175971810047     0.305887543640    12.000000000000
         C            2.326979067873    -0.469083810047     0.281001543640    12.000000000000
         C            0.995668467873    -0.290706610047    -0.337015856360    12.000000000000
         C           -2.197472932127     1.288349189953     0.123548543640    12.000000000000
         C            3.251113067873     0.719669189953     0.009995543640    12.000000000000
         H           -1.358578932127     0.079484189953    -1.443679456360     1.007825032230
         H           -0.173134432127    -0.251024210047     1.394780843640     1.007825032230
         H            2.796153067873    -1.384350810047    -0.101790456360     1.007825032230
         H            2.201272067873    -0.605505810047     1.360857543640     1.007825032230
         H            0.973108067873    -0.215068810047    -1.447317456360     1.007825032230
         H           -2.335972932127     1.245181189953     1.206725543640     1.007825032230
         H           -1.602072932127     2.170428189953    -0.124742456360     1.007825032230
         H           -3.179436932127     1.373130189953    -0.347761456360     1.007825032230
         H            2.822790067873     1.638115189953     0.419362543640     1.007825032230
         H            3.395119067873     0.865183189953    -1.064471456360     1.007825032230
         H            4.234026067873     0.566500189953     0.464095543640     1.007825032230
         H           -1.928496932127    -1.874728810047    -0.260465456360     1.007825032230

  Basis Set: AUG-CC-PVTZ
    Blend: AUG-CC-PVTZ
  Basis Set: (AUG-CC-PVTZ AUX)
    Blend: AUG-CC-PVTZ-JKFIT
	 Reference Energy          =    -309.1508681010681130 [Eh]
	 Singles Energy            =      -0.0000000000000000 [Eh]
	 Same-Spin Energy          =      -0.3169309472849159 [Eh]
	 Opposite-Spin Energy      =      -1.1026763771264196 [Eh]
	 Correlation Energy        =      -1.4196073244113356 [Eh]
	 Total Energy              =    -310.5704754254794580 [Eh]

	 ================> DF-SCS-MP2 Energies <==================
	-----------------------------------------------------------
	 SCS Same-Spin Scale       =       0.3333333333333333 [-]
	 SCS Opposite-Spin Scale   =       1.2000000000000000 [-]
	 SCS Same-Spin Energy      =      -0.1056436490949720 [Eh]
	 SCS Opposite-Spin Energy  =      -1.3232116525517035 [Eh]
	 SCS Correlation Energy    =      -1.4288553016466754 [Eh]
	 SCS Total Energy          =    -310.5797234027147624 [Eh]
	-----------------------------------------------------------

  Dipole Moment: [D]
     X:     1.9318      Y:     0.0078      Z:    -0.5432     Total:     2.0067

*** Psi4 exiting successfully. Buy a developer a beer!
