                               Psi4 1.3.2 release

  ==> Input File <==

--------------------------------------------------------------------------
#psi4
#
memory 32 gb

molecule  {
0 1
  O       -2.3916800    -1.0522970    -0.0243250
  C       -1.5013820     0.0265210    -0.3499700
  C       -0.1728060    -0.1763470     0.3083280
  C        2.3285040    -0.4694590     0.2834420
  C        1.0097440    -0.2836096    -0.4013057
  C       -2.1959480     1.2879740     0.1259890
  C        3.2526380     0.7192940     0.0124360
  H       -1.3570540     0.0791090    -1.4412390
  H       -0.1904860    -0.2488370     1.3972520
  H        2.7976780    -1.3847260    -0.0993500
  H        2.2407645    -0.6090283     1.3666430
  H        0.9746330    -0.2154440    -1.4448770
  H       -2.3344480     1.2448060     1.2091660
  H       -1.6005480     2.1700530    -0.1223020
  H       -3.1779120     1.3727550    -0.3453210
  H        2.8243150     1.6377400     0.4218030
  H        3.3966440     0.8648080    -1.0620310
  H        4.2355510     0.5661250     0.4665360
  H       -1.9269720    -1.8751040    -0.2580250
units angstrom
no_reorient  #important for SAPT in psi4, default
symmetry c1  #important for SAPT in psi4, default
}

set PROPERTIES_ORIGIN ["COM"]
properties('MP2/aug-cc-pvtz', properties = ['dipole'])
--------------------------------------------------------------------------

    Molecular point group: c1
  Charge       = 0
  Multiplicity = 1
  Basis Set: AUG-CC-PVTZ
    Blend: AUG-CC-PVTZ
  Basis Set: (AUG-CC-PVTZ AUX)
    Blend: AUG-CC-PVTZ-JKFIT

    Orbital Energies [Eh]
    ---------------------

    Doubly Occupied:

       1A    -20.553279     2A    -11.280662     3A    -11.239162
       4A    -11.232555     5A    -11.230703     6A    -11.218707
       7A    -11.210460     8A     -1.352524     9A     -1.090505
      10A     -1.034575    11A     -0.970267    12A     -0.873000
      13A     -0.805837    14A     -0.768674    15A     -0.692295
      16A     -0.653416    17A     -0.608670    18A     -0.596482
      19A     -0.577667    20A     -0.543441    21A     -0.534111
      22A     -0.527298    23A     -0.521497    24A     -0.511105
      25A     -0.491690    26A     -0.469524    27A     -0.440307
      28A     -0.346912

  @DF-RHF Final Energy:  -309.14586727611049

   => Energetics <=

    Nuclear Repulsion Energy =            298.6169892822906036
    One-Electron Energy =               -1010.7750634499792568
    Two-Electron Energy =                 403.0122068915782165
    Total Energy =                       -309.1458672761104935
  Basis Set: (AUG-CC-PVTZ AUX)
    Blend: AUG-CC-PVTZ-RI
    Molecular point group: c1

    Geometry (in Angstrom), charge = 0, multiplicity = 1:

       Center              X                  Y                   Z               Mass
    ------------   -----------------  -----------------  -----------------  -----------------
         O           -2.394901900841    -1.052811788844    -0.018798916992    15.994914619570
         C           -1.504603900841     0.026006211156    -0.344443916992    12.000000000000
         C           -0.176027900841    -0.176861788844     0.313854083008    12.000000000000
         C            2.325282099159    -0.469973788844     0.288968083008    12.000000000000
         C            1.006522099159    -0.284124388844    -0.395779616992    12.000000000000
         C           -2.199169900841     1.287459211156     0.131515083008    12.000000000000
         C            3.249416099159     0.718779211156     0.017962083008    12.000000000000
         H           -1.360275900841     0.078594211156    -1.435712916992     1.007825032230
         H           -0.193707900841    -0.249351788844     1.402778083008     1.007825032230
         H            2.794456099159    -1.385240788844    -0.093823916992     1.007825032230
         H            2.237542599159    -0.609543088844     1.372169083008     1.007825032230
         H            0.971411099159    -0.215958788844    -1.439350916992     1.007825032230
         H           -2.337669900841     1.244291211156     1.214692083008     1.007825032230
         H           -1.603769900841     2.169538211156    -0.116775916992     1.007825032230
         H           -3.181133900841     1.372240211156    -0.339794916992     1.007825032230
         H            2.821093099159     1.637225211156     0.427329083008     1.007825032230
         H            3.393422099159     0.864293211156    -1.056504916992     1.007825032230
         H            4.232329099159     0.565610211156     0.472062083008     1.007825032230
         H           -1.930193900841    -1.875618788844    -0.252498916992     1.007825032230

  Basis Set: AUG-CC-PVTZ
    Blend: AUG-CC-PVTZ
  Basis Set: (AUG-CC-PVTZ AUX)
    Blend: AUG-CC-PVTZ-JKFIT
	 Reference Energy          =    -309.1458672761104935 [Eh]
	 Singles Energy            =      -0.0000000000000000 [Eh]
	 Same-Spin Energy          =      -0.3171565216451446 [Eh]
	 Opposite-Spin Energy      =      -1.1035868331289274 [Eh]
	 Correlation Energy        =      -1.4207433547740720 [Eh]
	 Total Energy              =    -310.5666106308845542 [Eh]

	 ================> DF-SCS-MP2 Energies <==================
	-----------------------------------------------------------
	 SCS Same-Spin Scale       =       0.3333333333333333 [-]
	 SCS Opposite-Spin Scale   =       1.2000000000000000 [-]
	 SCS Same-Spin Energy      =      -0.1057188405483815 [Eh]
	 SCS Opposite-Spin Energy  =      -1.3243041997547127 [Eh]
	 SCS Correlation Energy    =      -1.4300230403030942 [Eh]
	 SCS Total Energy          =    -310.5758903164135631 [Eh]
	-----------------------------------------------------------

  Dipole Moment: [D]
     X:     1.9187      Y:    -0.0053      Z:    -0.5628     Total:     1.9995

*** Psi4 exiting successfully. Buy a developer a beer!
