                               Psi4 1.3.2 release

  ==> Input File <==

--------------------------------------------------------------------------
#psi4
#
memory 32 gb

molecule  {
0 1
  O       -2.3916800    -1.0522970    -0.0243250
  C       -1.5013820     0.0265210    -0.3499700
  C       -0.1728060    -0.1763470     0.3083280
  C        2.3604430    -0.4680767     0.2118553
  C        0.9860590    -0.2881690    -0.3549330
  C       -2.1959480     1.2879740     0.1259890
  C        3.2526380     0.7192940     0.0124360
  H       -1.3570540     0.0791090    -1.4412390
  H       -0.1904860    -0.2488370     1.3972520
  H        2.7976780    -1.3847260    -0.0993500
  H        2.2027970    -0.6058810     1.3632980
  H        1.0315143    -0.2213835    -1.4443691
  H       -2.3344480     1.2448060     1.2091660
  H       -1.6005480     2.1700530    -0.1223020
  H       -3.1779120     1.3727550    -0.3453210
  H        2.8243150     1.6377400     0.4218030
  H        3.3966440     0.8648080    -1.0620310
  H        4.2355510     0.5661250     0.4665360
  H       -1.9269720    -1.8751040    -0.2580250
units angstrom
no_reorient  #important for SAPT in psi4, default
symmetry c1  #important for SAPT in psi4, default
}

set PROPERTIES_ORIGIN ["COM"]
properties('MP2/aug-cc-pvtz', properties = ['dipole'])
--------------------------------------------------------------------------

    Molecular point group: c1
  Charge       = 0
  Multiplicity = 1
  Basis Set: AUG-CC-PVTZ
    Blend: AUG-CC-PVTZ
  Basis Set: (AUG-CC-PVTZ AUX)
    Blend: AUG-CC-PVTZ-JKFIT

    Orbital Energies [Eh]
    ---------------------

    Doubly Occupied:

       1A    -20.554167     2A    -11.281905     3A    -11.237138
       4A    -11.231901     5A    -11.229040     6A    -11.219010
       7A    -11.211143     8A     -1.353377     9A     -1.095713
      10A     -1.038315    11A     -0.976790    12A     -0.874734
      13A     -0.807255    14A     -0.758958    15A     -0.693671
      16A     -0.654436    17A     -0.618264    18A     -0.590698
      19A     -0.579000    20A     -0.548137    21A     -0.537902
      22A     -0.528895    23A     -0.524781    24A     -0.512907
      25A     -0.475612    26A     -0.459617    27A     -0.441458
      28A     -0.359666

  @DF-RHF Final Energy:  -309.14402018466285

   => Energetics <=

    Nuclear Repulsion Energy =            299.1570746486317489
    One-Electron Energy =               -1011.8132134380618936
    Two-Electron Energy =                 403.5121186047672381
    Total Energy =                       -309.1440201846628497
  Basis Set: (AUG-CC-PVTZ AUX)
    Blend: AUG-CC-PVTZ-RI
    Molecular point group: c1

    Geometry (in Angstrom), charge = 0, multiplicity = 1:

       Center              X                  Y                   Z               Mass
    ------------   -----------------  -----------------  -----------------  -----------------
         O           -2.396081950791    -1.052402759633    -0.015747354234    15.994914619570
         C           -1.505783950791     0.026415240367    -0.341392354234    12.000000000000
         C           -0.177207950791    -0.176452759633     0.316905645766    12.000000000000
         C            2.356041049209    -0.468182459633     0.220432945766    12.000000000000
         C            0.981657049209    -0.288274759633    -0.346355354234    12.000000000000
         C           -2.200349950791     1.287868240367     0.134566645766    12.000000000000
         C            3.248236049209     0.719188240367     0.021013645766    12.000000000000
         H           -1.361455950791     0.079003240367    -1.432661354234     1.007825032230
         H           -0.194887950791    -0.248942759633     1.405829645766     1.007825032230
         H            2.793276049209    -1.384831759633    -0.090772354234     1.007825032230
         H            2.198395049209    -0.605986759633     1.371875645766     1.007825032230
         H            1.027112349209    -0.221489259633    -1.435791454234     1.007825032230
         H           -2.338849950791     1.244700240367     1.217743645766     1.007825032230
         H           -1.604949950791     2.169947240367    -0.113724354234     1.007825032230
         H           -3.182313950791     1.372649240367    -0.336743354234     1.007825032230
         H            2.819913049209     1.637634240367     0.430380645766     1.007825032230
         H            3.392242049209     0.864702240367    -1.053453354234     1.007825032230
         H            4.231149049209     0.566019240367     0.475113645766     1.007825032230
         H           -1.931373950791    -1.875209759633    -0.249447354234     1.007825032230

  Basis Set: AUG-CC-PVTZ
    Blend: AUG-CC-PVTZ
  Basis Set: (AUG-CC-PVTZ AUX)
    Blend: AUG-CC-PVTZ-JKFIT
	 Reference Energy          =    -309.1440201846628497 [Eh]
	 Singles Energy            =      -0.0000000000000000 [Eh]
	 Same-Spin Energy          =      -0.3169898243244774 [Eh]
	 Opposite-Spin Energy      =      -1.1031290818809285 [Eh]
	 Correlation Energy        =      -1.4201189062054058 [Eh]
	 Total Energy              =    -310.5641390908682524 [Eh]

	 ================> DF-SCS-MP2 Energies <==================
	-----------------------------------------------------------
	 SCS Same-Spin Scale       =       0.3333333333333333 [-]
	 SCS Opposite-Spin Scale   =       1.2000000000000000 [-]
	 SCS Same-Spin Energy      =      -0.1056632747748258 [Eh]
	 SCS Opposite-Spin Energy  =      -1.3237548982571141 [Eh]
	 SCS Correlation Energy    =      -1.4294181730319400 [Eh]
	 SCS Total Energy          =    -310.5734383576947835 [Eh]
	-----------------------------------------------------------

  Dipole Moment: [D]
     X:     1.9046      Y:     0.0168      Z:    -0.6001     Total:     1.9969

*** Psi4 exiting successfully. Buy a developer a beer!
