                               Psi4 1.4a3.dev225

  ==> Input File <==

--------------------------------------------------------------------------
#psi4
#
memory 32 gb

molecule  {
0 1
  O        2.4733480    -1.0180220    -0.0592030
  C        1.5612870     0.0272190     0.3186860
  C        0.2687847    -0.1823704    -0.3003009
  C       -2.2699720    -0.5538550    -0.2568310
  C       -0.9183080    -0.3574540     0.3612590
  C        2.2155680     1.3228410    -0.1266610
  C       -3.2245640     0.5955150     0.0801580
  H        1.4362950     0.0398890     1.4137890
  H        0.2208170    -0.2229080    -1.4128920
  H       -2.7032570    -1.4976940     0.0989920
  H       -2.1635450    -0.6441890    -1.3439560
  H       -0.8861850    -0.3229140     1.4529890
  H        2.3348110     1.3198720    -1.2134080
  H        1.6025990     2.1805020     0.1626330
  H        3.2041590     1.4168830     0.3297970
  H       -2.8327200     1.5423190    -0.3012060
  H       -3.3500700     0.6943310     1.1626160
  H       -4.2121190     0.4296020    -0.3601990
  H        2.0333780    -1.8594800     0.1548220
units angstrom
no_reorient  #important for SAPT in psi4, default
symmetry c1  #important for SAPT in psi4, default
}

set PROPERTIES_ORIGIN ["COM"]
properties('MP2/aug-cc-pvtz', properties = ['dipole'])
--------------------------------------------------------------------------

    Molecular point group: c1
  Charge       = 0
  Multiplicity = 1
  Basis Set: AUG-CC-PVTZ
    Blend: AUG-CC-PVTZ
  Basis Set: (AUG-CC-PVTZ AUX)
    Blend: AUG-CC-PVTZ-JKFIT

    Orbital Energies [Eh]
    ---------------------

    Doubly Occupied:

       1A    -20.553589     2A    -11.279151     3A    -11.241611
       4A    -11.233047     5A    -11.230368     6A    -11.220846
       7A    -11.211521     8A     -1.353486     9A     -1.092934
      10A     -1.039656    11A     -0.971542    12A     -0.877903
      13A     -0.808765    14A     -0.758578    15A     -0.694306
      16A     -0.655118    17A     -0.610747    18A     -0.593159
      19A     -0.580297    20A     -0.537225    21A     -0.533186
      22A     -0.528421    23A     -0.522044    24A     -0.508898
      25A     -0.485878    26A     -0.475262    27A     -0.446352
      28A     -0.349675

  @DF-RHF Final Energy:  -309.14653203806557

   => Energetics <=

    Nuclear Repulsion Energy =            299.0606300845361716
    One-Electron Energy =               -1011.6271914091396411
    Two-Electron Energy =                 403.4200292865379538
    Total Energy =                       -309.1465320380655726
  Basis Set: (AUG-CC-PVTZ AUX)
    Blend: AUG-CC-PVTZ-RI
    Molecular point group: c1

    Geometry (in Angstrom), charge = 0, multiplicity = 1:

       Center              X                  Y                   Z               Mass
    ------------   -----------------  -----------------  -----------------  -----------------
         O            2.415428392417    -0.988446834136    -0.060340768435    15.994914619570
         C            1.503367392417     0.056794165864     0.317548231565    12.000000000000
         C            0.210865092417    -0.152795234136    -0.301438668435    12.000000000000
         C           -2.327891607583    -0.524279834136    -0.257968768435    12.000000000000
         C           -0.976227607583    -0.327878834136     0.360121231565    12.000000000000
         C            2.157648392417     1.352416165864    -0.127798768435    12.000000000000
         C           -3.282483607583     0.625090165864     0.079020231565    12.000000000000
         H            1.378375392417     0.069464165864     1.412651231565     1.007825032230
         H            0.162897392417    -0.193332834136    -1.414029768435     1.007825032230
         H           -2.761176607583    -1.468118834136     0.097854231565     1.007825032230
         H           -2.221464607583    -0.614613834136    -1.345093768435     1.007825032230
         H           -0.944104607583    -0.293338834136     1.451851231565     1.007825032230
         H            2.276891392417     1.349447165864    -1.214545768435     1.007825032230
         H            1.544679392417     2.210077165864     0.161495231565     1.007825032230
         H            3.146239392417     1.446458165864     0.328659231565     1.007825032230
         H           -2.890639607583     1.571894165864    -0.302343768435     1.007825032230
         H           -3.407989607583     0.723906165864     1.161478231565     1.007825032230
         H           -4.270038607583     0.459177165864    -0.361336768435     1.007825032230
         H            1.975458392417    -1.829904834136     0.153684231565     1.007825032230

  Basis Set: AUG-CC-PVTZ
    Blend: AUG-CC-PVTZ
  Basis Set: (AUG-CC-PVTZ AUX)
    Blend: AUG-CC-PVTZ-JKFIT
	 Reference Energy          =    -309.1465320380655726 [Eh]
	 Singles Energy            =      -0.0000000000000000 [Eh]
	 Same-Spin Energy          =      -0.3175555524776879 [Eh]
	 Opposite-Spin Energy      =      -1.1039004961316041 [Eh]
	 Correlation Energy        =      -1.4214560486092920 [Eh]
	 Total Energy              =    -310.5679880866748590 [Eh]

	 ================> DF-SCS-MP2 Energies <==================
	-----------------------------------------------------------
	 SCS Same-Spin Scale       =       0.3333333333333333 [-]
	 SCS Opposite-Spin Scale   =       1.2000000000000000 [-]
	 SCS Same-Spin Energy      =      -0.1058518508258959 [Eh]
	 SCS Opposite-Spin Energy  =      -1.3246805953579248 [Eh]
	 SCS Correlation Energy    =      -1.4305324461838207 [Eh]
	 SCS Total Energy          =    -310.5770644842493766 [Eh]
	-----------------------------------------------------------

  Dipole Moment: [D]
     X:    -1.9394      Y:    -0.0438      Z:     0.5912     Total:     2.0280

*** Psi4 exiting successfully. Buy a developer a beer!
