                               Psi4 1.3.2 release

  ==> Input File <==

--------------------------------------------------------------------------
#psi4
#
memory 32 gb

molecule  {
0 1
  O       -2.3916800    -1.0522970    -0.0243250
  C       -1.4955198     0.0266242    -0.3616396
  C       -0.1728060    -0.1763470     0.3083280
  C        2.3285040    -0.4694590     0.2834420
  C        0.9860590    -0.2881690    -0.3549330
  C       -2.1959480     1.2879740     0.1259890
  C        3.2526380     0.7192940     0.0124360
  H       -1.3570540     0.0791090    -1.4412390
  H       -0.1810279    -0.2499627     1.3972890
  H        2.7976780    -1.3847260    -0.0993500
  H        2.2027970    -0.6058810     1.3632980
  H        0.9746330    -0.2154440    -1.4448770
  H       -2.3344480     1.2448060     1.2091660
  H       -1.6005480     2.1700530    -0.1223020
  H       -3.1779120     1.3727550    -0.3453210
  H        2.8243150     1.6377400     0.4218030
  H        3.3966440     0.8648080    -1.0620310
  H        4.2355510     0.5661250     0.4665360
  H       -1.9269720    -1.8751040    -0.2580250
units angstrom
no_reorient  #important for SAPT in psi4, default
symmetry c1  #important for SAPT in psi4, default
}

set PROPERTIES_ORIGIN ["COM"]
properties('MP2/aug-cc-pvtz', properties = ['dipole'])
--------------------------------------------------------------------------

    Molecular point group: c1
  Charge       = 0
  Multiplicity = 1
  Basis Set: AUG-CC-PVTZ
    Blend: AUG-CC-PVTZ
  Basis Set: (AUG-CC-PVTZ AUX)
    Blend: AUG-CC-PVTZ-JKFIT

    Orbital Energies [Eh]
    ---------------------

    Doubly Occupied:

       1A    -20.553091     2A    -11.280910     3A    -11.235890
       4A    -11.230592     5A    -11.226355     6A    -11.219636
       7A    -11.210900     8A     -1.350478     9A     -1.094788
      10A     -1.034585    11A     -0.974068    12A     -0.873284
      13A     -0.808063    14A     -0.761230    15A     -0.691504
      16A     -0.654358    17A     -0.610627    18A     -0.595048
      19A     -0.576843    20A     -0.538698    21A     -0.535946
      22A     -0.526458    23A     -0.521571    24A     -0.510092
      25A     -0.487353    26A     -0.471766    27A     -0.442953
      28A     -0.356479

  @DF-RHF Final Energy:  -309.15159804777932

   => Energetics <=

    Nuclear Repulsion Energy =            299.0632780144688354
    One-Electron Energy =               -1011.6826169851565282
    Two-Electron Energy =                 403.4677409229084333
    Total Energy =                       -309.1515980477793164
  Basis Set: (AUG-CC-PVTZ AUX)
    Blend: AUG-CC-PVTZ-RI
    Molecular point group: c1

    Geometry (in Angstrom), charge = 0, multiplicity = 1:

       Center              X                  Y                   Z               Mass
    ------------   -----------------  -----------------  -----------------  -----------------
         O           -2.392477992766    -1.052297875467    -0.022926284418    15.994914619570
         C           -1.496317792766     0.026623324533    -0.360240884418    12.000000000000
         C           -0.173603992766    -0.176347875467     0.309726715582    12.000000000000
         C            2.327706007234    -0.469459875467     0.284840715582    12.000000000000
         C            0.985261007234    -0.288169875467    -0.353534284418    12.000000000000
         C           -2.196745992766     1.287973124533     0.127387715582    12.000000000000
         C            3.251840007234     0.719293124533     0.013834715582    12.000000000000
         H           -1.357851992766     0.079108124533    -1.439840284418     1.007825032230
         H           -0.181825892766    -0.249963575467     1.398687715582     1.007825032230
         H            2.796880007234    -1.384726875467    -0.097951284418     1.007825032230
         H            2.201999007234    -0.605881875467     1.364696715582     1.007825032230
         H            0.973835007234    -0.215444875467    -1.443478284418     1.007825032230
         H           -2.335245992766     1.244805124533     1.210564715582     1.007825032230
         H           -1.601345992766     2.170052124533    -0.120903284418     1.007825032230
         H           -3.178709992766     1.372754124533    -0.343922284418     1.007825032230
         H            2.823517007234     1.637739124533     0.423201715582     1.007825032230
         H            3.395846007234     0.864807124533    -1.060632284418     1.007825032230
         H            4.234753007234     0.566124124533     0.467934715582     1.007825032230
         H           -1.927769992766    -1.875104875467    -0.256626284418     1.007825032230

  Basis Set: AUG-CC-PVTZ
    Blend: AUG-CC-PVTZ
  Basis Set: (AUG-CC-PVTZ AUX)
    Blend: AUG-CC-PVTZ-JKFIT
	 Reference Energy          =    -309.1515980477793164 [Eh]
	 Singles Energy            =      -0.0000000000000000 [Eh]
	 Same-Spin Energy          =      -0.3167034684380625 [Eh]
	 Opposite-Spin Energy      =      -1.1025161199971936 [Eh]
	 Correlation Energy        =      -1.4192195884352561 [Eh]
	 Total Energy              =    -310.5708176362145991 [Eh]

	 ================> DF-SCS-MP2 Energies <==================
	-----------------------------------------------------------
	 SCS Same-Spin Scale       =       0.3333333333333333 [-]
	 SCS Opposite-Spin Scale   =       1.2000000000000000 [-]
	 SCS Same-Spin Energy      =      -0.1055678228126875 [Eh]
	 SCS Opposite-Spin Energy  =      -1.3230193439966322 [Eh]
	 SCS Correlation Energy    =      -1.4285871668093197 [Eh]
	 SCS Total Energy          =    -310.5801852145886528 [Eh]
	-----------------------------------------------------------

  Dipole Moment: [D]
     X:     1.9296      Y:     0.0153      Z:    -0.5692     Total:     2.0119

*** Psi4 exiting successfully. Buy a developer a beer!
