                               Psi4 1.3.2 release

  ==> Input File <==

--------------------------------------------------------------------------
#psi4
#
memory 32 gb

molecule  {
0 1
  O       -2.3916800    -1.0522970    -0.0243250
  C       -1.5013820     0.0265210    -0.3499700
  C       -0.1728060    -0.1763470     0.3083280
  C        2.3285040    -0.4694590     0.2834420
  C        1.0021142    -0.2419977    -0.3734436
  C       -2.1959480     1.2879740     0.1259890
  C        3.2134343     0.7421553    -0.0157081
  H       -1.3570540     0.0791090    -1.4412390
  H       -0.1904860    -0.2488370     1.3972520
  H        2.7976780    -1.3847260    -0.0993500
  H        2.2027970    -0.6058810     1.3632980
  H        0.9746330    -0.2154440    -1.4448770
  H       -2.3344480     1.2448060     1.2091660
  H       -1.6005480     2.1700530    -0.1223020
  H       -3.1779120     1.3727550    -0.3453210
  H        2.8243150     1.6377400     0.4218030
  H        3.3966440     0.8648080    -1.0620310
  H        4.2355510     0.5661250     0.4665360
  H       -1.9269720    -1.8751040    -0.2580250
units angstrom
no_reorient  #important for SAPT in psi4, default
symmetry c1  #important for SAPT in psi4, default
}

set PROPERTIES_ORIGIN ["COM"]
properties('MP2/aug-cc-pvtz', properties = ['dipole'])
--------------------------------------------------------------------------

    Molecular point group: c1
  Charge       = 0
  Multiplicity = 1
  Basis Set: AUG-CC-PVTZ
    Blend: AUG-CC-PVTZ
  Basis Set: (AUG-CC-PVTZ AUX)
    Blend: AUG-CC-PVTZ-JKFIT

    Orbital Energies [Eh]
    ---------------------

    Doubly Occupied:

       1A    -20.553492     2A    -11.280616     3A    -11.236824
       4A    -11.231103     5A    -11.228428     6A    -11.219231
       7A    -11.210223     8A     -1.352661     9A     -1.093478
      10A     -1.035050    11A     -0.971552    12A     -0.872223
      13A     -0.806967    14A     -0.764479    15A     -0.692576
      16A     -0.654991    17A     -0.609041    18A     -0.598190
      19A     -0.577908    20A     -0.541310    21A     -0.531247
      22A     -0.527120    23A     -0.521663    24A     -0.509052
      25A     -0.494984    26A     -0.468403    27A     -0.439405
      28A     -0.350980

  @DF-RHF Final Energy:  -309.14601679702884

   => Energetics <=

    Nuclear Repulsion Energy =            299.2367866176103348
    One-Electron Energy =               -1012.0192140238224283
    Two-Electron Energy =                 403.6364106091832014
    Total Energy =                       -309.1460167970288353
  Basis Set: (AUG-CC-PVTZ AUX)
    Blend: AUG-CC-PVTZ-RI
    Molecular point group: c1

    Geometry (in Angstrom), charge = 0, multiplicity = 1:

       Center              X                  Y                   Z               Mass
    ------------   -----------------  -----------------  -----------------  -----------------
         O           -2.388904561410    -1.060573398647    -0.018731425187    15.994914619570
         C           -1.498606561410     0.018244601353    -0.344376425187    12.000000000000
         C           -0.170030561410    -0.184623398647     0.313921574813    12.000000000000
         C            2.331279438590    -0.477735398647     0.289035574813    12.000000000000
         C            1.004889638590    -0.250274098647    -0.367850025187    12.000000000000
         C           -2.193172561410     1.279697601353     0.131582574813    12.000000000000
         C            3.216209738590     0.733878901353    -0.010114525187    12.000000000000
         H           -1.354278561410     0.070832601353    -1.435645425187     1.007825032230
         H           -0.187710561410    -0.257113398647     1.402845574813     1.007825032230
         H            2.800453438590    -1.393002398647    -0.093756425187     1.007825032230
         H            2.205572438590    -0.614157398647     1.368891574813     1.007825032230
         H            0.977408438590    -0.223720398647    -1.439283425187     1.007825032230
         H           -2.331672561410     1.236529601353     1.214759574813     1.007825032230
         H           -1.597772561410     2.161776601353    -0.116708425187     1.007825032230
         H           -3.175136561410     1.364478601353    -0.339727425187     1.007825032230
         H            2.827090438590     1.629463601353     0.427396574813     1.007825032230
         H            3.399419438590     0.856531601353    -1.056437425187     1.007825032230
         H            4.238326438590     0.557848601353     0.472129574813     1.007825032230
         H           -1.924196561410    -1.883380398647    -0.252431425187     1.007825032230

  Basis Set: AUG-CC-PVTZ
    Blend: AUG-CC-PVTZ
  Basis Set: (AUG-CC-PVTZ AUX)
    Blend: AUG-CC-PVTZ-JKFIT
	 Reference Energy          =    -309.1460167970288353 [Eh]
	 Singles Energy            =      -0.0000000000000000 [Eh]
	 Same-Spin Energy          =      -0.3170864714995750 [Eh]
	 Opposite-Spin Energy      =      -1.1033137026785593 [Eh]
	 Correlation Energy        =      -1.4204001741781345 [Eh]
	 Total Energy              =    -310.5664169712069906 [Eh]

	 ================> DF-SCS-MP2 Energies <==================
	-----------------------------------------------------------
	 SCS Same-Spin Scale       =       0.3333333333333333 [-]
	 SCS Opposite-Spin Scale   =       1.2000000000000000 [-]
	 SCS Same-Spin Energy      =      -0.1056954904998583 [Eh]
	 SCS Opposite-Spin Energy  =      -1.3239764432142711 [Eh]
	 SCS Correlation Energy    =      -1.4296719337141295 [Eh]
	 SCS Total Energy          =    -310.5756887307429679 [Eh]
	-----------------------------------------------------------

  Dipole Moment: [D]
     X:     1.9022      Y:    -0.0441      Z:    -0.5794     Total:     1.9890

*** Psi4 exiting successfully. Buy a developer a beer!
