                               Psi4 1.3.2 release

  ==> Input File <==

--------------------------------------------------------------------------
#psi4
#
memory 32 gb

molecule  {
0 1
  O       -2.3916800    -1.0522970    -0.0243250
  C       -1.5013820     0.0265210    -0.3499700
  C       -0.1728060    -0.1763470     0.3083280
  C        2.3285040    -0.4694590     0.2834420
  C        0.8130838    -0.2714782    -0.2559330
  C       -2.1959480     1.2879740     0.1259890
  C        3.2526380     0.7192940     0.0124360
  H       -1.3570540     0.0791090    -1.4412390
  H       -0.1904860    -0.2488370     1.3972520
  H        2.7976780    -1.3847260    -0.0993500
  H        2.2027970    -0.6058810     1.3632980
  H        0.9746330    -0.2154440    -1.4448770
  H       -2.3344480     1.2448060     1.2091660
  H       -1.6005480     2.1700530    -0.1223020
  H       -3.1779120     1.3727550    -0.3453210
  H        2.8243150     1.6377400     0.4218030
  H        3.3966440     0.8648080    -1.0620310
  H        4.2355510     0.5661250     0.4665360
  H       -1.9269720    -1.8751040    -0.2580250
units angstrom
no_reorient  #important for SAPT in psi4, default
symmetry c1  #important for SAPT in psi4, default
}

set PROPERTIES_ORIGIN ["COM"]
properties('MP2/aug-cc-pvtz', properties = ['dipole'])
--------------------------------------------------------------------------

    Molecular point group: c1
  Charge       = 0
  Multiplicity = 1
  Basis Set: AUG-CC-PVTZ
    Blend: AUG-CC-PVTZ
  Basis Set: (AUG-CC-PVTZ AUX)
    Blend: AUG-CC-PVTZ-JKFIT

    Orbital Energies [Eh]
    ---------------------

    Doubly Occupied:

       1A    -20.554746     2A    -11.280923     3A    -11.235480
       4A    -11.219756     5A    -11.219398     6A    -11.211232
       7A    -11.194827     8A     -1.354079     9A     -1.124843
      10A     -1.029116    11A     -0.994098    12A     -0.861133
      13A     -0.816853    14A     -0.742996    15A     -0.696040
      16A     -0.652246    17A     -0.614692    18A     -0.594570
      19A     -0.582288    20A     -0.543262    21A     -0.533203
      22A     -0.528069    23A     -0.518612    24A     -0.507916
      25A     -0.488866    26A     -0.455489    27A     -0.413117
      28A     -0.410247

  @DF-RHF Final Energy:  -309.08018149965039

   => Energetics <=

    Nuclear Repulsion Energy =            301.3051741907047472
    One-Electron Energy =               -1016.0145201055461257
    Two-Electron Energy =                 405.6291644151909850
    Total Energy =                       -309.0801814996503936
  Basis Set: (AUG-CC-PVTZ AUX)
    Blend: AUG-CC-PVTZ-RI
    Molecular point group: c1

    Geometry (in Angstrom), charge = 0, multiplicity = 1:

       Center              X                  Y                   Z               Mass
    ------------   -----------------  -----------------  -----------------  -----------------
         O           -2.370941311471    -1.054297956181    -0.036194479375    15.994914619570
         C           -1.480643311471     0.024520043819    -0.361839479375    12.000000000000
         C           -0.152067311471    -0.178347956181     0.296458520625    12.000000000000
         C            2.349242688529    -0.471459956181     0.271572520625    12.000000000000
         C            0.833822488529    -0.273479156181    -0.267802479375    12.000000000000
         C           -2.175209311471     1.285973043819     0.114119520625    12.000000000000
         C            3.273376688529     0.717293043819     0.000566520625    12.000000000000
         H           -1.336315311471     0.077108043819    -1.453108479375     1.007825032230
         H           -0.169747311471    -0.250837956181     1.385382520625     1.007825032230
         H            2.818416688529    -1.386726956181    -0.111219479375     1.007825032230
         H            2.223535688529    -0.607881956181     1.351428520625     1.007825032230
         H            0.995371688529    -0.217444956181    -1.456746479375     1.007825032230
         H           -2.313709311471     1.242805043819     1.197296520625     1.007825032230
         H           -1.579809311471     2.168052043819    -0.134171479375     1.007825032230
         H           -3.157173311471     1.370754043819    -0.357190479375     1.007825032230
         H            2.845053688529     1.635739043819     0.409933520625     1.007825032230
         H            3.417382688529     0.862807043819    -1.073900479375     1.007825032230
         H            4.256289688529     0.564124043819     0.454666520625     1.007825032230
         H           -1.906233311471    -1.877104956181    -0.269894479375     1.007825032230

  Basis Set: AUG-CC-PVTZ
    Blend: AUG-CC-PVTZ
  Basis Set: (AUG-CC-PVTZ AUX)
    Blend: AUG-CC-PVTZ-JKFIT
	 Reference Energy          =    -309.0801814996503936 [Eh]
	 Singles Energy            =      -0.0000000000000000 [Eh]
	 Same-Spin Energy          =      -0.3158517778485285 [Eh]
	 Opposite-Spin Energy      =      -1.1000174089507078 [Eh]
	 Correlation Energy        =      -1.4158691867992363 [Eh]
	 Total Energy              =    -310.4960506864496210 [Eh]

	 ================> DF-SCS-MP2 Energies <==================
	-----------------------------------------------------------
	 SCS Same-Spin Scale       =       0.3333333333333333 [-]
	 SCS Opposite-Spin Scale   =       1.2000000000000000 [-]
	 SCS Same-Spin Energy      =      -0.1052839259495095 [Eh]
	 SCS Opposite-Spin Energy  =      -1.3200208907408493 [Eh]
	 SCS Correlation Energy    =      -1.4253048166903588 [Eh]
	 SCS Total Energy          =    -310.5054863163407504 [Eh]
	-----------------------------------------------------------

  Dipole Moment: [D]
     X:     1.7814      Y:     0.0168      Z:    -0.4585     Total:     1.8395

*** Psi4 exiting successfully. Buy a developer a beer!
