                               Psi4 1.3.2 release

  ==> Input File <==

--------------------------------------------------------------------------
#psi4
#
memory 32 gb

molecule  {
0 1
  O       -2.3916800    -1.0522970    -0.0243250
  C       -1.5013820     0.0265210    -0.3499700
  C       -0.1745445    -0.1653197     0.3151054
  C        2.3285040    -0.4694590     0.2834420
  C        0.9860590    -0.2881690    -0.3549330
  C       -2.1857116     1.2905252     0.1339814
  C        3.2526380     0.7192940     0.0124360
  H       -1.3570540     0.0791090    -1.4412390
  H       -0.1904860    -0.2488370     1.3972520
  H        2.7976780    -1.3847260    -0.0993500
  H        2.2027970    -0.6058810     1.3632980
  H        0.9746330    -0.2154440    -1.4448770
  H       -2.3344480     1.2448060     1.2091660
  H       -1.6005480     2.1700530    -0.1223020
  H       -3.1779120     1.3727550    -0.3453210
  H        2.8243150     1.6377400     0.4218030
  H        3.3966440     0.8648080    -1.0620310
  H        4.2355510     0.5661250     0.4665360
  H       -1.9269720    -1.8751040    -0.2580250
units angstrom
no_reorient  #important for SAPT in psi4, default
symmetry c1  #important for SAPT in psi4, default
}

set PROPERTIES_ORIGIN ["COM"]
properties('MP2/aug-cc-pvtz', properties = ['dipole'])
--------------------------------------------------------------------------

    Molecular point group: c1
  Charge       = 0
  Multiplicity = 1
  Basis Set: AUG-CC-PVTZ
    Blend: AUG-CC-PVTZ
  Basis Set: (AUG-CC-PVTZ AUX)
    Blend: AUG-CC-PVTZ-JKFIT

    Orbital Energies [Eh]
    ---------------------

    Doubly Occupied:

       1A    -20.554060     2A    -11.281174     3A    -11.236774
       4A    -11.230472     5A    -11.226419     6A    -11.219486
       7A    -11.210507     8A     -1.353010     9A     -1.093962
      10A     -1.035323    11A     -0.973743    12A     -0.873038
      13A     -0.807037    14A     -0.761781    15A     -0.693163
      16A     -0.653886    17A     -0.610070    18A     -0.594959
      19A     -0.578300    20A     -0.539293    21A     -0.534674
      22A     -0.530207    23A     -0.521402    24A     -0.510602
      25A     -0.487232    26A     -0.470841    27A     -0.441141
      28A     -0.355044

  @DF-RHF Final Energy:  -309.15126456775852

   => Energetics <=

    Nuclear Repulsion Energy =            299.1306882977696091
    One-Electron Energy =               -1011.8087084787515550
    Two-Electron Energy =                 403.5267556132234859
    Total Energy =                       -309.1512645677585169
  Basis Set: (AUG-CC-PVTZ AUX)
    Blend: AUG-CC-PVTZ-RI
    Molecular point group: c1

    Geometry (in Angstrom), charge = 0, multiplicity = 1:

       Center              X                  Y                   Z               Mass
    ------------   -----------------  -----------------  -----------------  -----------------
         O           -2.392698759592    -1.053924811590    -0.026095824496    15.994914619570
         C           -1.502400759592     0.024893188410    -0.351740824496    12.000000000000
         C           -0.175563259592    -0.166947511590     0.313334575504    12.000000000000
         C            2.327485240408    -0.471086811590     0.281671175504    12.000000000000
         C            0.985040240408    -0.289796811590    -0.356703824496    12.000000000000
         C           -2.186730359592     1.288897388410     0.132210575504    12.000000000000
         C            3.251619240408     0.717666188410     0.010665175504    12.000000000000
         H           -1.358072759592     0.077481188410    -1.443009824496     1.007825032230
         H           -0.191504759592    -0.250464811590     1.395481175504     1.007825032230
         H            2.796659240408    -1.386353811590    -0.101120824496     1.007825032230
         H            2.201778240408    -0.607508811590     1.361527175504     1.007825032230
         H            0.973614240408    -0.217071811590    -1.446647824496     1.007825032230
         H           -2.335466759592     1.243178188410     1.207395175504     1.007825032230
         H           -1.601566759592     2.168425188410    -0.124072824496     1.007825032230
         H           -3.178930759592     1.371127188410    -0.347091824496     1.007825032230
         H            2.823296240408     1.636112188410     0.420032175504     1.007825032230
         H            3.395625240408     0.863180188410    -1.063801824496     1.007825032230
         H            4.234532240408     0.564497188410     0.464765175504     1.007825032230
         H           -1.927990759592    -1.876731811590    -0.259795824496     1.007825032230

  Basis Set: AUG-CC-PVTZ
    Blend: AUG-CC-PVTZ
  Basis Set: (AUG-CC-PVTZ AUX)
    Blend: AUG-CC-PVTZ-JKFIT
	 Reference Energy          =    -309.1512645677585169 [Eh]
	 Singles Energy            =      -0.0000000000000000 [Eh]
	 Same-Spin Energy          =      -0.3167923726796614 [Eh]
	 Opposite-Spin Energy      =      -1.1026139103166233 [Eh]
	 Correlation Energy        =      -1.4194062829962846 [Eh]
	 Total Energy              =    -310.5706708507548228 [Eh]

	 ================> DF-SCS-MP2 Energies <==================
	-----------------------------------------------------------
	 SCS Same-Spin Scale       =       0.3333333333333333 [-]
	 SCS Opposite-Spin Scale   =       1.2000000000000000 [-]
	 SCS Same-Spin Energy      =      -0.1055974575598871 [Eh]
	 SCS Opposite-Spin Energy  =      -1.3231366923799479 [Eh]
	 SCS Correlation Energy    =      -1.4287341499398352 [Eh]
	 SCS Total Energy          =    -310.5799987176983450 [Eh]
	-----------------------------------------------------------

  Dipole Moment: [D]
     X:     1.9100      Y:    -0.0069      Z:    -0.5487     Total:     1.9872

*** Psi4 exiting successfully. Buy a developer a beer!
