                               Psi4 1.3.2 release

  ==> Input File <==

--------------------------------------------------------------------------
#psi4
#
memory 32 gb

molecule  {
0 1
  O       -2.3916800    -1.0522970    -0.0243250
  C       -1.5013820     0.0265210    -0.3499700
  C       -0.1728060    -0.1763470     0.3083280
  C        2.3285040    -0.4694590     0.2834420
  C        0.9860590    -0.2881690    -0.3549330
  C       -2.1959480     1.2879740     0.1259890
  C        3.2526380     0.7192940     0.0124360
  H       -1.3570540     0.0791090    -1.4412390
  H       -0.1904860    -0.2488370     1.3972520
  H        2.7976780    -1.3847260    -0.0993500
  H        2.2027970    -0.6058810     1.3632980
  H        0.9725411    -0.2021296    -1.6444224
  H       -2.3344480     1.2448060     1.2091660
  H       -1.6005480     2.1700530    -0.1223020
  H       -3.1779120     1.3727550    -0.3453210
  H        2.8243150     1.6377400     0.4218030
  H        3.3966440     0.8648080    -1.0620310
  H        4.2355510     0.5661250     0.4665360
  H       -1.9269720    -1.8751040    -0.2580250
units angstrom
no_reorient  #important for SAPT in psi4, default
symmetry c1  #important for SAPT in psi4, default
}

set PROPERTIES_ORIGIN ["COM"]
properties('MP2/aug-cc-pvtz', properties = ['dipole'])
--------------------------------------------------------------------------

    Molecular point group: c1
  Charge       = 0
  Multiplicity = 1
  Basis Set: AUG-CC-PVTZ
    Blend: AUG-CC-PVTZ
  Basis Set: (AUG-CC-PVTZ AUX)
    Blend: AUG-CC-PVTZ-JKFIT

    Orbital Energies [Eh]
    ---------------------

    Doubly Occupied:

       1A    -20.553846     2A    -11.281336     3A    -11.258441
       4A    -11.233827     5A    -11.228981     6A    -11.220028
       7A    -11.210896     8A     -1.353090     9A     -1.092703
      10A     -1.035844    11A     -0.973859    12A     -0.873363
      13A     -0.807244    14A     -0.743633    15A     -0.693300
      16A     -0.645997    17A     -0.611938    18A     -0.592213
      19A     -0.578630    20A     -0.537441    21A     -0.529597
      22A     -0.527152    23A     -0.521308    24A     -0.509466
      25A     -0.481997    26A     -0.465821    27A     -0.441071
      28A     -0.358938

  @DF-RHF Final Energy:  -309.13079238970113

   => Energetics <=

    Nuclear Repulsion Energy =            298.3209414979529015
    One-Electron Energy =               -1010.1795505414859235
    Two-Electron Energy =                 402.7278166538319510
    Total Energy =                       -309.1307923897011278
  Basis Set: (AUG-CC-PVTZ AUX)
    Blend: AUG-CC-PVTZ-RI
    Molecular point group: c1

    Geometry (in Angstrom), charge = 0, multiplicity = 1:

       Center              X                  Y                   Z               Mass
    ------------   -----------------  -----------------  -----------------  -----------------
         O           -2.391658852494    -1.052430904260    -0.022315737289    15.994914619570
         C           -1.501360852494     0.026387095740    -0.347960737289    12.000000000000
         C           -0.172784852494    -0.176480904260     0.310337262711    12.000000000000
         C            2.328525147506    -0.469592904260     0.285451262711    12.000000000000
         C            0.986080147506    -0.288302904260    -0.352923737289    12.000000000000
         C           -2.195926852494     1.287840095740     0.127998262711    12.000000000000
         C            3.252659147506     0.719160095740     0.014445262711    12.000000000000
         H           -1.357032852494     0.078975095740    -1.439229737289     1.007825032230
         H           -0.190464852494    -0.248970904260     1.399261262711     1.007825032230
         H            2.797699147506    -1.384859904260    -0.097340737289     1.007825032230
         H            2.202818147506    -0.606014904260     1.365307262711     1.007825032230
         H            0.972562247506    -0.202263504260    -1.642413137289     1.007825032230
         H           -2.334426852494     1.244672095740     1.211175262711     1.007825032230
         H           -1.600526852494     2.169919095740    -0.120292737289     1.007825032230
         H           -3.177890852494     1.372621095740    -0.343311737289     1.007825032230
         H            2.824336147506     1.637606095740     0.423812262711     1.007825032230
         H            3.396665147506     0.864674095740    -1.060021737289     1.007825032230
         H            4.235572147506     0.565991095740     0.468545262711     1.007825032230
         H           -1.926950852494    -1.875237904260    -0.256015737289     1.007825032230

  Basis Set: AUG-CC-PVTZ
    Blend: AUG-CC-PVTZ
  Basis Set: (AUG-CC-PVTZ AUX)
    Blend: AUG-CC-PVTZ-JKFIT
	 Reference Energy          =    -309.1307923897011278 [Eh]
	 Singles Energy            =      -0.0000000000000000 [Eh]
	 Same-Spin Energy          =      -0.3171889224217675 [Eh]
	 Opposite-Spin Energy      =      -1.1044768167463643 [Eh]
	 Correlation Energy        =      -1.4216657391681320 [Eh]
	 Total Energy              =    -310.5524581288692616 [Eh]

	 ================> DF-SCS-MP2 Energies <==================
	-----------------------------------------------------------
	 SCS Same-Spin Scale       =       0.3333333333333333 [-]
	 SCS Opposite-Spin Scale   =       1.2000000000000000 [-]
	 SCS Same-Spin Energy      =      -0.1057296408072558 [Eh]
	 SCS Opposite-Spin Energy  =      -1.3253721800956371 [Eh]
	 SCS Correlation Energy    =      -1.4311018209028930 [Eh]
	 SCS Total Energy          =    -310.5618942106040095 [Eh]
	-----------------------------------------------------------

  Dipole Moment: [D]
     X:     1.9305      Y:     0.0026      Z:    -0.4195     Total:     1.9756

*** Psi4 exiting successfully. Buy a developer a beer!
