                               Psi4 1.3.2 release

  ==> Input File <==

--------------------------------------------------------------------------
#psi4
#
memory 32 gb

molecule  {
0 1
  O       -2.3916800    -1.0522970    -0.0243250
  C       -1.5013820     0.0265210    -0.3499700
  C       -0.1846162    -0.1764143     0.3316245
  C        2.3285040    -0.4694590     0.2834420
  C        0.9860590    -0.2881690    -0.3549330
  C       -2.1959480     1.2879740     0.1259890
  C        3.2526380     0.7192940     0.0124360
  H       -1.3760037     0.0815424    -1.4434585
  H       -0.1904860    -0.2488370     1.3972520
  H        2.7976780    -1.3847260    -0.0993500
  H        2.2027970    -0.6058810     1.3632980
  H        0.9746330    -0.2154440    -1.4448770
  H       -2.3344480     1.2448060     1.2091660
  H       -1.6005480     2.1700530    -0.1223020
  H       -3.1779120     1.3727550    -0.3453210
  H        2.8243150     1.6377400     0.4218030
  H        3.3966440     0.8648080    -1.0620310
  H        4.2355510     0.5661250     0.4665360
  H       -1.9269720    -1.8751040    -0.2580250
units angstrom
no_reorient  #important for SAPT in psi4, default
symmetry c1  #important for SAPT in psi4, default
}

set PROPERTIES_ORIGIN ["COM"]
properties('MP2/aug-cc-pvtz', properties = ['dipole'])
--------------------------------------------------------------------------

    Molecular point group: c1
  Charge       = 0
  Multiplicity = 1
  Basis Set: AUG-CC-PVTZ
    Blend: AUG-CC-PVTZ
  Basis Set: (AUG-CC-PVTZ AUX)
    Blend: AUG-CC-PVTZ-JKFIT

    Orbital Energies [Eh]
    ---------------------

    Doubly Occupied:

       1A    -20.552674     2A    -11.280924     3A    -11.239426
       4A    -11.230496     5A    -11.227594     6A    -11.219566
       7A    -11.210216     8A     -1.352444     9A     -1.092018
      10A     -1.034954    11A     -0.972381    12A     -0.873334
      13A     -0.805689    14A     -0.764744    15A     -0.691678
      16A     -0.653926    17A     -0.609320    18A     -0.597158
      19A     -0.577865    20A     -0.541454    21A     -0.535600
      22A     -0.527653    23A     -0.522437    24A     -0.510090
      25A     -0.487497    26A     -0.469075    27A     -0.442584
      28A     -0.351615

  @DF-RHF Final Energy:  -309.14994013760804

   => Energetics <=

    Nuclear Repulsion Energy =            298.9389629436197424
    One-Electron Energy =               -1011.4289802398727716
    Two-Electron Energy =                 403.3400771586449309
    Total Energy =                       -309.1499401376080414
  Basis Set: (AUG-CC-PVTZ AUX)
    Blend: AUG-CC-PVTZ-RI
    Molecular point group: c1

    Geometry (in Angstrom), charge = 0, multiplicity = 1:

       Center              X                  Y                   Z               Mass
    ------------   -----------------  -----------------  -----------------  -----------------
         O           -2.390073139717    -1.052313271294    -0.027095771716    15.994914619570
         C           -1.499775139717     0.026504728706    -0.352740771716    12.000000000000
         C           -0.183009339717    -0.176430571294     0.328853728284    12.000000000000
         C            2.330110860283    -0.469475271294     0.280671228284    12.000000000000
         C            0.987665860283    -0.288185271294    -0.357703771716    12.000000000000
         C           -2.194341139717     1.287957728706     0.123218228284    12.000000000000
         C            3.254244860283     0.719277728706     0.009665228284    12.000000000000
         H           -1.374396839717     0.081526128706    -1.446229271716     1.007825032230
         H           -0.188879139717    -0.248853271294     1.394481228284     1.007825032230
         H            2.799284860283    -1.384742271294    -0.102120771716     1.007825032230
         H            2.204403860283    -0.605897271294     1.360527228284     1.007825032230
         H            0.976239860283    -0.215460271294    -1.447647771716     1.007825032230
         H           -2.332841139717     1.244789728706     1.206395228284     1.007825032230
         H           -1.598941139717     2.170036728706    -0.125072771716     1.007825032230
         H           -3.176305139717     1.372738728706    -0.348091771716     1.007825032230
         H            2.825921860283     1.637723728706     0.419032228284     1.007825032230
         H            3.398250860283     0.864791728706    -1.064801771716     1.007825032230
         H            4.237157860283     0.566108728706     0.463765228284     1.007825032230
         H           -1.925365139717    -1.875120271294    -0.260795771716     1.007825032230

  Basis Set: AUG-CC-PVTZ
    Blend: AUG-CC-PVTZ
  Basis Set: (AUG-CC-PVTZ AUX)
    Blend: AUG-CC-PVTZ-JKFIT
	 Reference Energy          =    -309.1499401376080414 [Eh]
	 Singles Energy            =      -0.0000000000000000 [Eh]
	 Same-Spin Energy          =      -0.3168911616232161 [Eh]
	 Opposite-Spin Energy      =      -1.1029380211006892 [Eh]
	 Correlation Energy        =      -1.4198291827239053 [Eh]
	 Total Energy              =    -310.5697693203319432 [Eh]

	 ================> DF-SCS-MP2 Energies <==================
	-----------------------------------------------------------
	 SCS Same-Spin Scale       =       0.3333333333333333 [-]
	 SCS Opposite-Spin Scale   =       1.2000000000000000 [-]
	 SCS Same-Spin Energy      =      -0.1056303872077387 [Eh]
	 SCS Opposite-Spin Energy  =      -1.3235256253208270 [Eh]
	 SCS Correlation Energy    =      -1.4291560125285656 [Eh]
	 SCS Total Energy          =    -310.5790961501365928 [Eh]
	-----------------------------------------------------------

  Dipole Moment: [D]
     X:     1.9185      Y:     0.0103      Z:    -0.5494     Total:     1.9956

*** Psi4 exiting successfully. Buy a developer a beer!
