                               Psi4 1.3.2 release

  ==> Input File <==

--------------------------------------------------------------------------
#psi4
#
memory 32 gb

molecule  {
0 1
  O       -2.3916800    -1.0522970    -0.0243250
  C       -1.4647073     0.0269082    -0.4192049
  C       -0.1728060    -0.1763470     0.3083280
  C        2.3285040    -0.4694590     0.2834420
  C        0.9860590    -0.2881690    -0.3549330
  C       -2.1959480     1.2879740     0.1259890
  C        3.2526380     0.7192940     0.0124360
  H       -1.3570540     0.0791090    -1.4412390
  H       -0.1337426    -0.2555056     1.3962300
  H        2.7976780    -1.3847260    -0.0993500
  H        2.2027970    -0.6058810     1.3632980
  H        0.9746330    -0.2154440    -1.4448770
  H       -2.3344480     1.2448060     1.2091660
  H       -1.6005480     2.1700530    -0.1223020
  H       -3.1779120     1.3727550    -0.3453210
  H        2.8243150     1.6377400     0.4218030
  H        3.3966440     0.8648080    -1.0620310
  H        4.2355510     0.5661250     0.4665360
  H       -1.9269720    -1.8751040    -0.2580250
units angstrom
no_reorient  #important for SAPT in psi4, default
symmetry c1  #important for SAPT in psi4, default
}

set PROPERTIES_ORIGIN ["COM"]
properties('MP2/aug-cc-pvtz', properties = ['dipole'])
--------------------------------------------------------------------------

    Molecular point group: c1
  Charge       = 0
  Multiplicity = 1
  Basis Set: AUG-CC-PVTZ
    Blend: AUG-CC-PVTZ
  Basis Set: (AUG-CC-PVTZ AUX)
    Blend: AUG-CC-PVTZ-JKFIT

    Orbital Energies [Eh]
    ---------------------

    Doubly Occupied:

       1A    -20.550419     2A    -11.280510     3A    -11.234757
       4A    -11.230548     5A    -11.227310     6A    -11.219788
       7A    -11.212186     8A     -1.338607     9A     -1.095986
      10A     -1.033170    11A     -0.971075    12A     -0.873619
      13A     -0.813104    14A     -0.763797    15A     -0.683771
      16A     -0.655951    17A     -0.609926    18A     -0.597653
      19A     -0.569915    20A     -0.539010    21A     -0.534473
      22A     -0.524780    23A     -0.518380    24A     -0.507694
      25A     -0.487442    26A     -0.473717    27A     -0.449387
      28A     -0.355335

  @DF-RHF Final Energy:  -309.14334626193221

   => Energetics <=

    Nuclear Repulsion Energy =            298.6491873066201492
    One-Electron Energy =               -1010.8804471243981880
    Two-Electron Energy =                 403.0879135558457733
    Total Energy =                       -309.1433462619322086
  Basis Set: (AUG-CC-PVTZ AUX)
    Blend: AUG-CC-PVTZ-RI
    Molecular point group: c1

    Geometry (in Angstrom), charge = 0, multiplicity = 1:

       Center              X                  Y                   Z               Mass
    ------------   -----------------  -----------------  -----------------  -----------------
         O           -2.396648341960    -1.052276112062    -0.016013914773    15.994914619570
         C           -1.469675641960     0.026929087938    -0.410893814773    12.000000000000
         C           -0.177774341960    -0.176326112062     0.316639085227    12.000000000000
         C            2.323535658040    -0.469438112062     0.291753085227    12.000000000000
         C            0.981090658040    -0.288148112062    -0.346621914773    12.000000000000
         C           -2.200916341960     1.287994887938     0.134300085227    12.000000000000
         C            3.247669658040     0.719314887938     0.020747085227    12.000000000000
         H           -1.362022341960     0.079129887938    -1.432927914773     1.007825032230
         H           -0.138710941960    -0.255484712062     1.404541085227     1.007825032230
         H            2.792709658040    -1.384705112062    -0.091038914773     1.007825032230
         H            2.197828658040    -0.605860112062     1.371609085227     1.007825032230
         H            0.969664658040    -0.215423112062    -1.436565914773     1.007825032230
         H           -2.339416341960     1.244826887938     1.217477085227     1.007825032230
         H           -1.605516341960     2.170073887938    -0.113990914773     1.007825032230
         H           -3.182880341960     1.372775887938    -0.337009914773     1.007825032230
         H            2.819346658040     1.637760887938     0.430114085227     1.007825032230
         H            3.391675658040     0.864828887938    -1.053719914773     1.007825032230
         H            4.230582658040     0.566145887938     0.474847085227     1.007825032230
         H           -1.931940341960    -1.875083112062    -0.249713914773     1.007825032230

  Basis Set: AUG-CC-PVTZ
    Blend: AUG-CC-PVTZ
  Basis Set: (AUG-CC-PVTZ AUX)
    Blend: AUG-CC-PVTZ-JKFIT
	 Reference Energy          =    -309.1433462619322086 [Eh]
	 Singles Energy            =      -0.0000000000000000 [Eh]
	 Same-Spin Energy          =      -0.3168368298858260 [Eh]
	 Opposite-Spin Energy      =      -1.1033952801980702 [Eh]
	 Correlation Energy        =      -1.4202321100838962 [Eh]
	 Total Energy              =    -310.5635783720160816 [Eh]

	 ================> DF-SCS-MP2 Energies <==================
	-----------------------------------------------------------
	 SCS Same-Spin Scale       =       0.3333333333333333 [-]
	 SCS Opposite-Spin Scale   =       1.2000000000000000 [-]
	 SCS Same-Spin Energy      =      -0.1056122766286086 [Eh]
	 SCS Opposite-Spin Energy  =      -1.3240743362376841 [Eh]
	 SCS Correlation Energy    =      -1.4296866128662928 [Eh]
	 SCS Total Energy          =    -310.5730328747985141 [Eh]
	-----------------------------------------------------------

  Dipole Moment: [D]
     X:     2.0095      Y:     0.0529      Z:    -0.6354     Total:     2.1082

*** Psi4 exiting successfully. Buy a developer a beer!
