                               Psi4 1.3.2 release

  ==> Input File <==

--------------------------------------------------------------------------
#psi4
#
memory 32 gb

molecule  {
0 1
  O       -2.3916800    -1.0522970    -0.0243250
  C       -1.5013820     0.0265210    -0.3499700
  C       -0.1728060    -0.1763470     0.3083280
  C        2.3285040    -0.4694590     0.2834420
  C        0.9823000    -0.2997485    -0.3501829
  C       -2.1959480     1.2879740     0.1259890
  C        3.2622648     0.7133512     0.0195250
  H       -1.3570540     0.0791090    -1.4412390
  H       -0.1904860    -0.2488370     1.3972520
  H        2.7976780    -1.3847260    -0.0993500
  H        2.2027970    -0.6058810     1.3632980
  H        0.9746330    -0.2154440    -1.4448770
  H       -2.3344480     1.2448060     1.2091660
  H       -1.6005480     2.1700530    -0.1223020
  H       -3.1779120     1.3727550    -0.3453210
  H        2.8243150     1.6377400     0.4218030
  H        3.3966440     0.8648080    -1.0620310
  H        4.2355510     0.5661250     0.4665360
  H       -1.9269720    -1.8751040    -0.2580250
units angstrom
no_reorient  #important for SAPT in psi4, default
symmetry c1  #important for SAPT in psi4, default
}

set PROPERTIES_ORIGIN ["COM"]
properties('MP2/aug-cc-pvtz', properties = ['dipole'])
--------------------------------------------------------------------------

    Molecular point group: c1
  Charge       = 0
  Multiplicity = 1
  Basis Set: AUG-CC-PVTZ
    Blend: AUG-CC-PVTZ
  Basis Set: (AUG-CC-PVTZ AUX)
    Blend: AUG-CC-PVTZ-JKFIT

    Orbital Energies [Eh]
    ---------------------

    Doubly Occupied:

       1A    -20.553744     2A    -11.281326     3A    -11.236128
       4A    -11.230575     5A    -11.225869     6A    -11.219897
       7A    -11.210878     8A     -1.352974     9A     -1.094980
      10A     -1.035042    11A     -0.975475    12A     -0.873698
      13A     -0.807707    14A     -0.759790    15A     -0.693048
      16A     -0.654068    17A     -0.611520    18A     -0.593613
      19A     -0.578494    20A     -0.540532    21A     -0.536584
      22A     -0.528063    23A     -0.521388    24A     -0.509561
      25A     -0.485228    26A     -0.471681    27A     -0.441060
      28A     -0.358040

  @DF-RHF Final Energy:  -309.15175226910611

   => Energetics <=

    Nuclear Repulsion Energy =            299.1203890932699210
    One-Electron Energy =               -1011.7823540676107541
    Two-Electron Energy =                 403.5102127052347782
    Total Energy =                       -309.1517522691061117
  Basis Set: (AUG-CC-PVTZ AUX)
    Blend: AUG-CC-PVTZ-RI
    Molecular point group: c1

    Geometry (in Angstrom), charge = 0, multiplicity = 1:

       Center              X                  Y                   Z               Mass
    ------------   -----------------  -----------------  -----------------  -----------------
         O           -2.392383427654    -1.050196027310    -0.025744452567    15.994914619570
         C           -1.502085427654     0.028621972690    -0.351389452567    12.000000000000
         C           -0.173509427654    -0.174246027310     0.306908547433    12.000000000000
         C            2.327800572346    -0.467358027310     0.282022547433    12.000000000000
         C            0.981596572346    -0.297647527310    -0.351602352567    12.000000000000
         C           -2.196651427654     1.290074972690     0.124569547433    12.000000000000
         C            3.261561372346     0.715452172690     0.018105547433    12.000000000000
         H           -1.357757427654     0.081209972690    -1.442658452567     1.007825032230
         H           -0.191189427654    -0.246736027310     1.395832547433     1.007825032230
         H            2.796974572346    -1.382625027310    -0.100769452567     1.007825032230
         H            2.202093572346    -0.603780027310     1.361878547433     1.007825032230
         H            0.973929572346    -0.213343027310    -1.446296452567     1.007825032230
         H           -2.335151427654     1.246906972690     1.207746547433     1.007825032230
         H           -1.601251427654     2.172153972690    -0.123721452567     1.007825032230
         H           -3.178615427654     1.374855972690    -0.346740452567     1.007825032230
         H            2.823611572346     1.639840972690     0.420383547433     1.007825032230
         H            3.395940572346     0.866908972690    -1.063450452567     1.007825032230
         H            4.234847572346     0.568225972690     0.465116547433     1.007825032230
         H           -1.927675427654    -1.873003027310    -0.259444452567     1.007825032230

  Basis Set: AUG-CC-PVTZ
    Blend: AUG-CC-PVTZ
  Basis Set: (AUG-CC-PVTZ AUX)
    Blend: AUG-CC-PVTZ-JKFIT
	 Reference Energy          =    -309.1517522691061117 [Eh]
	 Singles Energy            =      -0.0000000000000000 [Eh]
	 Same-Spin Energy          =      -0.3166653786819849 [Eh]
	 Opposite-Spin Energy      =      -1.1023296145975836 [Eh]
	 Correlation Energy        =      -1.4189949932795685 [Eh]
	 Total Energy              =    -310.5707472623856802 [Eh]

	 ================> DF-SCS-MP2 Energies <==================
	-----------------------------------------------------------
	 SCS Same-Spin Scale       =       0.3333333333333333 [-]
	 SCS Opposite-Spin Scale   =       1.2000000000000000 [-]
	 SCS Same-Spin Energy      =      -0.1055551262273283 [Eh]
	 SCS Opposite-Spin Energy  =      -1.3227955375171003 [Eh]
	 SCS Correlation Energy    =      -1.4283506637444285 [Eh]
	 SCS Total Energy          =    -310.5801029328505365 [Eh]
	-----------------------------------------------------------

  Dipole Moment: [D]
     X:     1.9128      Y:     0.0193      Z:    -0.5461     Total:     1.9893

*** Psi4 exiting successfully. Buy a developer a beer!
