                               Psi4 1.3.2 release

  ==> Input File <==

--------------------------------------------------------------------------
#psi4
#
memory 32 gb

molecule  {
0 1
  O       -2.3916800    -1.0522970    -0.0243250
  C       -1.5013820     0.0265210    -0.3499700
  C       -0.1668649    -0.2202932     0.2807223
  C        2.3285040    -0.4694590     0.2834420
  C        0.9860590    -0.2881690    -0.3549330
  C       -2.2363569     1.2768106     0.0936631
  C        3.2526380     0.7192940     0.0124360
  H       -1.3570540     0.0791090    -1.4412390
  H       -0.1904860    -0.2488370     1.3972520
  H        2.7976780    -1.3847260    -0.0993500
  H        2.2027970    -0.6058810     1.3632980
  H        0.9746330    -0.2154440    -1.4448770
  H       -2.3344480     1.2448060     1.2091660
  H       -1.6005480     2.1700530    -0.1223020
  H       -3.1779120     1.3727550    -0.3453210
  H        2.8243150     1.6377400     0.4218030
  H        3.3966440     0.8648080    -1.0620310
  H        4.2355510     0.5661250     0.4665360
  H       -1.9269720    -1.8751040    -0.2580250
units angstrom
no_reorient  #important for SAPT in psi4, default
symmetry c1  #important for SAPT in psi4, default
}

set PROPERTIES_ORIGIN ["COM"]
properties('MP2/aug-cc-pvtz', properties = ['dipole'])
--------------------------------------------------------------------------

    Molecular point group: c1
  Charge       = 0
  Multiplicity = 1
  Basis Set: AUG-CC-PVTZ
    Blend: AUG-CC-PVTZ
  Basis Set: (AUG-CC-PVTZ AUX)
    Blend: AUG-CC-PVTZ-JKFIT

    Orbital Energies [Eh]
    ---------------------

    Doubly Occupied:

       1A    -20.552046     2A    -11.281375     3A    -11.234281
       4A    -11.231386     5A    -11.226106     6A    -11.220285
       7A    -11.212248     8A     -1.352413     9A     -1.097464
      10A     -1.034067    11A     -0.978484    12A     -0.874729
      13A     -0.809776    14A     -0.756574    15A     -0.692105
      16A     -0.655502    17A     -0.613765    18A     -0.593917
      19A     -0.581290    20A     -0.545034    21A     -0.536180
      22A     -0.521090    23A     -0.515612    24A     -0.508301
      25A     -0.488031    26A     -0.473034    27A     -0.437943
      28A     -0.363054

  @DF-RHF Final Energy:  -309.14744513430702

   => Energetics <=

    Nuclear Repulsion Energy =            299.2035553970942487
    One-Electron Energy =               -1011.9298216798700878
    Two-Electron Energy =                 403.5788211484688759
    Total Energy =                       -309.1474451343070200
  Basis Set: (AUG-CC-PVTZ AUX)
    Blend: AUG-CC-PVTZ-RI
    Molecular point group: c1

    Geometry (in Angstrom), charge = 0, multiplicity = 1:

       Center              X                  Y                   Z               Mass
    ------------   -----------------  -----------------  -----------------  -----------------
         O           -2.387547450728    -1.045689553735    -0.017139610957    15.994914619570
         C           -1.497249450728     0.033128446265    -0.342784610957    12.000000000000
         C           -0.162732350728    -0.213685753735     0.287907689043    12.000000000000
         C            2.332636549272    -0.462851553735     0.290627389043    12.000000000000
         C            0.990191549272    -0.281561553735    -0.347747610957    12.000000000000
         C           -2.232224350728     1.283418046265     0.100848489043    12.000000000000
         C            3.256770549272     0.725901446265     0.019621389043    12.000000000000
         H           -1.352921450728     0.085716446265    -1.434053610957     1.007825032230
         H           -0.186353450728    -0.242229553735     1.404437389043     1.007825032230
         H            2.801810549272    -1.378118553735    -0.092164610957     1.007825032230
         H            2.206929549272    -0.599273553735     1.370483389043     1.007825032230
         H            0.978765549272    -0.208836553735    -1.437691610957     1.007825032230
         H           -2.330315450728     1.251413446265     1.216351389043     1.007825032230
         H           -1.596415450728     2.176660446265    -0.115116610957     1.007825032230
         H           -3.173779450728     1.379362446265    -0.338135610957     1.007825032230
         H            2.828447549272     1.644347446265     0.428988389043     1.007825032230
         H            3.400776549272     0.871415446265    -1.054845610957     1.007825032230
         H            4.239683549272     0.572732446265     0.473721389043     1.007825032230
         H           -1.922839450728    -1.868496553735    -0.250839610957     1.007825032230

  Basis Set: AUG-CC-PVTZ
    Blend: AUG-CC-PVTZ
  Basis Set: (AUG-CC-PVTZ AUX)
    Blend: AUG-CC-PVTZ-JKFIT
	 Reference Energy          =    -309.1474451343070200 [Eh]
	 Singles Energy            =      -0.0000000000000000 [Eh]
	 Same-Spin Energy          =      -0.3165801315080308 [Eh]
	 Opposite-Spin Energy      =      -1.1021665831010083 [Eh]
	 Correlation Energy        =      -1.4187467146090391 [Eh]
	 Total Energy              =    -310.5661918489160485 [Eh]

	 ================> DF-SCS-MP2 Energies <==================
	-----------------------------------------------------------
	 SCS Same-Spin Scale       =       0.3333333333333333 [-]
	 SCS Opposite-Spin Scale   =       1.2000000000000000 [-]
	 SCS Same-Spin Energy      =      -0.1055267105026769 [Eh]
	 SCS Opposite-Spin Energy  =      -1.3225998997212101 [Eh]
	 SCS Correlation Energy    =      -1.4281266102238870 [Eh]
	 SCS Total Energy          =    -310.5755717445309187 [Eh]
	-----------------------------------------------------------

  Dipole Moment: [D]
     X:     1.9452      Y:     0.0582      Z:    -0.5764     Total:     2.0297

*** Psi4 exiting successfully. Buy a developer a beer!
