                               Psi4 1.3.2 release

  ==> Input File <==

--------------------------------------------------------------------------
#psi4
#
memory 32 gb

molecule  {
0 1
  O       -2.3916800    -1.0522970    -0.0243250
  C       -1.4648743     0.0255469    -0.4192874
  C       -0.1728060    -0.1763470     0.3083280
  C        2.3285040    -0.4694590     0.2834420
  C        0.9503854    -0.2804987    -0.4148462
  C       -2.1959480     1.2879740     0.1259890
  C        3.2526380     0.7192940     0.0124360
  H       -1.3570540     0.0791090    -1.4412390
  H       -0.1904860    -0.2488370     1.3972520
  H        2.7976780    -1.3847260    -0.0993500
  H        2.2027970    -0.6058810     1.3632980
  H        0.9746330    -0.2154440    -1.4448770
  H       -2.3344480     1.2448060     1.2091660
  H       -1.6005480     2.1700530    -0.1223020
  H       -3.1779120     1.3727550    -0.3453210
  H        2.8243150     1.6377400     0.4218030
  H        3.3966440     0.8648080    -1.0620310
  H        4.2355510     0.5661250     0.4665360
  H       -1.9269720    -1.8751040    -0.2580250
units angstrom
no_reorient  #important for SAPT in psi4, default
symmetry c1  #important for SAPT in psi4, default
}

set PROPERTIES_ORIGIN ["COM"]
properties('MP2/aug-cc-pvtz', properties = ['dipole'])
--------------------------------------------------------------------------

    Molecular point group: c1
  Charge       = 0
  Multiplicity = 1
  Basis Set: AUG-CC-PVTZ
    Blend: AUG-CC-PVTZ
  Basis Set: (AUG-CC-PVTZ AUX)
    Blend: AUG-CC-PVTZ-JKFIT

    Orbital Energies [Eh]
    ---------------------

    Doubly Occupied:

       1A    -20.549864     2A    -11.277729     3A    -11.233462
       4A    -11.231985     5A    -11.228989     6A    -11.218235
       7A    -11.211575     8A     -1.338437     9A     -1.091623
      10A     -1.029989    11A     -0.970435    12A     -0.868496
      13A     -0.810026    14A     -0.775821    15A     -0.683560
      16A     -0.656497    17A     -0.603448    18A     -0.597281
      19A     -0.569400    20A     -0.552962    21A     -0.530928
      22A     -0.524847    23A     -0.516107    24A     -0.505306
      25A     -0.491211    26A     -0.469771    27A     -0.440661
      28A     -0.357269

  @DF-RHF Final Energy:  -309.13879337724120

   => Energetics <=

    Nuclear Repulsion Energy =            298.3594453475878367
    One-Electron Energy =               -1010.3246500816520665
    Two-Electron Energy =                 402.8264113568229732
    Total Energy =                       -309.1387933772411998
  Basis Set: (AUG-CC-PVTZ AUX)
    Blend: AUG-CC-PVTZ-RI
    Molecular point group: c1

    Geometry (in Angstrom), charge = 0, multiplicity = 1:

       Center              X                  Y                   Z               Mass
    ------------   -----------------  -----------------  -----------------  -----------------
         O           -2.391779919660    -1.053099668441    -0.008831110153    15.994914619570
         C           -1.464974219660     0.024744231559    -0.403793510153    12.000000000000
         C           -0.172905919660    -0.177149668441     0.323821889847    12.000000000000
         C            2.328404080340    -0.470261668441     0.298935889847    12.000000000000
         C            0.950285480340    -0.281301368441    -0.399352310153    12.000000000000
         C           -2.196047919660     1.287171331559     0.141482889847    12.000000000000
         C            3.252538080340     0.718491331559     0.027929889847    12.000000000000
         H           -1.357153919660     0.078306331559    -1.425745110153     1.007825032230
         H           -0.190585919660    -0.249639668441     1.412745889847     1.007825032230
         H            2.797578080340    -1.385528668441    -0.083856110153     1.007825032230
         H            2.202697080340    -0.606683668441     1.378791889847     1.007825032230
         H            0.974533080340    -0.216246668441    -1.429383110153     1.007825032230
         H           -2.334547919660     1.244003331559     1.224659889847     1.007825032230
         H           -1.600647919660     2.169250331559    -0.106808110153     1.007825032230
         H           -3.178011919660     1.371952331559    -0.329827110153     1.007825032230
         H            2.824215080340     1.636937331559     0.437296889847     1.007825032230
         H            3.396544080340     0.864005331559    -1.046537110153     1.007825032230
         H            4.235451080340     0.565322331559     0.482029889847     1.007825032230
         H           -1.927071919660    -1.875906668441    -0.242531110153     1.007825032230

  Basis Set: AUG-CC-PVTZ
    Blend: AUG-CC-PVTZ
  Basis Set: (AUG-CC-PVTZ AUX)
    Blend: AUG-CC-PVTZ-JKFIT
	 Reference Energy          =    -309.1387933772411998 [Eh]
	 Singles Energy            =      -0.0000000000000000 [Eh]
	 Same-Spin Energy          =      -0.3163904271605804 [Eh]
	 Opposite-Spin Energy      =      -1.1031464591976232 [Eh]
	 Correlation Energy        =      -1.4195368863582036 [Eh]
	 Total Energy              =    -310.5583302635994301 [Eh]

	 ================> DF-SCS-MP2 Energies <==================
	-----------------------------------------------------------
	 SCS Same-Spin Scale       =       0.3333333333333333 [-]
	 SCS Opposite-Spin Scale   =       1.2000000000000000 [-]
	 SCS Same-Spin Energy      =      -0.1054634757201935 [Eh]
	 SCS Opposite-Spin Energy  =      -1.3237757510371477 [Eh]
	 SCS Correlation Energy    =      -1.4292392267573413 [Eh]
	 SCS Total Energy          =    -310.5680326039985175 [Eh]
	-----------------------------------------------------------

  Dipole Moment: [D]
     X:     1.9481      Y:     0.0480      Z:    -0.6530     Total:     2.0552

*** Psi4 exiting successfully. Buy a developer a beer!
