                               Psi4 1.3.2 release

  ==> Input File <==

--------------------------------------------------------------------------
#psi4
#
memory 32 gb

molecule  {
0 1
  O       -2.3916800    -1.0522970    -0.0243250
  C       -1.5013820     0.0265210    -0.3499700
  C       -0.1728060    -0.1763470     0.3083280
  C        2.3285040    -0.4694590     0.2834420
  C        0.8067692    -0.2639569    -0.4401910
  C       -2.1959480     1.2879740     0.1259890
  C        3.2526380     0.7192940     0.0124360
  H       -1.3570540     0.0791090    -1.4412390
  H       -0.1904860    -0.2488370     1.3972520
  H        2.7976780    -1.3847260    -0.0993500
  H        2.2027970    -0.6058810     1.3632980
  H        0.9746330    -0.2154440    -1.4448770
  H       -2.3344480     1.2448060     1.2091660
  H       -1.6005480     2.1700530    -0.1223020
  H       -3.1779120     1.3727550    -0.3453210
  H        2.8243150     1.6377400     0.4218030
  H        3.3966440     0.8648080    -1.0620310
  H        4.2355510     0.5661250     0.4665360
  H       -1.9269720    -1.8751040    -0.2580250
units angstrom
no_reorient  #important for SAPT in psi4, default
symmetry c1  #important for SAPT in psi4, default
}

set PROPERTIES_ORIGIN ["COM"]
properties('MP2/aug-cc-pvtz', properties = ['dipole'])
--------------------------------------------------------------------------

    Molecular point group: c1
  Charge       = 0
  Multiplicity = 1
  Basis Set: AUG-CC-PVTZ
    Blend: AUG-CC-PVTZ
  Basis Set: (AUG-CC-PVTZ AUX)
    Blend: AUG-CC-PVTZ-JKFIT

    Orbital Energies [Eh]
    ---------------------

    Doubly Occupied:

       1A    -20.552674     2A    -11.277003     3A    -11.233217
       4A    -11.224716     5A    -11.216316     6A    -11.214339
       7A    -11.209811     8A     -1.352292     9A     -1.103443
      10A     -1.023882    11A     -0.984010    12A     -0.856042
      13A     -0.806060    14A     -0.774140    15A     -0.691823
      16A     -0.665504    17A     -0.601959    18A     -0.594175
      19A     -0.579271    20A     -0.562348    21A     -0.530688
      22A     -0.525615    23A     -0.514857    24A     -0.504802
      25A     -0.488222    26A     -0.453483    27A     -0.409740
      28A     -0.388459

  @DF-RHF Final Energy:  -309.11532027187104

   => Energetics <=

    Nuclear Repulsion Energy =            299.6214137028266578
    One-Electron Energy =               -1012.7956842834860254
    Two-Electron Energy =                 404.0589503087883259
    Total Energy =                       -309.1153202718710418
  Basis Set: (AUG-CC-PVTZ AUX)
    Blend: AUG-CC-PVTZ-RI
    Molecular point group: c1

    Geometry (in Angstrom), charge = 0, multiplicity = 1:

       Center              X                  Y                   Z               Mass
    ------------   -----------------  -----------------  -----------------  -----------------
         O           -2.370184231872    -1.055199711288    -0.014103139799    15.994914619570
         C           -1.479886231872     0.023618288712    -0.339748139799    12.000000000000
         C           -0.151310231872    -0.179249711288     0.318549860201    12.000000000000
         C            2.349999768128    -0.472361711288     0.293663860201    12.000000000000
         C            0.828264968128    -0.266859611288    -0.429969139799    12.000000000000
         C           -2.174452231872     1.285071288712     0.136210860201    12.000000000000
         C            3.274133768128     0.716391288712     0.022657860201    12.000000000000
         H           -1.335558231872     0.076206288712    -1.431017139799     1.007825032230
         H           -0.168990231872    -0.251739711288     1.407473860201     1.007825032230
         H            2.819173768128    -1.387628711288    -0.089128139799     1.007825032230
         H            2.224292768128    -0.608783711288     1.373519860201     1.007825032230
         H            0.996128768128    -0.218346711288    -1.434655139799     1.007825032230
         H           -2.312952231872     1.241903288712     1.219387860201     1.007825032230
         H           -1.579052231872     2.167150288712    -0.112080139799     1.007825032230
         H           -3.156416231872     1.369852288712    -0.335099139799     1.007825032230
         H            2.845810768128     1.634837288712     0.432024860201     1.007825032230
         H            3.418139768128     0.861905288712    -1.051809139799     1.007825032230
         H            4.257046768128     0.563222288712     0.476757860201     1.007825032230
         H           -1.905476231872    -1.878006711288    -0.247803139799     1.007825032230

  Basis Set: AUG-CC-PVTZ
    Blend: AUG-CC-PVTZ
  Basis Set: (AUG-CC-PVTZ AUX)
    Blend: AUG-CC-PVTZ-JKFIT
	 Reference Energy          =    -309.1153202718710418 [Eh]
	 Singles Energy            =      -0.0000000000000000 [Eh]
	 Same-Spin Energy          =      -0.3157047144965993 [Eh]
	 Opposite-Spin Energy      =      -1.1011885191285460 [Eh]
	 Correlation Energy        =      -1.4168932336251454 [Eh]
	 Total Energy              =    -310.5322135054962018 [Eh]

	 ================> DF-SCS-MP2 Energies <==================
	-----------------------------------------------------------
	 SCS Same-Spin Scale       =       0.3333333333333333 [-]
	 SCS Opposite-Spin Scale   =       1.2000000000000000 [-]
	 SCS Same-Spin Energy      =      -0.1052349048321998 [Eh]
	 SCS Opposite-Spin Energy  =      -1.3214262229542550 [Eh]
	 SCS Correlation Energy    =      -1.4266611277864549 [Eh]
	 SCS Total Energy          =    -310.5419813996575158 [Eh]
	-----------------------------------------------------------

  Dipole Moment: [D]
     X:     1.7264      Y:     0.0194      Z:    -0.5995     Total:     1.8277

*** Psi4 exiting successfully. Buy a developer a beer!
