                               Psi4 1.3.2 release

  ==> Input File <==

--------------------------------------------------------------------------
#psi4
#
memory 32 gb

molecule  {
0 1
  O       -2.3916800    -1.0522970    -0.0243250
  C       -1.5013820     0.0265210    -0.3499700
  C       -0.1728060    -0.1763470     0.3083280
  C        2.3285040    -0.4694590     0.2834420
  C        0.9860590    -0.2881690    -0.3549330
  C       -2.1959480     1.2879740     0.1259890
  C        3.2526380     0.7192940     0.0124360
  H       -1.3570540     0.0791090    -1.4412390
  H       -0.1904860    -0.2488370     1.3972520
  H        2.7976780    -1.3847260    -0.0993500
  H        2.2027970    -0.6058810     1.3632980
  H        0.9746330    -0.2154440    -1.4448770
  H       -2.3344480     1.2448060     1.2091660
  H       -1.6005480     2.1700530    -0.1223020
  H       -3.1779120     1.3727550    -0.3453210
  H        2.8243150     1.6377400     0.4218030
  H        3.3966440     0.8648080    -1.0620310
  H        4.2355510     0.5661250     0.4665360
  H       -1.8314943    -2.0441558    -0.3060404
units angstrom
no_reorient  #important for SAPT in psi4, default
symmetry c1  #important for SAPT in psi4, default
}

set PROPERTIES_ORIGIN ["COM"]
properties('MP2/aug-cc-pvtz', properties = ['dipole'])
--------------------------------------------------------------------------

    Molecular point group: c1
  Charge       = 0
  Multiplicity = 1
  Basis Set: AUG-CC-PVTZ
    Blend: AUG-CC-PVTZ
  Basis Set: (AUG-CC-PVTZ AUX)
    Blend: AUG-CC-PVTZ-JKFIT

    Orbital Energies [Eh]
    ---------------------

    Doubly Occupied:

       1A    -20.568758     2A    -11.279726     3A    -11.235123
       4A    -11.230185     5A    -11.225543     6A    -11.219270
       7A    -11.210901     8A     -1.322113     9A     -1.092503
      10A     -1.029832    11A     -0.972486    12A     -0.872341
      13A     -0.802193    14A     -0.758760    15A     -0.660448
      16A     -0.652210    17A     -0.607076    18A     -0.593633
      19A     -0.573439    20A     -0.537878    21A     -0.535697
      22A     -0.522805    23A     -0.520153    24A     -0.505086
      25A     -0.486684    26A     -0.463832    27A     -0.437934
      28A     -0.355772

  @DF-RHF Final Energy:  -309.11614969543137

   => Energetics <=

    Nuclear Repulsion Energy =            298.1776890617142044
    One-Electron Energy =               -1010.0429175612421204
    Two-Electron Energy =                 402.7490788040965413
    Total Energy =                       -309.1161496954313748
  Basis Set: (AUG-CC-PVTZ AUX)
    Blend: AUG-CC-PVTZ-RI
    Molecular point group: c1

    Geometry (in Angstrom), charge = 0, multiplicity = 1:

       Center              X                  Y                   Z               Mass
    ------------   -----------------  -----------------  -----------------  -----------------
         O           -2.392641310776    -1.050594602957    -0.023841539419    15.994914619570
         C           -1.502343310776     0.028223397043    -0.349486539419    12.000000000000
         C           -0.173767310776    -0.174644602957     0.308811460581    12.000000000000
         C            2.327542689224    -0.467756602957     0.283925460581    12.000000000000
         C            0.985097689224    -0.286466602957    -0.354449539419    12.000000000000
         C           -2.196909310776     1.289676397043     0.126472460581    12.000000000000
         C            3.251676689224     0.720996397043     0.012919460581    12.000000000000
         H           -1.358015310776     0.080811397043    -1.440755539419     1.007825032230
         H           -0.191447310776    -0.247134602957     1.397735460581     1.007825032230
         H            2.796716689224    -1.383023602957    -0.098866539419     1.007825032230
         H            2.201835689224    -0.604178602957     1.363781460581     1.007825032230
         H            0.973671689224    -0.213741602957    -1.444393539419     1.007825032230
         H           -2.335409310776     1.246508397043     1.209649460581     1.007825032230
         H           -1.601509310776     2.171755397043    -0.121818539419     1.007825032230
         H           -3.178873310776     1.374457397043    -0.344837539419     1.007825032230
         H            2.823353689224     1.639442397043     0.422286460581     1.007825032230
         H            3.395682689224     0.866510397043    -1.061547539419     1.007825032230
         H            4.234589689224     0.567827397043     0.467019460581     1.007825032230
         H           -1.832455610776    -2.042453402957    -0.305556939419     1.007825032230

  Basis Set: AUG-CC-PVTZ
    Blend: AUG-CC-PVTZ
  Basis Set: (AUG-CC-PVTZ AUX)
    Blend: AUG-CC-PVTZ-JKFIT
	 Reference Energy          =    -309.1161496954313748 [Eh]
	 Singles Energy            =      -0.0000000000000000 [Eh]
	 Same-Spin Energy          =      -0.3189783143604649 [Eh]
	 Opposite-Spin Energy      =      -1.1092963418111443 [Eh]
	 Correlation Energy        =      -1.4282746561716091 [Eh]
	 Total Energy              =    -310.5444243516029701 [Eh]

	 ================> DF-SCS-MP2 Energies <==================
	-----------------------------------------------------------
	 SCS Same-Spin Scale       =       0.3333333333333333 [-]
	 SCS Opposite-Spin Scale   =       1.2000000000000000 [-]
	 SCS Same-Spin Energy      =      -0.1063261047868216 [Eh]
	 SCS Opposite-Spin Energy  =      -1.3311556101733732 [Eh]
	 SCS Correlation Energy    =      -1.4374817149601948 [Eh]
	 SCS Total Energy          =    -310.5536314103915743 [Eh]
	-----------------------------------------------------------

  Dipole Moment: [D]
     X:     1.9334      Y:    -0.0897      Z:    -0.5715     Total:     2.0181

*** Psi4 exiting successfully. Buy a developer a beer!
