                               Psi4 1.3.2 release

  ==> Input File <==

--------------------------------------------------------------------------
#psi4
#
memory 32 gb

molecule  {
0 1
  O       -2.3916800    -1.0522970    -0.0243250
  C       -1.5013820     0.0265210    -0.3499700
  C       -0.2615826    -0.1627912     0.2643399
  C        2.3285040    -0.4694590     0.2834420
  C        0.9860590    -0.2881690    -0.3549330
  C       -2.1959480     1.2879740     0.1259890
  C        3.2526380     0.7192940     0.0124360
  H       -1.3570540     0.0791090    -1.4412390
  H       -0.1904860    -0.2488370     1.3972520
  H        2.7976780    -1.3847260    -0.0993500
  H        2.2027970    -0.6058810     1.3632980
  H        0.9746330    -0.2154440    -1.4448770
  H       -2.3344480     1.2448060     1.2091660
  H       -1.6005480     2.1700530    -0.1223020
  H       -3.1779120     1.3727550    -0.3453210
  H        2.8243150     1.6377400     0.4218030
  H        3.3966440     0.8648080    -1.0620310
  H        4.2355510     0.5661250     0.4665360
  H       -1.9269720    -1.8751040    -0.2580250
units angstrom
no_reorient  #important for SAPT in psi4, default
symmetry c1  #important for SAPT in psi4, default
}

set PROPERTIES_ORIGIN ["COM"]
properties('MP2/aug-cc-pvtz', properties = ['dipole'])
--------------------------------------------------------------------------

    Molecular point group: c1
  Charge       = 0
  Multiplicity = 1
  Basis Set: AUG-CC-PVTZ
    Blend: AUG-CC-PVTZ
  Basis Set: (AUG-CC-PVTZ AUX)
    Blend: AUG-CC-PVTZ-JKFIT

    Orbital Energies [Eh]
    ---------------------

    Doubly Occupied:

       1A    -20.553601     2A    -11.275588     3A    -11.246029
       4A    -11.234515     5A    -11.233376     6A    -11.221319
       7A    -11.211647     8A     -1.355603     9A     -1.094099
      10A     -1.045920    11A     -0.968943    12A     -0.883206
      13A     -0.810122    14A     -0.757068    15A     -0.696776
      16A     -0.657407    17A     -0.612024    18A     -0.591699
      19A     -0.583491    20A     -0.538469    21A     -0.530218
      22A     -0.529075    23A     -0.522771    24A     -0.506631
      25A     -0.483715    26A     -0.478539    27A     -0.449754
      28A     -0.342818

  @DF-RHF Final Energy:  -309.13447097133542

   => Energetics <=

    Nuclear Repulsion Energy =            299.6472567086788104
    One-Electron Energy =               -1012.7346062801873359
    Two-Electron Energy =                 403.9528786001731078
    Total Energy =                       -309.1344709713354177
  Basis Set: (AUG-CC-PVTZ AUX)
    Blend: AUG-CC-PVTZ-RI
    Molecular point group: c1

    Geometry (in Angstrom), charge = 0, multiplicity = 1:

       Center              X                  Y                   Z               Mass
    ------------   -----------------  -----------------  -----------------  -----------------
         O           -2.381036177715    -1.053922090007    -0.019051133239    15.994914619570
         C           -1.490738177715     0.024895909993    -0.344696133239    12.000000000000
         C           -0.250938777715    -0.164416290007     0.269613766761    12.000000000000
         C            2.339147822285    -0.471084090007     0.288715866761    12.000000000000
         C            0.996702822285    -0.289794090007    -0.349659133239    12.000000000000
         C           -2.185304177715     1.286348909993     0.131262866761    12.000000000000
         C            3.263281822285     0.717668909993     0.017709866761    12.000000000000
         H           -1.346410177715     0.077483909993    -1.435965133239     1.007825032230
         H           -0.179842177715    -0.250462090007     1.402525866761     1.007825032230
         H            2.808321822285    -1.386351090007    -0.094076133239     1.007825032230
         H            2.213440822285    -0.607506090007     1.368571866761     1.007825032230
         H            0.985276822285    -0.217069090007    -1.439603133239     1.007825032230
         H           -2.323804177715     1.243180909993     1.214439866761     1.007825032230
         H           -1.589904177715     2.168427909993    -0.117028133239     1.007825032230
         H           -3.167268177715     1.371129909993    -0.340047133239     1.007825032230
         H            2.834958822285     1.636114909993     0.427076866761     1.007825032230
         H            3.407287822285     0.863182909993    -1.056757133239     1.007825032230
         H            4.246194822285     0.564499909993     0.471809866761     1.007825032230
         H           -1.916328177715    -1.876729090007    -0.252751133239     1.007825032230

  Basis Set: AUG-CC-PVTZ
    Blend: AUG-CC-PVTZ
  Basis Set: (AUG-CC-PVTZ AUX)
    Blend: AUG-CC-PVTZ-JKFIT
	 Reference Energy          =    -309.1344709713354177 [Eh]
	 Singles Energy            =      -0.0000000000000000 [Eh]
	 Same-Spin Energy          =      -0.3188196630065921 [Eh]
	 Opposite-Spin Energy      =      -1.1057446730224141 [Eh]
	 Correlation Energy        =      -1.4245643360290061 [Eh]
	 Total Energy              =    -310.5590353073644110 [Eh]

	 ================> DF-SCS-MP2 Energies <==================
	-----------------------------------------------------------
	 SCS Same-Spin Scale       =       0.3333333333333333 [-]
	 SCS Opposite-Spin Scale   =       1.2000000000000000 [-]
	 SCS Same-Spin Energy      =      -0.1062732210021974 [Eh]
	 SCS Opposite-Spin Energy  =      -1.3268936076268969 [Eh]
	 SCS Correlation Energy    =      -1.4331668286290942 [Eh]
	 SCS Total Energy          =    -310.5676377999645297 [Eh]
	-----------------------------------------------------------

  Dipole Moment: [D]
     X:     1.9704      Y:     0.0371      Z:    -0.5567     Total:     2.0479

*** Psi4 exiting successfully. Buy a developer a beer!
