                               Psi4 1.4a3.dev225

  ==> Input File <==

--------------------------------------------------------------------------
#psi4
#
memory 32 gb

molecule  {
0 1
  O        2.4733480    -1.0180220    -0.0592030
  C        1.5295691     0.0635684     0.3318275
  C        0.2241640    -0.1896060    -0.3216700
  C       -2.2699720    -0.5538550    -0.2568310
  C       -0.9183080    -0.3574540     0.3612590
  C        2.2155680     1.3228410    -0.1266610
  C       -3.2245640     0.5955150     0.0801580
  H        1.4362950     0.0398890     1.4137890
  H        0.2208170    -0.2229080    -1.4128920
  H       -2.7032570    -1.4976940     0.0989920
  H       -2.1635450    -0.6441890    -1.3439560
  H       -0.8861850    -0.3229140     1.4529890
  H        2.3348110     1.3198720    -1.2134080
  H        1.6025990     2.1805020     0.1626330
  H        3.2041590     1.4168830     0.3297970
  H       -2.8327200     1.5423190    -0.3012060
  H       -3.3500700     0.6943310     1.1626160
  H       -4.2121190     0.4296020    -0.3601990
  H        2.0333780    -1.8594800     0.1548220
units angstrom
no_reorient  #important for SAPT in psi4, default
symmetry c1  #important for SAPT in psi4, default
}

set PROPERTIES_ORIGIN ["COM"]
properties('MP2/aug-cc-pvtz', properties = ['dipole'])
--------------------------------------------------------------------------

    Molecular point group: c1
  Charge       = 0
  Multiplicity = 1
  Basis Set: AUG-CC-PVTZ
    Blend: AUG-CC-PVTZ
  Basis Set: (AUG-CC-PVTZ AUX)
    Blend: AUG-CC-PVTZ-JKFIT

    Orbital Energies [Eh]
    ---------------------

    Doubly Occupied:

       1A    -20.547275     2A    -11.281615     3A    -11.238231
       4A    -11.231944     5A    -11.227954     6A    -11.220906
       7A    -11.211994     8A     -1.333163     9A     -1.096901
      10A     -1.038480    11A     -0.976682    12A     -0.875426
      13A     -0.807323    14A     -0.762586    15A     -0.681322
      16A     -0.654868    17A     -0.611280    18A     -0.595672
      19A     -0.571793    20A     -0.540769    21A     -0.536929
      22A     -0.522931    23A     -0.518186    24A     -0.510051
      25A     -0.488606    26A     -0.474389    27A     -0.446319
      28A     -0.357165

  @DF-RHF Final Energy:  -309.14858951953050

   => Energetics <=

    Nuclear Repulsion Energy =            298.6893094390005672
    One-Electron Energy =               -1010.9542772871883471
    Two-Electron Energy =                 403.1163783286572766
    Total Energy =                       -309.1485895195305034
  Basis Set: (AUG-CC-PVTZ AUX)
    Blend: AUG-CC-PVTZ-RI
    Molecular point group: c1

    Geometry (in Angstrom), charge = 0, multiplicity = 1:

       Center              X                  Y                   Z               Mass
    ------------   -----------------  -----------------  -----------------  -----------------
         O            2.424580895621    -0.991937389998    -0.059354332538    15.994914619570
         C            1.480801995621     0.089653010002     0.331676167462    12.000000000000
         C            0.175396895621    -0.163521389998    -0.321821332538    12.000000000000
         C           -2.318739104379    -0.527770389998    -0.256982332538    12.000000000000
         C           -0.967075104379    -0.331369389998     0.361107667462    12.000000000000
         C            2.166800895621     1.348925610002    -0.126812332538    12.000000000000
         C           -3.273331104379     0.621599610002     0.080006667462    12.000000000000
         H            1.387527895621     0.065973610002     1.413637667462     1.007825032230
         H            0.172049895621    -0.196823389998    -1.413043332538     1.007825032230
         H           -2.752024104379    -1.471609389998     0.098840667462     1.007825032230
         H           -2.212312104379    -0.618104389998    -1.344107332538     1.007825032230
         H           -0.934952104379    -0.296829389998     1.452837667462     1.007825032230
         H            2.286043895621     1.345956610002    -1.213559332538     1.007825032230
         H            1.553831895621     2.206586610002     0.162481667462     1.007825032230
         H            3.155391895621     1.442967610002     0.329645667462     1.007825032230
         H           -2.881487104379     1.568403610002    -0.301357332538     1.007825032230
         H           -3.398837104379     0.720415610002     1.162464667462     1.007825032230
         H           -4.260886104379     0.455686610002    -0.360350332538     1.007825032230
         H            1.984610895621    -1.833395389998     0.154670667462     1.007825032230

  Basis Set: AUG-CC-PVTZ
    Blend: AUG-CC-PVTZ
  Basis Set: (AUG-CC-PVTZ AUX)
    Blend: AUG-CC-PVTZ-JKFIT
	 Reference Energy          =    -309.1485895195305034 [Eh]
	 Singles Energy            =      -0.0000000000000000 [Eh]
	 Same-Spin Energy          =      -0.3170368326763021 [Eh]
	 Opposite-Spin Energy      =      -1.1035468585654078 [Eh]
	 Correlation Energy        =      -1.4205836912417098 [Eh]
	 Total Energy              =    -310.5691732107721919 [Eh]

	 ================> DF-SCS-MP2 Energies <==================
	-----------------------------------------------------------
	 SCS Same-Spin Scale       =       0.3333333333333333 [-]
	 SCS Opposite-Spin Scale   =       1.2000000000000000 [-]
	 SCS Same-Spin Energy      =      -0.1056789442254340 [Eh]
	 SCS Opposite-Spin Energy  =      -1.3242562302784893 [Eh]
	 SCS Correlation Energy    =      -1.4299351745039233 [Eh]
	 SCS Total Energy          =    -310.5785246940343995 [Eh]
	-----------------------------------------------------------

  Dipole Moment: [D]
     X:    -2.0443      Y:     0.0883      Z:     0.6196     Total:     2.1380

*** Psi4 exiting successfully. Buy a developer a beer!
