                               Psi4 1.3.2 release

  ==> Input File <==

--------------------------------------------------------------------------
#psi4
#
memory 32 gb

molecule  {
0 1
  O       -2.3916800    -1.0522970    -0.0243250
  C       -1.5013820     0.0265210    -0.3499700
  C       -0.1728060    -0.1763470     0.3083280
  C        2.3285040    -0.4694590     0.2834420
  C        1.1653488    -0.3123811    -0.2696750
  C       -2.1959480     1.2879740     0.1259890
  C        3.2526380     0.7192940     0.0124360
  H       -1.3570540     0.0791090    -1.4412390
  H       -0.1904860    -0.2488370     1.3972520
  H        2.7976780    -1.3847260    -0.0993500
  H        2.2027970    -0.6058810     1.3632980
  H        0.9746330    -0.2154440    -1.4448770
  H       -2.3344480     1.2448060     1.2091660
  H       -1.6005480     2.1700530    -0.1223020
  H       -3.1779120     1.3727550    -0.3453210
  H        2.8243150     1.6377400     0.4218030
  H        3.3966440     0.8648080    -1.0620310
  H        4.2355510     0.5661250     0.4665360
  H       -1.9269720    -1.8751040    -0.2580250
units angstrom
no_reorient  #important for SAPT in psi4, default
symmetry c1  #important for SAPT in psi4, default
}

set PROPERTIES_ORIGIN ["COM"]
properties('MP2/aug-cc-pvtz', properties = ['dipole'])
--------------------------------------------------------------------------

    Molecular point group: c1
  Charge       = 0
  Multiplicity = 1
  Basis Set: AUG-CC-PVTZ
    Blend: AUG-CC-PVTZ
  Basis Set: (AUG-CC-PVTZ AUX)
    Blend: AUG-CC-PVTZ-JKFIT

    Orbital Energies [Eh]
    ---------------------

    Doubly Occupied:

       1A    -20.553935     2A    -11.285176     3A    -11.253937
       4A    -11.239246     5A    -11.225877     6A    -11.222892
       7A    -11.211060     8A     -1.352978     9A     -1.124320
      10A     -1.038434    11A     -0.961337    12A     -0.895483
      13A     -0.804509    14A     -0.749541    15A     -0.693780
      16A     -0.658364    17A     -0.635159    18A     -0.592226
      19A     -0.578327    20A     -0.555977    21A     -0.528993
      22A     -0.527516    23A     -0.526222    24A     -0.516155
      25A     -0.489884    26A     -0.454590    27A     -0.444176
      28A     -0.322675

  @DF-RHF Final Energy:  -309.08613298817562

   => Energetics <=

    Nuclear Repulsion Energy =            299.2879702441254608
    One-Electron Energy =               -1011.8626685166067318
    Two-Electron Energy =                 403.4885652843057073
    Total Energy =                       -309.0861329881756205
  Basis Set: (AUG-CC-PVTZ AUX)
    Blend: AUG-CC-PVTZ-RI
    Molecular point group: c1

    Geometry (in Angstrom), charge = 0, multiplicity = 1:

       Center              X                  Y                   Z               Mass
    ------------   -----------------  -----------------  -----------------  -----------------
         O           -2.413175601084    -1.049393963663    -0.034546902670    15.994914619570
         C           -1.522877601084     0.029424036337    -0.360191902670    12.000000000000
         C           -0.194301601084    -0.173443963663     0.298106097330    12.000000000000
         C            2.307008398916    -0.466555963663     0.273220097330    12.000000000000
         C            1.143853198916    -0.309478063663    -0.279896902670    12.000000000000
         C           -2.217443601084     1.290877036337     0.115767097330    12.000000000000
         C            3.231142398916     0.722197036337     0.002214097330    12.000000000000
         H           -1.378549601084     0.082012036337    -1.451460902670     1.007825032230
         H           -0.211981601084    -0.245933963663     1.387030097330     1.007825032230
         H            2.776182398916    -1.381822963663    -0.109571902670     1.007825032230
         H            2.181301398916    -0.602977963663     1.353076097330     1.007825032230
         H            0.953137398916    -0.212540963663    -1.455098902670     1.007825032230
         H           -2.355943601084     1.247709036337     1.198944097330     1.007825032230
         H           -1.622043601084     2.172956036337    -0.132523902670     1.007825032230
         H           -3.199407601084     1.375658036337    -0.355542902670     1.007825032230
         H            2.802819398916     1.640643036337     0.411581097330     1.007825032230
         H            3.375148398916     0.867711036337    -1.072252902670     1.007825032230
         H            4.214055398916     0.569028036337     0.456314097330     1.007825032230
         H           -1.948467601084    -1.872200963663    -0.268246902670     1.007825032230

  Basis Set: AUG-CC-PVTZ
    Blend: AUG-CC-PVTZ
  Basis Set: (AUG-CC-PVTZ AUX)
    Blend: AUG-CC-PVTZ-JKFIT
	 Reference Energy          =    -309.0861329881756205 [Eh]
	 Singles Energy            =      -0.0000000000000000 [Eh]
	 Same-Spin Energy          =      -0.3220344611823619 [Eh]
	 Opposite-Spin Energy      =      -1.1107047132211387 [Eh]
	 Correlation Energy        =      -1.4327391744035007 [Eh]
	 Total Energy              =    -310.5188721625791004 [Eh]

	 ================> DF-SCS-MP2 Energies <==================
	-----------------------------------------------------------
	 SCS Same-Spin Scale       =       0.3333333333333333 [-]
	 SCS Opposite-Spin Scale   =       1.2000000000000000 [-]
	 SCS Same-Spin Energy      =      -0.1073448203941206 [Eh]
	 SCS Opposite-Spin Energy  =      -1.3328456558653665 [Eh]
	 SCS Correlation Energy    =      -1.4401904762594873 [Eh]
	 SCS Total Energy          =    -310.5263234644351087 [Eh]
	-----------------------------------------------------------

  Dipole Moment: [D]
     X:     2.1797      Y:    -0.0032      Z:    -0.4836     Total:     2.2327

*** Psi4 exiting successfully. Buy a developer a beer!
