                               Psi4 1.3.2 release

  ==> Input File <==

--------------------------------------------------------------------------
#psi4
#
memory 32 gb

molecule  {
0 1
  O       -2.3916800    -1.0522970    -0.0243250
  C       -1.5013820     0.0265210    -0.3499700
  C       -0.1494573    -0.1820932     0.3484431
  C        2.3285040    -0.4694590     0.2834420
  C        0.9860590    -0.2881690    -0.3549330
  C       -2.1959480     1.2879740     0.1259890
  C        3.2526380     0.7192940     0.0124360
  H       -1.3570540     0.0791090    -1.4412390
  H       -0.1904860    -0.2488370     1.3972520
  H        2.7976780    -1.3847260    -0.0993500
  H        2.2027970    -0.6058810     1.3632980
  H        1.0124273    -0.2204995    -1.4449435
  H       -2.3344480     1.2448060     1.2091660
  H       -1.6005480     2.1700530    -0.1223020
  H       -3.1779120     1.3727550    -0.3453210
  H        2.8243150     1.6377400     0.4218030
  H        3.3966440     0.8648080    -1.0620310
  H        4.2355510     0.5661250     0.4665360
  H       -1.9269720    -1.8751040    -0.2580250
units angstrom
no_reorient  #important for SAPT in psi4, default
symmetry c1  #important for SAPT in psi4, default
}

set PROPERTIES_ORIGIN ["COM"]
properties('MP2/aug-cc-pvtz', properties = ['dipole'])
--------------------------------------------------------------------------

    Molecular point group: c1
  Charge       = 0
  Multiplicity = 1
  Basis Set: AUG-CC-PVTZ
    Blend: AUG-CC-PVTZ
  Basis Set: (AUG-CC-PVTZ AUX)
    Blend: AUG-CC-PVTZ-JKFIT

    Orbital Energies [Eh]
    ---------------------

    Doubly Occupied:

       1A    -20.553045     2A    -11.282656     3A    -11.236290
       4A    -11.228334     5A    -11.225432     6A    -11.218893
       7A    -11.210112     8A     -1.351693     9A     -1.093411
      10A     -1.031252    11A     -0.974184    12A     -0.870474
      13A     -0.804456    14A     -0.766643    15A     -0.690832
      16A     -0.653776    17A     -0.609446    18A     -0.597120
      19A     -0.576309    20A     -0.547527    21A     -0.534839
      22A     -0.527171    23A     -0.521755    24A     -0.510171
      25A     -0.487665    26A     -0.467159    27A     -0.435657
      28A     -0.357033

  @DF-RHF Final Energy:  -309.14961464246602

   => Energetics <=

    Nuclear Repulsion Energy =            298.7731894320920105
    One-Electron Energy =               -1011.1189400148585946
    Two-Electron Energy =                 403.1961359403006213
    Total Energy =                       -309.1496146424660196
  Basis Set: (AUG-CC-PVTZ AUX)
    Blend: AUG-CC-PVTZ-RI
    Molecular point group: c1

    Geometry (in Angstrom), charge = 0, multiplicity = 1:

       Center              X                  Y                   Z               Mass
    ------------   -----------------  -----------------  -----------------  -----------------
         O           -2.394859836648    -1.051556999967    -0.029133892032    15.994914619570
         C           -1.504561836648     0.027261000033    -0.354778892032    12.000000000000
         C           -0.152637136648    -0.181353199967     0.343634207968    12.000000000000
         C            2.325324163352    -0.468718999967     0.278633107968    12.000000000000
         C            0.982879163352    -0.287428999967    -0.359741892032    12.000000000000
         C           -2.199127836648     1.288714000033     0.121180107968    12.000000000000
         C            3.249458163352     0.720034000033     0.007627107968    12.000000000000
         H           -1.360233836648     0.079849000033    -1.446047892032     1.007825032230
         H           -0.193665836648    -0.248096999967     1.392443107968     1.007825032230
         H            2.794498163352    -1.383985999967    -0.104158892032     1.007825032230
         H            2.199617163352    -0.605140999967     1.358489107968     1.007825032230
         H            1.009247463352    -0.219759499967    -1.449752392032     1.007825032230
         H           -2.337627836648     1.245546000033     1.204357107968     1.007825032230
         H           -1.603727836648     2.170793000033    -0.127110892032     1.007825032230
         H           -3.181091836648     1.373495000033    -0.350129892032     1.007825032230
         H            2.821135163352     1.638480000033     0.416994107968     1.007825032230
         H            3.393464163352     0.865548000033    -1.066839892032     1.007825032230
         H            4.232371163352     0.566865000033     0.461727107968     1.007825032230
         H           -1.930151836648    -1.874363999967    -0.262833892032     1.007825032230

  Basis Set: AUG-CC-PVTZ
    Blend: AUG-CC-PVTZ
  Basis Set: (AUG-CC-PVTZ AUX)
    Blend: AUG-CC-PVTZ-JKFIT
	 Reference Energy          =    -309.1496146424660196 [Eh]
	 Singles Energy            =      -0.0000000000000000 [Eh]
	 Same-Spin Energy          =      -0.3163708314856283 [Eh]
	 Opposite-Spin Energy      =      -1.1021959103641956 [Eh]
	 Correlation Energy        =      -1.4185667418498240 [Eh]
	 Total Energy              =    -310.5681813843158352 [Eh]

	 ================> DF-SCS-MP2 Energies <==================
	-----------------------------------------------------------
	 SCS Same-Spin Scale       =       0.3333333333333333 [-]
	 SCS Opposite-Spin Scale   =       1.2000000000000000 [-]
	 SCS Same-Spin Energy      =      -0.1054569438285428 [Eh]
	 SCS Opposite-Spin Energy  =      -1.3226350924370347 [Eh]
	 SCS Correlation Energy    =      -1.4280920362655776 [Eh]
	 SCS Total Energy          =    -310.5777066787316016 [Eh]
	-----------------------------------------------------------

  Dipole Moment: [D]
     X:     1.8968      Y:    -0.0024      Z:    -0.5528     Total:     1.9757

*** Psi4 exiting successfully. Buy a developer a beer!
