                               Psi4 1.3.2 release

  ==> Input File <==

--------------------------------------------------------------------------
#psi4
#
memory 32 gb

molecule  {
0 1
  O       -2.3916800    -1.0522970    -0.0243250
  C       -1.4677422    -0.0071523    -0.3656970
  C       -0.1728060    -0.1763470     0.3083280
  C        2.3285040    -0.4694590     0.2834420
  C        0.9860590    -0.2881690    -0.3549330
  C       -2.1959480     1.2879740     0.1259890
  C        3.2526380     0.7192940     0.0124360
  H       -1.3570540     0.0791090    -1.4412390
  H       -0.1904860    -0.2488370     1.3972520
  H        2.7976780    -1.3847260    -0.0993500
  H        2.2027970    -0.6058810     1.3632980
  H        0.9746330    -0.2154440    -1.4448770
  H       -2.3344480     1.2448060     1.2091660
  H       -1.6005480     2.1700530    -0.1223020
  H       -3.1779120     1.3727550    -0.3453210
  H        2.8243150     1.6377400     0.4218030
  H        3.3966440     0.8648080    -1.0620310
  H        4.2355510     0.5661250     0.4665360
  H       -1.9004724    -1.8565064    -0.2683391
units angstrom
no_reorient  #important for SAPT in psi4, default
symmetry c1  #important for SAPT in psi4, default
}

set PROPERTIES_ORIGIN ["COM"]
properties('MP2/aug-cc-pvtz', properties = ['dipole'])
--------------------------------------------------------------------------

    Molecular point group: c1
  Charge       = 0
  Multiplicity = 1
  Basis Set: AUG-CC-PVTZ
    Blend: AUG-CC-PVTZ
  Basis Set: (AUG-CC-PVTZ AUX)
    Blend: AUG-CC-PVTZ-JKFIT

    Orbital Energies [Eh]
    ---------------------

    Doubly Occupied:

       1A    -20.555577     2A    -11.279627     3A    -11.237360
       4A    -11.231263     5A    -11.226049     6A    -11.220114
       7A    -11.210926     8A     -1.355461     9A     -1.097035
      10A     -1.033086    11A     -0.969143    12A     -0.875545
      13A     -0.808494    14A     -0.763326    15A     -0.690716
      16A     -0.656640    17A     -0.611312    18A     -0.595768
      19A     -0.579108    20A     -0.539558    21A     -0.535798
      22A     -0.525146    23A     -0.521963    24A     -0.507770
      25A     -0.487863    26A     -0.467398    27A     -0.448391
      28A     -0.356222

  @DF-RHF Final Energy:  -309.14822140476548

   => Energetics <=

    Nuclear Repulsion Energy =            299.2641682951693838
    One-Electron Energy =               -1012.0514626657858344
    Two-Electron Energy =                 403.6390729658509713
    Total Energy =                       -309.1482214047654793
  Basis Set: (AUG-CC-PVTZ AUX)
    Blend: AUG-CC-PVTZ-RI
    Molecular point group: c1

    Geometry (in Angstrom), charge = 0, multiplicity = 1:

       Center              X                  Y                   Z               Mass
    ------------   -----------------  -----------------  -----------------  -----------------
         O           -2.395979943011    -1.048446892073    -0.022335600058    15.994914619570
         C           -1.472042143011    -0.003302192073    -0.363707600058    12.000000000000
         C           -0.177105943011    -0.172496892073     0.310317399942    12.000000000000
         C            2.324204056989    -0.465608892073     0.285431399942    12.000000000000
         C            0.981759056989    -0.284318892073    -0.352943600058    12.000000000000
         C           -2.200247943011     1.291824107927     0.127978399942    12.000000000000
         C            3.248338056989     0.723144107927     0.014425399942    12.000000000000
         H           -1.361353943011     0.082959107927    -1.439249600058     1.007825032230
         H           -0.194785943011    -0.244986892073     1.399241399942     1.007825032230
         H            2.793378056989    -1.380875892073    -0.097360600058     1.007825032230
         H            2.198497056989    -0.602030892073     1.365287399942     1.007825032230
         H            0.970333056989    -0.211593892073    -1.442887600058     1.007825032230
         H           -2.338747943011     1.248656107927     1.211155399942     1.007825032230
         H           -1.604847943011     2.173903107927    -0.120312600058     1.007825032230
         H           -3.182211943011     1.376605107927    -0.343331600058     1.007825032230
         H            2.820015056989     1.641590107927     0.423792399942     1.007825032230
         H            3.392344056989     0.868658107927    -1.060041600058     1.007825032230
         H            4.231251056989     0.569975107927     0.468525399942     1.007825032230
         H           -1.904772343011    -1.852656292073    -0.266349700058     1.007825032230

  Basis Set: AUG-CC-PVTZ
    Blend: AUG-CC-PVTZ
  Basis Set: (AUG-CC-PVTZ AUX)
    Blend: AUG-CC-PVTZ-JKFIT
	 Reference Energy          =    -309.1482214047654793 [Eh]
	 Singles Energy            =      -0.0000000000000000 [Eh]
	 Same-Spin Energy          =      -0.3169904344052218 [Eh]
	 Opposite-Spin Energy      =      -1.1030027119724164 [Eh]
	 Correlation Energy        =      -1.4199931463776383 [Eh]
	 Total Energy              =    -310.5682145511431145 [Eh]

	 ================> DF-SCS-MP2 Energies <==================
	-----------------------------------------------------------
	 SCS Same-Spin Scale       =       0.3333333333333333 [-]
	 SCS Opposite-Spin Scale   =       1.2000000000000000 [-]
	 SCS Same-Spin Energy      =      -0.1056634781350739 [Eh]
	 SCS Opposite-Spin Energy  =      -1.3236032543668996 [Eh]
	 SCS Correlation Energy    =      -1.4292667325019737 [Eh]
	 SCS Total Energy          =    -310.5774881372674372 [Eh]
	-----------------------------------------------------------

  Dipole Moment: [D]
     X:     2.0132      Y:    -0.0382      Z:    -0.5786     Total:     2.0950

*** Psi4 exiting successfully. Buy a developer a beer!
