                               Psi4 1.3.2 release

  ==> Input File <==

--------------------------------------------------------------------------
#psi4
#
memory 32 gb

molecule  {
0 1
  O       -2.3916800    -1.0522970    -0.0243250
  C       -1.5013820     0.0265210    -0.3499700
  C       -0.1728060    -0.1763470     0.3083280
  C        2.3285040    -0.4694590     0.2834420
  C        0.9803922    -0.2893436    -0.3432161
  C       -2.1959480     1.2879740     0.1259890
  C        3.2526380     0.7192940     0.0124360
  H       -1.3570540     0.0791090    -1.4412390
  H       -0.1904860    -0.2488370     1.3972520
  H        2.7976780    -1.3847260    -0.0993500
  H        2.1933272    -0.6050680     1.3622560
  H        0.9746330    -0.2154440    -1.4448770
  H       -2.3344480     1.2448060     1.2091660
  H       -1.6005480     2.1700530    -0.1223020
  H       -3.1779120     1.3727550    -0.3453210
  H        2.8243150     1.6377400     0.4218030
  H        3.3966440     0.8648080    -1.0620310
  H        4.2355510     0.5661250     0.4665360
  H       -1.9269720    -1.8751040    -0.2580250
units angstrom
no_reorient  #important for SAPT in psi4, default
symmetry c1  #important for SAPT in psi4, default
}

set PROPERTIES_ORIGIN ["COM"]
properties('MP2/aug-cc-pvtz', properties = ['dipole'])
--------------------------------------------------------------------------

    Molecular point group: c1
  Charge       = 0
  Multiplicity = 1
  Basis Set: AUG-CC-PVTZ
    Blend: AUG-CC-PVTZ
  Basis Set: (AUG-CC-PVTZ AUX)
    Blend: AUG-CC-PVTZ-JKFIT

    Orbital Energies [Eh]
    ---------------------

    Doubly Occupied:

       1A    -20.553767     2A    -11.281296     3A    -11.235471
       4A    -11.230676     5A    -11.224715     6A    -11.219864
       7A    -11.210800     8A     -1.352981     9A     -1.095814
      10A     -1.035130    11A     -0.975832    12A     -0.873451
      13A     -0.808088    14A     -0.758743    15A     -0.693121
      16A     -0.654290    17A     -0.611573    18A     -0.594115
      19A     -0.578551    20A     -0.538165    21A     -0.536360
      22A     -0.527961    23A     -0.521749    24A     -0.510257
      25A     -0.486533    26A     -0.470916    27A     -0.440756
      28A     -0.359212

  @DF-RHF Final Energy:  -309.15198148752495

   => Energetics <=

    Nuclear Repulsion Energy =            299.2802903292824794
    One-Electron Energy =               -1012.1041655875055767
    Two-Electron Energy =                 403.6718937706981478
    Total Energy =                       -309.1519814875249494
  Basis Set: (AUG-CC-PVTZ AUX)
    Blend: AUG-CC-PVTZ-RI
    Molecular point group: c1

    Geometry (in Angstrom), charge = 0, multiplicity = 1:

       Center              X                  Y                   Z               Mass
    ------------   -----------------  -----------------  -----------------  -----------------
         O           -2.390905149572    -1.052164196897    -0.025719309361    15.994914619570
         C           -1.500607149572     0.026653803103    -0.351364309361    12.000000000000
         C           -0.172031149572    -0.176214196897     0.306933690639    12.000000000000
         C            2.329278850428    -0.469326196897     0.282047690639    12.000000000000
         C            0.981167050428    -0.289210796897    -0.344610409361    12.000000000000
         C           -2.195173149572     1.288106803103     0.124594690639    12.000000000000
         C            3.253412850428     0.719426803103     0.011041690639    12.000000000000
         H           -1.356279149572     0.079241803103    -1.442633309361     1.007825032230
         H           -0.189711149572    -0.248704196897     1.395857690639     1.007825032230
         H            2.798452850428    -1.384593196897    -0.100744309361     1.007825032230
         H            2.194102050428    -0.604935196897     1.360861690639     1.007825032230
         H            0.975407850428    -0.215311196897    -1.446271309361     1.007825032230
         H           -2.333673149572     1.244938803103     1.207771690639     1.007825032230
         H           -1.599773149572     2.170185803103    -0.123696309361     1.007825032230
         H           -3.177137149572     1.372887803103    -0.346715309361     1.007825032230
         H            2.825089850428     1.637872803103     0.420408690639     1.007825032230
         H            3.397418850428     0.864940803103    -1.063425309361     1.007825032230
         H            4.236325850428     0.566257803103     0.465141690639     1.007825032230
         H           -1.926197149572    -1.874971196897    -0.259419309361     1.007825032230

  Basis Set: AUG-CC-PVTZ
    Blend: AUG-CC-PVTZ
  Basis Set: (AUG-CC-PVTZ AUX)
    Blend: AUG-CC-PVTZ-JKFIT
	 Reference Energy          =    -309.1519814875249494 [Eh]
	 Singles Energy            =      -0.0000000000000000 [Eh]
	 Same-Spin Energy          =      -0.3166380019990144 [Eh]
	 Opposite-Spin Energy      =      -1.1022278968362964 [Eh]
	 Correlation Energy        =      -1.4188658988353109 [Eh]
	 Total Energy              =    -310.5708473863602421 [Eh]

	 ================> DF-SCS-MP2 Energies <==================
	-----------------------------------------------------------
	 SCS Same-Spin Scale       =       0.3333333333333333 [-]
	 SCS Opposite-Spin Scale   =       1.2000000000000000 [-]
	 SCS Same-Spin Energy      =      -0.1055460006663381 [Eh]
	 SCS Opposite-Spin Energy  =      -1.3226734762035557 [Eh]
	 SCS Correlation Energy    =      -1.4282194768698939 [Eh]
	 SCS Total Energy          =    -310.5802009643948622 [Eh]
	-----------------------------------------------------------

  Dipole Moment: [D]
     X:     1.9127      Y:     0.0103      Z:    -0.5491     Total:     1.9900

*** Psi4 exiting successfully. Buy a developer a beer!
