                               Psi4 1.4a3.dev225

  ==> Input File <==

--------------------------------------------------------------------------
#psi4
#
memory 32 gb

molecule  {
0 1
  O        2.4733480    -1.0180220    -0.0592030
  C        1.5612870     0.0272190     0.3186860
  C        0.2241640    -0.1896060    -0.3216700
  C       -2.2699720    -0.5538550    -0.2568310
  C       -0.9363398    -0.3600741     0.3530134
  C        2.2155680     1.3228410    -0.1266610
  C       -3.2245640     0.5955150     0.0801580
  H        1.4362950     0.0398890     1.4137890
  H        0.2208170    -0.2229080    -1.4128920
  H       -2.7032570    -1.4976940     0.0989920
  H       -2.1635450    -0.6441890    -1.3439560
  H       -0.8861850    -0.3229140     1.4529890
  H        2.3348110     1.3198720    -1.2134080
  H        1.6025990     2.1805020     0.1626330
  H        3.2041590     1.4168830     0.3297970
  H       -2.8327200     1.5423190    -0.3012060
  H       -3.3500700     0.6943310     1.1626160
  H       -4.2121190     0.4296020    -0.3601990
  H        2.0333780    -1.8594800     0.1548220
units angstrom
no_reorient  #important for SAPT in psi4, default
symmetry c1  #important for SAPT in psi4, default
}

set PROPERTIES_ORIGIN ["COM"]
properties('MP2/aug-cc-pvtz', properties = ['dipole'])
--------------------------------------------------------------------------

    Molecular point group: c1
  Charge       = 0
  Multiplicity = 1
  Basis Set: AUG-CC-PVTZ
    Blend: AUG-CC-PVTZ
  Basis Set: (AUG-CC-PVTZ AUX)
    Blend: AUG-CC-PVTZ-JKFIT

    Orbital Energies [Eh]
    ---------------------

    Doubly Occupied:

       1A    -20.553758     2A    -11.282174     3A    -11.238387
       4A    -11.230481     5A    -11.228279     6A    -11.220400
       7A    -11.211228     8A     -1.352338     9A     -1.094732
      10A     -1.035305    11A     -0.973082    12A     -0.875272
      13A     -0.807287    14A     -0.759350    15A     -0.692549
      16A     -0.653356    17A     -0.612368    18A     -0.594386
      19A     -0.577946    20A     -0.537357    21A     -0.536207
      22A     -0.528004    23A     -0.521861    24A     -0.510939
      25A     -0.486431    26A     -0.473659    27A     -0.441598
      28A     -0.353246

  @DF-RHF Final Energy:  -309.15041280034040

   => Energetics <=

    Nuclear Repulsion Energy =            298.8134654814553528
    One-Electron Energy =               -1011.1637991830937153
    Two-Electron Energy =                 403.1999209012980145
    Total Energy =                       -309.1504128003404048
  Basis Set: (AUG-CC-PVTZ AUX)
    Blend: AUG-CC-PVTZ-RI
    Molecular point group: c1

    Geometry (in Angstrom), charge = 0, multiplicity = 1:

       Center              X                  Y                   Z               Mass
    ------------   -----------------  -----------------  -----------------  -----------------
         O            2.422940020963    -0.987265199604    -0.056790157910    15.994914619570
         C            1.510879020963     0.057975800396     0.321098842090    12.000000000000
         C            0.173756020963    -0.158849199604    -0.319257157910    12.000000000000
         C           -2.320379979037    -0.523098199604    -0.254418157910    12.000000000000
         C           -0.986747779037    -0.329317299604     0.355426242090    12.000000000000
         C            2.165160020963     1.353597800396    -0.124248157910    12.000000000000
         C           -3.274971979037     0.626271800396     0.082570842090    12.000000000000
         H            1.385887020963     0.070645800396     1.416201842090     1.007825032230
         H            0.170409020963    -0.192151199604    -1.410479157910     1.007825032230
         H           -2.753664979037    -1.466937199604     0.101404842090     1.007825032230
         H           -2.213952979037    -0.613432199604    -1.341543157910     1.007825032230
         H           -0.936592979037    -0.292157199604     1.455401842090     1.007825032230
         H            2.284403020963     1.350628800396    -1.210995157910     1.007825032230
         H            1.552191020963     2.211258800396     0.165045842090     1.007825032230
         H            3.153751020963     1.447639800396     0.332209842090     1.007825032230
         H           -2.883127979037     1.573075800396    -0.298793157910     1.007825032230
         H           -3.400477979037     0.725087800396     1.165028842090     1.007825032230
         H           -4.262526979037     0.460358800396    -0.357786157910     1.007825032230
         H            1.982970020963    -1.828723199604     0.157234842090     1.007825032230

  Basis Set: AUG-CC-PVTZ
    Blend: AUG-CC-PVTZ
  Basis Set: (AUG-CC-PVTZ AUX)
    Blend: AUG-CC-PVTZ-JKFIT
	 Reference Energy          =    -309.1504128003404048 [Eh]
	 Singles Energy            =      -0.0000000000000000 [Eh]
	 Same-Spin Energy          =      -0.3169826207536298 [Eh]
	 Opposite-Spin Energy      =      -1.1029993191100340 [Eh]
	 Correlation Energy        =      -1.4199819398636637 [Eh]
	 Total Energy              =    -310.5703947402040512 [Eh]

	 ================> DF-SCS-MP2 Energies <==================
	-----------------------------------------------------------
	 SCS Same-Spin Scale       =       0.3333333333333333 [-]
	 SCS Opposite-Spin Scale   =       1.2000000000000000 [-]
	 SCS Same-Spin Energy      =      -0.1056608735845433 [Eh]
	 SCS Opposite-Spin Energy  =      -1.3235991829320408 [Eh]
	 SCS Correlation Energy    =      -1.4292600565165841 [Eh]
	 SCS Total Energy          =    -310.5796728568569733 [Eh]
	-----------------------------------------------------------

  Dipole Moment: [D]
     X:    -1.9273      Y:    -0.0585      Z:     0.5846     Total:     2.0148

*** Psi4 exiting successfully. Buy a developer a beer!
