                               Psi4 1.4a3.dev225

  ==> Input File <==

--------------------------------------------------------------------------
#psi4
#
memory 32 gb

molecule  {
0 1
  O        2.4733480    -1.0180220    -0.0592030
  C        1.5612870     0.0272190     0.3186860
  C        0.2241640    -0.1896060    -0.3216700
  C       -2.2699720    -0.5538550    -0.2568310
  C       -0.9608877    -0.3637097     0.3867116
  C        2.2155680     1.3228410    -0.1266610
  C       -3.2245640     0.5955150     0.0801580
  H        1.4362950     0.0398890     1.4137890
  H        0.2208170    -0.2229080    -1.4128920
  H       -2.7032570    -1.4976940     0.0989920
  H       -2.1635450    -0.6441890    -1.3439560
  H       -0.8861850    -0.3229140     1.4529890
  H        2.3348110     1.3198720    -1.2134080
  H        1.6025990     2.1805020     0.1626330
  H        3.2041590     1.4168830     0.3297970
  H       -2.8327200     1.5423190    -0.3012060
  H       -3.3500700     0.6943310     1.1626160
  H       -4.2121190     0.4296020    -0.3601990
  H        2.0333780    -1.8594800     0.1548220
units angstrom
no_reorient  #important for SAPT in psi4, default
symmetry c1  #important for SAPT in psi4, default
}

set PROPERTIES_ORIGIN ["COM"]
properties('MP2/aug-cc-pvtz', properties = ['dipole'])
--------------------------------------------------------------------------

    Molecular point group: c1
  Charge       = 0
  Multiplicity = 1
  Basis Set: AUG-CC-PVTZ
    Blend: AUG-CC-PVTZ
  Basis Set: (AUG-CC-PVTZ AUX)
    Blend: AUG-CC-PVTZ-JKFIT

    Orbital Energies [Eh]
    ---------------------

    Doubly Occupied:

       1A    -20.553408     2A    -11.281905     3A    -11.240965
       4A    -11.233383     5A    -11.230261     6A    -11.220204
       7A    -11.211022     8A     -1.352006     9A     -1.092493
      10A     -1.035070    11A     -0.968989    12A     -0.876069
      13A     -0.805489    14A     -0.764781    15A     -0.691920
      16A     -0.652932    17A     -0.611109    18A     -0.595665
      19A     -0.577376    20A     -0.539448    21A     -0.535378
      22A     -0.527776    23A     -0.521970    24A     -0.511713
      25A     -0.491093    26A     -0.472517    27A     -0.441541
      28A     -0.344328

  @DF-RHF Final Energy:  -309.14554690342027

   => Energetics <=

    Nuclear Repulsion Energy =            298.4308221821769394
    One-Electron Energy =               -1010.3911153021665541
    Two-Electron Energy =                 402.8147462165693469
    Total Energy =                       -309.1455469034202679
  Basis Set: (AUG-CC-PVTZ AUX)
    Blend: AUG-CC-PVTZ-RI
    Molecular point group: c1

    Geometry (in Angstrom), charge = 0, multiplicity = 1:

       Center              X                  Y                   Z               Mass
    ------------   -----------------  -----------------  -----------------  -----------------
         O            2.425883155019    -0.986829314736    -0.060830353610    15.994914619570
         C            1.513822155019     0.058411685264     0.317058646390    12.000000000000
         C            0.176699155019    -0.158413314736    -0.323297353610    12.000000000000
         C           -2.317436844981    -0.522662314736    -0.258458353610    12.000000000000
         C           -1.008352544981    -0.332517014736     0.385084246390    12.000000000000
         C            2.168103155019     1.354033685264    -0.128288353610    12.000000000000
         C           -3.272028844981     0.626707685264     0.078530646390    12.000000000000
         H            1.388830155019     0.071081685264     1.412161646390     1.007825032230
         H            0.173352155019    -0.191715314736    -1.414519353610     1.007825032230
         H           -2.750721844981    -1.466501314736     0.097364646390     1.007825032230
         H           -2.211009844981    -0.612996314736    -1.345583353610     1.007825032230
         H           -0.933649844981    -0.291721314736     1.451361646390     1.007825032230
         H            2.287346155019     1.351064685264    -1.215035353610     1.007825032230
         H            1.555134155019     2.211694685264     0.161005646390     1.007825032230
         H            3.156694155019     1.448075685264     0.328169646390     1.007825032230
         H           -2.880184844981     1.573511685264    -0.302833353610     1.007825032230
         H           -3.397534844981     0.725523685264     1.160988646390     1.007825032230
         H           -4.259583844981     0.460794685264    -0.361826353610     1.007825032230
         H            1.985913155019    -1.828287314736     0.153194646390     1.007825032230

  Basis Set: AUG-CC-PVTZ
    Blend: AUG-CC-PVTZ
  Basis Set: (AUG-CC-PVTZ AUX)
    Blend: AUG-CC-PVTZ-JKFIT
	 Reference Energy          =    -309.1455469034202679 [Eh]
	 Singles Energy            =      -0.0000000000000000 [Eh]
	 Same-Spin Energy          =      -0.3174928410626974 [Eh]
	 Opposite-Spin Energy      =      -1.1040985582540397 [Eh]
	 Correlation Energy        =      -1.4215913993167371 [Eh]
	 Total Energy              =    -310.5671383027370211 [Eh]

	 ================> DF-SCS-MP2 Energies <==================
	-----------------------------------------------------------
	 SCS Same-Spin Scale       =       0.3333333333333333 [-]
	 SCS Opposite-Spin Scale   =       1.2000000000000000 [-]
	 SCS Same-Spin Energy      =      -0.1058309470208991 [Eh]
	 SCS Opposite-Spin Energy  =      -1.3249182699048476 [Eh]
	 SCS Correlation Energy    =      -1.4307492169257467 [Eh]
	 SCS Total Energy          =    -310.5762961203460009 [Eh]
	-----------------------------------------------------------

  Dipole Moment: [D]
     X:    -1.9411      Y:    -0.0609      Z:     0.5987     Total:     2.0323

*** Psi4 exiting successfully. Buy a developer a beer!
