                               Psi4 1.4a3.dev225

  ==> Input File <==

--------------------------------------------------------------------------
#psi4
#
memory 32 gb

molecule  {
0 1
  O        2.4733480    -1.0180220    -0.0592030
  C        1.5612870     0.0272190     0.3186860
  C        0.2241640    -0.1896060    -0.3216700
  C       -2.2699720    -0.5538550    -0.2568310
  C       -0.9183080    -0.3574540     0.3612590
  C        2.2155680     1.3228410    -0.1266610
  C       -3.2245640     0.5955150     0.0801580
  H        1.4362950     0.0398890     1.4137890
  H        0.2208170    -0.2229080    -1.4128920
  H       -2.7032570    -1.4976940     0.0989920
  H       -2.1635450    -0.6441890    -1.3439560
  H       -0.8847152    -0.3213336     1.5029424
  H        2.3348110     1.3198720    -1.2134080
  H        1.6025990     2.1805020     0.1626330
  H        3.2041590     1.4168830     0.3297970
  H       -2.8327200     1.5423190    -0.3012060
  H       -3.3500700     0.6943310     1.1626160
  H       -4.2121190     0.4296020    -0.3601990
  H        2.0333780    -1.8594800     0.1548220
units angstrom
no_reorient  #important for SAPT in psi4, default
symmetry c1  #important for SAPT in psi4, default
}

set PROPERTIES_ORIGIN ["COM"]
properties('MP2/aug-cc-pvtz', properties = ['dipole'])
--------------------------------------------------------------------------

    Molecular point group: c1
  Charge       = 0
  Multiplicity = 1
  Basis Set: AUG-CC-PVTZ
    Blend: AUG-CC-PVTZ
  Basis Set: (AUG-CC-PVTZ AUX)
    Blend: AUG-CC-PVTZ-JKFIT

    Orbital Energies [Eh]
    ---------------------

    Doubly Occupied:

       1A    -20.553656     2A    -11.281706     3A    -11.242658
       4A    -11.231829     5A    -11.227439     6A    -11.220082
       7A    -11.211137     8A     -1.352269     9A     -1.093048
      10A     -1.034600    11A     -0.973916    12A     -0.873027
      13A     -0.807059    14A     -0.755167    15A     -0.692462
      16A     -0.651320    17A     -0.610594    18A     -0.593743
      19A     -0.577972    20A     -0.536572    21A     -0.535563
      22A     -0.527765    23A     -0.521505    24A     -0.510161
      25A     -0.486229    26A     -0.470607    27A     -0.440833
      28A     -0.356961

  @DF-RHF Final Energy:  -309.14936027345755

   => Energetics <=

    Nuclear Repulsion Energy =            298.6104435029210435
    One-Electron Energy =               -1010.7798529081147763
    Two-Electron Energy =                 403.0200491317361866
    Total Energy =                       -309.1493602734575461
  Basis Set: (AUG-CC-PVTZ AUX)
    Blend: AUG-CC-PVTZ-RI
    Molecular point group: c1

    Geometry (in Angstrom), charge = 0, multiplicity = 1:

       Center              X                  Y                   Z               Mass
    ------------   -----------------  -----------------  -----------------  -----------------
         O            2.420763325184    -0.987595246140    -0.058281748024    15.994914619570
         C            1.508702325184     0.057645753860     0.319607251976    12.000000000000
         C            0.171579325184    -0.159179246140    -0.320748748024    12.000000000000
         C           -2.322556674816    -0.523428246140    -0.255909748024    12.000000000000
         C           -0.970892674816    -0.327027246140     0.362180251976    12.000000000000
         C            2.162983325184     1.353267753860    -0.125739748024    12.000000000000
         C           -3.277148674816     0.625941753860     0.081079251976    12.000000000000
         H            1.383710325184     0.070315753860     1.414710251976     1.007825032230
         H            0.168232325184    -0.192481246140    -1.411970748024     1.007825032230
         H           -2.755841674816    -1.467267246140     0.099913251976     1.007825032230
         H           -2.216129674816    -0.613762246140    -1.343034748024     1.007825032230
         H           -0.937299874816    -0.290906846140     1.503863651976     1.007825032230
         H            2.282226325184     1.350298753860    -1.212486748024     1.007825032230
         H            1.550014325184     2.210928753860     0.163554251976     1.007825032230
         H            3.151574325184     1.447309753860     0.330718251976     1.007825032230
         H           -2.885304674816     1.572745753860    -0.300284748024     1.007825032230
         H           -3.402654674816     0.724757753860     1.163537251976     1.007825032230
         H           -4.264703674816     0.460028753860    -0.359277748024     1.007825032230
         H            1.980793325184    -1.829053246140     0.155743251976     1.007825032230

  Basis Set: AUG-CC-PVTZ
    Blend: AUG-CC-PVTZ
  Basis Set: (AUG-CC-PVTZ AUX)
    Blend: AUG-CC-PVTZ-JKFIT
	 Reference Energy          =    -309.1493602734575461 [Eh]
	 Singles Energy            =      -0.0000000000000000 [Eh]
	 Same-Spin Energy          =      -0.3167641053067496 [Eh]
	 Opposite-Spin Energy      =      -1.1029092573782440 [Eh]
	 Correlation Energy        =      -1.4196733626849936 [Eh]
	 Total Energy              =    -310.5690336361425352 [Eh]

	 ================> DF-SCS-MP2 Energies <==================
	-----------------------------------------------------------
	 SCS Same-Spin Scale       =       0.3333333333333333 [-]
	 SCS Opposite-Spin Scale   =       1.2000000000000000 [-]
	 SCS Same-Spin Energy      =      -0.1055880351022499 [Eh]
	 SCS Opposite-Spin Energy  =      -1.3234911088538928 [Eh]
	 SCS Correlation Energy    =      -1.4290791439561426 [Eh]
	 SCS Total Energy          =    -310.5784394174136764 [Eh]
	-----------------------------------------------------------

  Dipole Moment: [D]
     X:    -1.9139      Y:    -0.0574      Z:     0.5611     Total:     1.9953

*** Psi4 exiting successfully. Buy a developer a beer!
