                               Psi4 1.4a3.dev225

  ==> Input File <==

--------------------------------------------------------------------------
#psi4
#
memory 32 gb

molecule  {
0 1
  O        2.4733480    -1.0180220    -0.0592030
  C        1.5612870     0.0272190     0.3186860
  C        0.2063157    -0.1925002    -0.3302176
  C       -2.2699720    -0.5538550    -0.2568310
  C       -0.9183080    -0.3574540     0.3612590
  C        2.2155680     1.3228410    -0.1266610
  C       -3.2245640     0.5955150     0.0801580
  H        1.4362950     0.0398890     1.4137890
  H        0.2208170    -0.2229080    -1.4128920
  H       -2.7032570    -1.4976940     0.0989920
  H       -2.1635450    -0.6441890    -1.3439560
  H       -0.8861850    -0.3229140     1.4529890
  H        2.3348110     1.3198720    -1.2134080
  H        1.6025990     2.1805020     0.1626330
  H        3.2041590     1.4168830     0.3297970
  H       -2.8327200     1.5423190    -0.3012060
  H       -3.3500700     0.6943310     1.1626160
  H       -4.2121190     0.4296020    -0.3601990
  H        2.0333780    -1.8594800     0.1548220
units angstrom
no_reorient  #important for SAPT in psi4, default
symmetry c1  #important for SAPT in psi4, default
}

set PROPERTIES_ORIGIN ["COM"]
properties('MP2/aug-cc-pvtz', properties = ['dipole'])
--------------------------------------------------------------------------

    Molecular point group: c1
  Charge       = 0
  Multiplicity = 1
  Basis Set: AUG-CC-PVTZ
    Blend: AUG-CC-PVTZ
  Basis Set: (AUG-CC-PVTZ AUX)
    Blend: AUG-CC-PVTZ-JKFIT

    Orbital Energies [Eh]
    ---------------------

    Doubly Occupied:

       1A    -20.553671     2A    -11.282572     3A    -11.234908
       4A    -11.230350     5A    -11.225551     6A    -11.219662
       7A    -11.210983     8A     -1.351806     9A     -1.094595
      10A     -1.032516    11A     -0.975381    12A     -0.871405
      13A     -0.806739    14A     -0.761458    15A     -0.691646
      16A     -0.653231    17A     -0.610426    18A     -0.594839
      19A     -0.577086    20A     -0.541266    21A     -0.535667
      22A     -0.527529    23A     -0.521335    24A     -0.510554
      25A     -0.487897    26A     -0.469778    27A     -0.437829
      28A     -0.359227

  @DF-RHF Final Energy:  -309.15196187426483

   => Energetics <=

    Nuclear Repulsion Energy =            298.7528736385935986
    One-Electron Energy =               -1011.0698600271824716
    Two-Electron Energy =                 403.1650245143241023
    Total Energy =                       -309.1519618742648277
  Basis Set: (AUG-CC-PVTZ AUX)
    Blend: AUG-CC-PVTZ-RI
    Molecular point group: c1

    Geometry (in Angstrom), charge = 0, multiplicity = 1:

       Center              X                  Y                   Z               Mass
    ------------   -----------------  -----------------  -----------------  -----------------
         O            2.422918020503    -0.987232336792    -0.056753950068    15.994914619570
         C            1.510857020503     0.058008663208     0.321135049932    12.000000000000
         C            0.155885720503    -0.161710536792    -0.327768550068    12.000000000000
         C           -2.320401979497    -0.523065336792    -0.254381950068    12.000000000000
         C           -0.968737979497    -0.326664336792     0.363708049932    12.000000000000
         C            2.165138020503     1.353630663208    -0.124211950068    12.000000000000
         C           -3.274993979497     0.626304663208     0.082607049932    12.000000000000
         H            1.385865020503     0.070678663208     1.416238049932     1.007825032230
         H            0.170387020503    -0.192118336792    -1.410442950068     1.007825032230
         H           -2.753686979497    -1.466904336792     0.101441049932     1.007825032230
         H           -2.213974979497    -0.613399336792    -1.341506950068     1.007825032230
         H           -0.936614979497    -0.292124336792     1.455438049932     1.007825032230
         H            2.284381020503     1.350661663208    -1.210958950068     1.007825032230
         H            1.552169020503     2.211291663208     0.165082049932     1.007825032230
         H            3.153729020503     1.447672663208     0.332246049932     1.007825032230
         H           -2.883149979497     1.573108663208    -0.298756950068     1.007825032230
         H           -3.400499979497     0.725120663208     1.165065049932     1.007825032230
         H           -4.262548979497     0.460391663208    -0.357749950068     1.007825032230
         H            1.982948020503    -1.828690336792     0.157271049932     1.007825032230

  Basis Set: AUG-CC-PVTZ
    Blend: AUG-CC-PVTZ
  Basis Set: (AUG-CC-PVTZ AUX)
    Blend: AUG-CC-PVTZ-JKFIT
	 Reference Energy          =    -309.1519618742648277 [Eh]
	 Singles Energy            =      -0.0000000000000000 [Eh]
	 Same-Spin Energy          =      -0.3163806871984336 [Eh]
	 Opposite-Spin Energy      =      -1.1020834393742147 [Eh]
	 Correlation Energy        =      -1.4184641265726483 [Eh]
	 Total Energy              =    -310.5704260008374717 [Eh]

	 ================> DF-SCS-MP2 Energies <==================
	-----------------------------------------------------------
	 SCS Same-Spin Scale       =       0.3333333333333333 [-]
	 SCS Opposite-Spin Scale   =       1.2000000000000000 [-]
	 SCS Same-Spin Energy      =      -0.1054602290661445 [Eh]
	 SCS Opposite-Spin Energy  =      -1.3225001272490575 [Eh]
	 SCS Correlation Energy    =      -1.4279603563152021 [Eh]
	 SCS Total Energy          =    -310.5799222305800527 [Eh]
	-----------------------------------------------------------

  Dipole Moment: [D]
     X:    -1.8954      Y:    -0.0624      Z:     0.5881     Total:     1.9855

*** Psi4 exiting successfully. Buy a developer a beer!
