                               Psi4 1.3.2 release

  ==> Input File <==

--------------------------------------------------------------------------
#psi4
#
memory 32 gb

molecule  {
0 1
  O       -2.3916800    -1.0522970    -0.0243250
  C       -1.5013820     0.0265210    -0.3499700
  C       -0.1728060    -0.1763470     0.3083280
  C        2.3285040    -0.4694590     0.2834420
  C        0.9860590    -0.2881690    -0.3549330
  C       -2.1959480     1.2879740     0.1259890
  C        3.2526380     0.7192940     0.0124360
  H       -1.3570540     0.0791090    -1.4412390
  H       -0.1921058    -0.2554785     1.4970181
  H        2.7976780    -1.3847260    -0.0993500
  H        2.2027970    -0.6058810     1.3632980
  H        0.9746330    -0.2154440    -1.4448770
  H       -2.3344480     1.2448060     1.2091660
  H       -1.6005480     2.1700530    -0.1223020
  H       -3.1779120     1.3727550    -0.3453210
  H        2.8243150     1.6377400     0.4218030
  H        3.3966440     0.8648080    -1.0620310
  H        4.2355510     0.5661250     0.4665360
  H       -1.9269720    -1.8751040    -0.2580250
units angstrom
no_reorient  #important for SAPT in psi4, default
symmetry c1  #important for SAPT in psi4, default
}

set PROPERTIES_ORIGIN ["COM"]
properties('MP2/aug-cc-pvtz', properties = ['dipole'])
--------------------------------------------------------------------------

    Molecular point group: c1
  Charge       = 0
  Multiplicity = 1
  Basis Set: AUG-CC-PVTZ
    Blend: AUG-CC-PVTZ
  Basis Set: (AUG-CC-PVTZ AUX)
    Blend: AUG-CC-PVTZ-JKFIT

    Orbital Energies [Eh]
    ---------------------

    Doubly Occupied:

       1A    -20.553870     2A    -11.282608     3A    -11.238299
       4A    -11.236540     5A    -11.230658     6A    -11.219643
       7A    -11.210834     8A     -1.353097     9A     -1.093610
      10A     -1.034724    11A     -0.974083    12A     -0.872738
      13A     -0.807792    14A     -0.750653    15A     -0.692203
      16A     -0.654661    17A     -0.610545    18A     -0.589056
      19A     -0.578703    20A     -0.536499    21A     -0.532330
      22A     -0.527839    23A     -0.519352    24A     -0.508914
      25A     -0.487072    26A     -0.471806    27A     -0.440185
      28A     -0.357587

  @DF-RHF Final Energy:  -309.14482982674519

   => Energetics <=

    Nuclear Repulsion Energy =            298.6967258409812871
    One-Electron Energy =               -1010.9513152680484609
    Two-Electron Energy =                 403.1097596003220360
    Total Energy =                       -309.1448298267451946
  Basis Set: (AUG-CC-PVTZ AUX)
    Blend: AUG-CC-PVTZ-RI
    Molecular point group: c1

    Geometry (in Angstrom), charge = 0, multiplicity = 1:

       Center              X                  Y                   Z               Mass
    ------------   -----------------  -----------------  -----------------  -----------------
         O           -2.391663606214    -1.052229962171    -0.025329596750    15.994914619570
         C           -1.501365606214     0.026588037829    -0.350974596750    12.000000000000
         C           -0.172789606214    -0.176279962171     0.307323403250    12.000000000000
         C            2.328520393786    -0.469391962171     0.282437403250    12.000000000000
         C            0.986075393786    -0.288101962171    -0.355937596750    12.000000000000
         C           -2.195931606214     1.288041037829     0.124984403250    12.000000000000
         C            3.252654393786     0.719361037829     0.011431403250    12.000000000000
         H           -1.357037606214     0.079176037829    -1.442243596750     1.007825032230
         H           -0.192089406214    -0.255411462171     1.496013503250     1.007825032230
         H            2.797694393786    -1.384658962171    -0.100354596750     1.007825032230
         H            2.202813393786    -0.605813962171     1.362293403250     1.007825032230
         H            0.974649393786    -0.215376962171    -1.445881596750     1.007825032230
         H           -2.334431606214     1.244873037829     1.208161403250     1.007825032230
         H           -1.600531606214     2.170120037829    -0.123306596750     1.007825032230
         H           -3.177895606214     1.372822037829    -0.346325596750     1.007825032230
         H            2.824331393786     1.637807037829     0.420798403250     1.007825032230
         H            3.396660393786     0.864875037829    -1.063035596750     1.007825032230
         H            4.235567393786     0.566192037829     0.465531403250     1.007825032230
         H           -1.926955606214    -1.875036962171    -0.259029596750     1.007825032230

  Basis Set: AUG-CC-PVTZ
    Blend: AUG-CC-PVTZ
  Basis Set: (AUG-CC-PVTZ AUX)
    Blend: AUG-CC-PVTZ-JKFIT
	 Reference Energy          =    -309.1448298267451946 [Eh]
	 Singles Energy            =      -0.0000000000000000 [Eh]
	 Same-Spin Energy          =      -0.3169518701768779 [Eh]
	 Opposite-Spin Energy      =      -1.1033218223826331 [Eh]
	 Correlation Energy        =      -1.4202736925595110 [Eh]
	 Total Energy              =    -310.5651035193047278 [Eh]

	 ================> DF-SCS-MP2 Energies <==================
	-----------------------------------------------------------
	 SCS Same-Spin Scale       =       0.3333333333333333 [-]
	 SCS Opposite-Spin Scale   =       1.2000000000000000 [-]
	 SCS Same-Spin Energy      =      -0.1056506233922926 [Eh]
	 SCS Opposite-Spin Energy  =      -1.3239861868591596 [Eh]
	 SCS Correlation Energy    =      -1.4296368102514523 [Eh]
	 SCS Total Energy          =    -310.5744666369966467 [Eh]
	-----------------------------------------------------------

  Dipole Moment: [D]
     X:     1.9049      Y:     0.0109      Z:    -0.6003     Total:     1.9973

*** Psi4 exiting successfully. Buy a developer a beer!
