                               Psi4 1.3.2 release

  ==> Input File <==

--------------------------------------------------------------------------
#psi4
#
memory 32 gb

molecule  {
0 1
  O       -2.3916800    -1.0522970    -0.0243250
  C       -1.5013820     0.0265210    -0.3499700
  C       -0.1613064    -0.1792035     0.3284897
  C        2.3285040    -0.4694590     0.2834420
  C        0.9860590    -0.2881690    -0.3549330
  C       -2.1959480     1.2879740     0.1259890
  C        3.2526380     0.7192940     0.0124360
  H       -1.3570540     0.0791090    -1.4412390
  H       -0.1904860    -0.2488370     1.3972520
  H        2.7976780    -1.3847260    -0.0993500
  H        2.2027970    -0.6058810     1.3632980
  H        0.9935313    -0.2179610    -1.4450763
  H       -2.3344480     1.2448060     1.2091660
  H       -1.6005480     2.1700530    -0.1223020
  H       -3.1779120     1.3727550    -0.3453210
  H        2.8243150     1.6377400     0.4218030
  H        3.3966440     0.8648080    -1.0620310
  H        4.2355510     0.5661250     0.4665360
  H       -1.9269720    -1.8751040    -0.2580250
units angstrom
no_reorient  #important for SAPT in psi4, default
symmetry c1  #important for SAPT in psi4, default
}

set PROPERTIES_ORIGIN ["COM"]
properties('MP2/aug-cc-pvtz', properties = ['dipole'])
--------------------------------------------------------------------------

    Molecular point group: c1
  Charge       = 0
  Multiplicity = 1
  Basis Set: AUG-CC-PVTZ
    Blend: AUG-CC-PVTZ
  Basis Set: (AUG-CC-PVTZ AUX)
    Blend: AUG-CC-PVTZ-JKFIT

    Orbital Energies [Eh]
    ---------------------

    Doubly Occupied:

       1A    -20.553340     2A    -11.281908     3A    -11.236155
       4A    -11.229458     5A    -11.225790     6A    -11.219244
       7A    -11.210410     8A     -1.352275     9A     -1.093933
      10A     -1.033093    11A     -0.974403    12A     -0.871812
      13A     -0.805884    14A     -0.763643    15A     -0.691851
      16A     -0.653965    17A     -0.609945    18A     -0.595824
      19A     -0.577310    20A     -0.543118    21A     -0.535512
      22A     -0.527509    23A     -0.521807    24A     -0.510383
      25A     -0.487590    26A     -0.469089    27A     -0.438524
      28A     -0.356833

  @DF-RHF Final Energy:  -309.15145773629837

   => Energetics <=

    Nuclear Repulsion Energy =            298.9579152532801913
    One-Electron Energy =               -1011.4775304477283271
    Two-Electron Energy =                 403.3681574581497102
    Total Energy =                       -309.1514577362983687
  Basis Set: (AUG-CC-PVTZ AUX)
    Blend: AUG-CC-PVTZ-RI
    Molecular point group: c1

    Geometry (in Angstrom), charge = 0, multiplicity = 1:

       Center              X                  Y                   Z               Mass
    ------------   -----------------  -----------------  -----------------  -----------------
         O           -2.393248936751    -1.051929017199    -0.026740271535    15.994914619570
         C           -1.502950936751     0.026888982801    -0.352385271535    12.000000000000
         C           -0.162875336751    -0.178835517199     0.326074428465    12.000000000000
         C            2.326935063249    -0.469091017199     0.281026728465    12.000000000000
         C            0.984490063249    -0.287801017199    -0.357348271535    12.000000000000
         C           -2.197516936751     1.288341982801     0.123573728465    12.000000000000
         C            3.251069063249     0.719661982801     0.010020728465    12.000000000000
         H           -1.358622936751     0.079476982801    -1.443654271535     1.007825032230
         H           -0.192054936751    -0.248469017199     1.394836728465     1.007825032230
         H            2.796109063249    -1.384358017199    -0.101765271535     1.007825032230
         H            2.201228063249    -0.605513017199     1.360882728465     1.007825032230
         H            0.991962363249    -0.217593017199    -1.447491571535     1.007825032230
         H           -2.336016936751     1.245173982801     1.206750728465     1.007825032230
         H           -1.602116936751     2.170420982801    -0.124717271535     1.007825032230
         H           -3.179480936751     1.373122982801    -0.347736271535     1.007825032230
         H            2.822746063249     1.638107982801     0.419387728465     1.007825032230
         H            3.395075063249     0.865175982801    -1.064446271535     1.007825032230
         H            4.233982063249     0.566492982801     0.464120728465     1.007825032230
         H           -1.928540936751    -1.874736017199    -0.260440271535     1.007825032230

  Basis Set: AUG-CC-PVTZ
    Blend: AUG-CC-PVTZ
  Basis Set: (AUG-CC-PVTZ AUX)
    Blend: AUG-CC-PVTZ-JKFIT
	 Reference Energy          =    -309.1514577362983687 [Eh]
	 Singles Energy            =      -0.0000000000000000 [Eh]
	 Same-Spin Energy          =      -0.3165181815761385 [Eh]
	 Opposite-Spin Energy      =      -1.1022615785026264 [Eh]
	 Correlation Energy        =      -1.4187797600787651 [Eh]
	 Total Energy              =    -310.5702374963771604 [Eh]

	 ================> DF-SCS-MP2 Energies <==================
	-----------------------------------------------------------
	 SCS Same-Spin Scale       =       0.3333333333333333 [-]
	 SCS Opposite-Spin Scale   =       1.2000000000000000 [-]
	 SCS Same-Spin Energy      =      -0.1055060605253795 [Eh]
	 SCS Opposite-Spin Energy  =      -1.3227138942031516 [Eh]
	 SCS Correlation Energy    =      -1.4282199547285310 [Eh]
	 SCS Total Energy          =    -310.5796776910269159 [Eh]
	-----------------------------------------------------------

  Dipole Moment: [D]
     X:     1.9049      Y:     0.0024      Z:    -0.5524     Total:     1.9834

*** Psi4 exiting successfully. Buy a developer a beer!
