                               Psi4 1.3.2 release

  ==> Input File <==

--------------------------------------------------------------------------
#psi4
#
memory 32 gb

molecule  {
0 1
  O       -2.3916800    -1.0522970    -0.0243250
  C       -1.5013820     0.0265210    -0.3499700
  C       -0.1670529    -0.1773958     0.3184536
  C        2.3228661    -0.4692299     0.2952293
  C        0.9860590    -0.2881690    -0.3549330
  C       -2.1959480     1.2879740     0.1259890
  C        3.2526380     0.7192940     0.0124360
  H       -1.3570540     0.0791090    -1.4412390
  H       -0.1904860    -0.2488370     1.3972520
  H        2.7976780    -1.3847260    -0.0993500
  H        2.2027970    -0.6058810     1.3632980
  H        0.9746330    -0.2154440    -1.4448770
  H       -2.3344480     1.2448060     1.2091660
  H       -1.6005480     2.1700530    -0.1223020
  H       -3.1779120     1.3727550    -0.3453210
  H        2.8243150     1.6377400     0.4218030
  H        3.3966440     0.8648080    -1.0620310
  H        4.2355510     0.5661250     0.4665360
  H       -1.9269720    -1.8751040    -0.2580250
units angstrom
no_reorient  #important for SAPT in psi4, default
symmetry c1  #important for SAPT in psi4, default
}

set PROPERTIES_ORIGIN ["COM"]
properties('MP2/aug-cc-pvtz', properties = ['dipole'])
--------------------------------------------------------------------------

    Molecular point group: c1
  Charge       = 0
  Multiplicity = 1
  Basis Set: AUG-CC-PVTZ
    Blend: AUG-CC-PVTZ
  Basis Set: (AUG-CC-PVTZ AUX)
    Blend: AUG-CC-PVTZ-JKFIT

    Orbital Energies [Eh]
    ---------------------

    Doubly Occupied:

       1A    -20.553432     2A    -11.281412     3A    -11.236061
       4A    -11.230034     5A    -11.225578     6A    -11.219612
       7A    -11.210499     8A     -1.352504     9A     -1.094185
      10A     -1.033564    11A     -0.974198    12A     -0.872414
      13A     -0.806836    14A     -0.762600    15A     -0.692301
      16A     -0.654041    17A     -0.609224    18A     -0.595867
      19A     -0.577739    20A     -0.540530    21A     -0.534924
      22A     -0.527508    23A     -0.521352    24A     -0.509716
      25A     -0.490662    26A     -0.470188    27A     -0.439579
      28A     -0.356232

  @DF-RHF Final Energy:  -309.15174110089151

   => Energetics <=

    Nuclear Repulsion Energy =            299.0532917066564664
    One-Electron Energy =               -1011.6644790922625816
    Two-Electron Energy =                 403.4594462847146588
    Total Energy =                       -309.1517411008915133
  Basis Set: (AUG-CC-PVTZ AUX)
    Blend: AUG-CC-PVTZ-RI
    Molecular point group: c1

    Geometry (in Angstrom), charge = 0, multiplicity = 1:

       Center              X                  Y                   Z               Mass
    ------------   -----------------  -----------------  -----------------  -----------------
         O           -2.391693728211    -1.052198560760    -0.026952235874    15.994914619570
         C           -1.501395728211     0.026619439240    -0.352597235874    12.000000000000
         C           -0.167066628211    -0.177297360760     0.315826364126    12.000000000000
         C            2.322852371789    -0.469131460760     0.292602064126    12.000000000000
         C            0.986045271789    -0.288070560760    -0.357560235874    12.000000000000
         C           -2.195961728211     1.288072439240     0.123361764126    12.000000000000
         C            3.252624271789     0.719392439240     0.009808764126    12.000000000000
         H           -1.357067728211     0.079207439240    -1.443866235874     1.007825032230
         H           -0.190499728211    -0.248738560760     1.394624764126     1.007825032230
         H            2.797664271789    -1.384627560760    -0.101977235874     1.007825032230
         H            2.202783271789    -0.605782560760     1.360670764126     1.007825032230
         H            0.974619271789    -0.215345560760    -1.447504235874     1.007825032230
         H           -2.334461728211     1.244904439240     1.206538764126     1.007825032230
         H           -1.600561728211     2.170151439240    -0.124929235874     1.007825032230
         H           -3.177925728211     1.372853439240    -0.347948235874     1.007825032230
         H            2.824301271789     1.637838439240     0.419175764126     1.007825032230
         H            3.396630271789     0.864906439240    -1.064658235874     1.007825032230
         H            4.235537271789     0.566223439240     0.463908764126     1.007825032230
         H           -1.926985728211    -1.875005560760    -0.260652235874     1.007825032230

  Basis Set: AUG-CC-PVTZ
    Blend: AUG-CC-PVTZ
  Basis Set: (AUG-CC-PVTZ AUX)
    Blend: AUG-CC-PVTZ-JKFIT
	 Reference Energy          =    -309.1517411008915133 [Eh]
	 Singles Energy            =      -0.0000000000000000 [Eh]
	 Same-Spin Energy          =      -0.3165964961669659 [Eh]
	 Opposite-Spin Energy      =      -1.1022991330658525 [Eh]
	 Correlation Energy        =      -1.4188956292328183 [Eh]
	 Total Energy              =    -310.5706367301243063 [Eh]

	 ================> DF-SCS-MP2 Energies <==================
	-----------------------------------------------------------
	 SCS Same-Spin Scale       =       0.3333333333333333 [-]
	 SCS Opposite-Spin Scale   =       1.2000000000000000 [-]
	 SCS Same-Spin Energy      =      -0.1055321653889886 [Eh]
	 SCS Opposite-Spin Energy  =      -1.3227589596790230 [Eh]
	 SCS Correlation Energy    =      -1.4282911250680117 [Eh]
	 SCS Total Energy          =    -310.5800322259595418 [Eh]
	-----------------------------------------------------------

  Dipole Moment: [D]
     X:     1.9103      Y:     0.0046      Z:    -0.5467     Total:     1.9870

*** Psi4 exiting successfully. Buy a developer a beer!
