                               Psi4 1.4a3.dev225

  ==> Input File <==

--------------------------------------------------------------------------
#psi4
#
memory 32 gb

molecule  {
0 1
  O        2.4733480    -1.0180220    -0.0592030
  C        1.5612870     0.0272190     0.3186860
  C        0.2241640    -0.1896060    -0.3216700
  C       -2.2699720    -0.5538550    -0.2568310
  C       -0.8732285    -0.3509038     0.3818730
  C        2.2155680     1.3228410    -0.1266610
  C       -3.2245640     0.5955150     0.0801580
  H        1.4362950     0.0398890     1.4137890
  H        0.2208170    -0.2229080    -1.4128920
  H       -2.7032570    -1.4976940     0.0989920
  H       -2.1635450    -0.6441890    -1.3439560
  H       -0.8861850    -0.3229140     1.4529890
  H        2.3348110     1.3198720    -1.2134080
  H        1.6025990     2.1805020     0.1626330
  H        3.2041590     1.4168830     0.3297970
  H       -2.8327200     1.5423190    -0.3012060
  H       -3.3500700     0.6943310     1.1626160
  H       -4.2121190     0.4296020    -0.3601990
  H        2.0333780    -1.8594800     0.1548220
units angstrom
no_reorient  #important for SAPT in psi4, default
symmetry c1  #important for SAPT in psi4, default
}

set PROPERTIES_ORIGIN ["COM"]
properties('MP2/aug-cc-pvtz', properties = ['dipole'])
--------------------------------------------------------------------------

    Molecular point group: c1
  Charge       = 0
  Multiplicity = 1
  Basis Set: AUG-CC-PVTZ
    Blend: AUG-CC-PVTZ
  Basis Set: (AUG-CC-PVTZ AUX)
    Blend: AUG-CC-PVTZ-JKFIT

    Orbital Energies [Eh]
    ---------------------

    Doubly Occupied:

       1A    -20.553338     2A    -11.280503     3A    -11.233112
       4A    -11.232339     5A    -11.223468     6A    -11.219086
       7A    -11.210845     8A     -1.352022     9A     -1.093482
      10A     -1.031923    11A     -0.977212    12A     -0.868179
      13A     -0.807295    14A     -0.763746    15A     -0.692019
      16A     -0.655105    17A     -0.606145    18A     -0.594497
      19A     -0.577957    20A     -0.545893    21A     -0.533366
      22A     -0.527080    23A     -0.520374    24A     -0.508671
      25A     -0.489023    26A     -0.464783    27A     -0.437467
      28A     -0.364616

  @DF-RHF Final Energy:  -309.15058229740066

   => Energetics <=

    Nuclear Repulsion Energy =            298.9067615387024262
    One-Electron Energy =               -1011.3875988840985656
    Two-Electron Energy =                 403.3302550479954789
    Total Energy =                       -309.1505822974006605
  Basis Set: (AUG-CC-PVTZ AUX)
    Blend: AUG-CC-PVTZ-RI
    Molecular point group: c1

    Geometry (in Angstrom), charge = 0, multiplicity = 1:

       Center              X                  Y                   Z               Mass
    ------------   -----------------  -----------------  -----------------  -----------------
         O            2.415373385271    -0.988364659119    -0.060250236841    15.994914619570
         C            1.503312385271     0.056876340881     0.317638763159    12.000000000000
         C            0.166189385271    -0.159948659119    -0.322717236841    12.000000000000
         C           -2.327946614729    -0.524197659119    -0.257878236841    12.000000000000
         C           -0.931203114729    -0.321246459119     0.380825763159    12.000000000000
         C            2.157593385271     1.352498340881    -0.127708236841    12.000000000000
         C           -3.282538614729     0.625172340881     0.079110763159    12.000000000000
         H            1.378320385271     0.069546340881     1.412741763159     1.007825032230
         H            0.162842385271    -0.193250659119    -1.413939236841     1.007825032230
         H           -2.761231614729    -1.468036659119     0.097944763159     1.007825032230
         H           -2.221519614729    -0.614531659119    -1.345003236841     1.007825032230
         H           -0.944159614729    -0.293256659119     1.451941763159     1.007825032230
         H            2.276836385271     1.349529340881    -1.214455236841     1.007825032230
         H            1.544624385271     2.210159340881     0.161585763159     1.007825032230
         H            3.146184385271     1.446540340881     0.328749763159     1.007825032230
         H           -2.890694614729     1.571976340881    -0.302253236841     1.007825032230
         H           -3.408044614729     0.723988340881     1.161568763159     1.007825032230
         H           -4.270093614729     0.459259340881    -0.361246236841     1.007825032230
         H            1.975403385271    -1.829822659119     0.153774763159     1.007825032230

  Basis Set: AUG-CC-PVTZ
    Blend: AUG-CC-PVTZ
  Basis Set: (AUG-CC-PVTZ AUX)
    Blend: AUG-CC-PVTZ-JKFIT
	 Reference Energy          =    -309.1505822974006605 [Eh]
	 Singles Energy            =      -0.0000000000000000 [Eh]
	 Same-Spin Energy          =      -0.3160325905744361 [Eh]
	 Opposite-Spin Energy      =      -1.1015744831883725 [Eh]
	 Correlation Energy        =      -1.4176070737628086 [Eh]
	 Total Energy              =    -310.5681893711634416 [Eh]

	 ================> DF-SCS-MP2 Energies <==================
	-----------------------------------------------------------
	 SCS Same-Spin Scale       =       0.3333333333333333 [-]
	 SCS Opposite-Spin Scale   =       1.2000000000000000 [-]
	 SCS Same-Spin Energy      =      -0.1053441968581454 [Eh]
	 SCS Opposite-Spin Energy  =      -1.3218893798260469 [Eh]
	 SCS Correlation Energy    =      -1.4272335766841924 [Eh]
	 SCS Total Energy          =    -310.5778158740848767 [Eh]
	-----------------------------------------------------------

  Dipole Moment: [D]
     X:    -1.8640      Y:    -0.0540      Z:     0.5989     Total:     1.9586

*** Psi4 exiting successfully. Buy a developer a beer!
