                               Psi4 1.3.2 release

  ==> Input File <==

--------------------------------------------------------------------------
#psi4
#
memory 32 gb

molecule  {
0 1
  O       -2.4443173    -1.0189356    -0.0663912
  C       -1.5013820     0.0265210    -0.3499700
  C       -0.1486956    -0.1093408     0.2756551
  C        2.3285040    -0.4694590     0.2834420
  C        0.9860590    -0.2881690    -0.3549330
  C       -2.1959480     1.2879740     0.1259890
  C        3.2526380     0.7192940     0.0124360
  H       -1.3570540     0.0791090    -1.4412390
  H       -0.1904860    -0.2488370     1.3972520
  H        2.7976780    -1.3847260    -0.0993500
  H        2.2027970    -0.6058810     1.3632980
  H        0.9746330    -0.2154440    -1.4448770
  H       -2.3344480     1.2448060     1.2091660
  H       -1.6005480     2.1700530    -0.1223020
  H       -3.1779120     1.3727550    -0.3453210
  H        2.8243150     1.6377400     0.4218030
  H        3.3966440     0.8648080    -1.0620310
  H        4.2355510     0.5661250     0.4665360
  H       -1.9269720    -1.8751040    -0.2580250
units angstrom
no_reorient  #important for SAPT in psi4, default
symmetry c1  #important for SAPT in psi4, default
}

set PROPERTIES_ORIGIN ["COM"]
properties('MP2/aug-cc-pvtz', properties = ['dipole'])
--------------------------------------------------------------------------

    Molecular point group: c1
  Charge       = 0
  Multiplicity = 1
  Basis Set: AUG-CC-PVTZ
    Blend: AUG-CC-PVTZ
  Basis Set: (AUG-CC-PVTZ AUX)
    Blend: AUG-CC-PVTZ-JKFIT

    Orbital Energies [Eh]
    ---------------------

    Doubly Occupied:

       1A    -20.561922     2A    -11.280347     3A    -11.234405
       4A    -11.232281     5A    -11.227310     6A    -11.220601
       7A    -11.208105     8A     -1.346697     9A     -1.100058
      10A     -1.034704    11A     -0.976931    12A     -0.873038
      13A     -0.808426    14A     -0.755472    15A     -0.685424
      16A     -0.655633    17A     -0.612909    18A     -0.592323
      19A     -0.579094    20A     -0.538377    21A     -0.533436
      22A     -0.523051    23A     -0.519977    24A     -0.512023
      25A     -0.488075    26A     -0.471613    27A     -0.437403
      28A     -0.365697

  @DF-RHF Final Energy:  -309.14232695955786

   => Energetics <=

    Nuclear Repulsion Energy =            299.0021554796971941
    One-Electron Energy =               -1011.5383026287333905
    Two-Electron Energy =                 403.3938201894783333
    Total Energy =                       -309.1423269595578631
  Basis Set: (AUG-CC-PVTZ AUX)
    Blend: AUG-CC-PVTZ-RI
    Molecular point group: c1

    Geometry (in Angstrom), charge = 0, multiplicity = 1:

       Center              X                  Y                   Z               Mass
    ------------   -----------------  -----------------  -----------------  -----------------
         O           -2.438796076885    -1.032300438794    -0.055751470157    15.994914619570
         C           -1.495860776885     0.013156161206    -0.339330270157    12.000000000000
         C           -0.143174376885    -0.122705638794     0.286294829843    12.000000000000
         C            2.334025223115    -0.482823838794     0.294081729843    12.000000000000
         C            0.991580223115    -0.301533838794    -0.344293270157    12.000000000000
         C           -2.190426776885     1.274609161206     0.136628729843    12.000000000000
         C            3.258159223115     0.705929161206     0.023075729843    12.000000000000
         H           -1.351532776885     0.065744161206    -1.430599270157     1.007825032230
         H           -0.184964776885    -0.262201838794     1.407891729843     1.007825032230
         H            2.803199223115    -1.398090838794    -0.088710270157     1.007825032230
         H            2.208318223115    -0.619245838794     1.373937729843     1.007825032230
         H            0.980154223115    -0.228808838794    -1.434237270157     1.007825032230
         H           -2.328926776885     1.231441161206     1.219805729843     1.007825032230
         H           -1.595026776885     2.156688161206    -0.111662270157     1.007825032230
         H           -3.172390776885     1.359390161206    -0.334681270157     1.007825032230
         H            2.829836223115     1.624375161206     0.432442729843     1.007825032230
         H            3.402165223115     0.851443161206    -1.051391270157     1.007825032230
         H            4.241072223115     0.552760161206     0.477175729843     1.007825032230
         H           -1.921450776885    -1.888468838794    -0.247385270157     1.007825032230

  Basis Set: AUG-CC-PVTZ
    Blend: AUG-CC-PVTZ
  Basis Set: (AUG-CC-PVTZ AUX)
    Blend: AUG-CC-PVTZ-JKFIT
	 Reference Energy          =    -309.1423269595578631 [Eh]
	 Singles Energy            =      -0.0000000000000000 [Eh]
	 Same-Spin Energy          =      -0.3174552405162964 [Eh]
	 Opposite-Spin Energy      =      -1.1041614975598695 [Eh]
	 Correlation Energy        =      -1.4216167380761657 [Eh]
	 Total Energy              =    -310.5639436976340448 [Eh]

	 ================> DF-SCS-MP2 Energies <==================
	-----------------------------------------------------------
	 SCS Same-Spin Scale       =       0.3333333333333333 [-]
	 SCS Opposite-Spin Scale   =       1.2000000000000000 [-]
	 SCS Same-Spin Energy      =      -0.1058184135054321 [Eh]
	 SCS Opposite-Spin Energy  =      -1.3249937970718433 [Eh]
	 SCS Correlation Energy    =      -1.4308122105772754 [Eh]
	 SCS Total Energy          =    -310.5731391701351640 [Eh]
	-----------------------------------------------------------

  Dipole Moment: [D]
     X:     2.0565      Y:    -0.1553      Z:    -0.4791     Total:     2.1173

*** Psi4 exiting successfully. Buy a developer a beer!
