                               Psi4 1.3.2 release

  ==> Input File <==

--------------------------------------------------------------------------
#psi4
#
memory 32 gb

molecule  {
0 1
  O       -2.4392580    -1.0017126     0.0044982
  C       -1.5013820     0.0265210    -0.3499700
  C       -0.1728060    -0.1763470     0.3083280
  C        2.3285040    -0.4694590     0.2834420
  C        0.9860590    -0.2881690    -0.3549330
  C       -2.2562789     1.2428174     0.1510053
  C        3.2526380     0.7192940     0.0124360
  H       -1.3570540     0.0791090    -1.4412390
  H       -0.1904860    -0.2488370     1.3972520
  H        2.7976780    -1.3847260    -0.0993500
  H        2.2027970    -0.6058810     1.3632980
  H        0.9746330    -0.2154440    -1.4448770
  H       -2.3344480     1.2448060     1.2091660
  H       -1.6005480     2.1700530    -0.1223020
  H       -3.1779120     1.3727550    -0.3453210
  H        2.8243150     1.6377400     0.4218030
  H        3.3966440     0.8648080    -1.0620310
  H        4.2355510     0.5661250     0.4665360
  H       -1.9269720    -1.8751040    -0.2580250
units angstrom
no_reorient  #important for SAPT in psi4, default
symmetry c1  #important for SAPT in psi4, default
}

set PROPERTIES_ORIGIN ["COM"]
properties('MP2/aug-cc-pvtz', properties = ['dipole'])
--------------------------------------------------------------------------

    Molecular point group: c1
  Charge       = 0
  Multiplicity = 1
  Basis Set: AUG-CC-PVTZ
    Blend: AUG-CC-PVTZ
  Basis Set: (AUG-CC-PVTZ AUX)
    Blend: AUG-CC-PVTZ-JKFIT

    Orbital Energies [Eh]
    ---------------------

    Doubly Occupied:

       1A    -20.560716     2A    -11.280420     3A    -11.238561
       4A    -11.231891     5A    -11.227925     6A    -11.220437
       7A    -11.208912     8A     -1.342735     9A     -1.095024
      10A     -1.031596    11A     -0.974161    12A     -0.874739
      13A     -0.805391    14A     -0.761281    15A     -0.678241
      16A     -0.657003    17A     -0.611257    18A     -0.597956
      19A     -0.577345    20A     -0.547270    21A     -0.538732
      22A     -0.525495    23A     -0.514233    24A     -0.493078
      25A     -0.487295    26A     -0.472094    27A     -0.443149
      28A     -0.358563

  @DF-RHF Final Energy:  -309.13349980498310

   => Energetics <=

    Nuclear Repulsion Energy =            298.8717890214305157
    One-Electron Energy =               -1011.2995871340361873
    Two-Electron Energy =                 403.2942983076225119
    Total Energy =                       -309.1334998049831029
  Basis Set: (AUG-CC-PVTZ AUX)
    Blend: AUG-CC-PVTZ-RI
    Molecular point group: c1

    Geometry (in Angstrom), charge = 0, multiplicity = 1:

       Center              X                  Y                   Z               Mass
    ------------   -----------------  -----------------  -----------------  -----------------
         O           -2.424421325120    -1.004382205911    -0.003107268687    15.994914619570
         C           -1.486545325120     0.023851394089    -0.357575468687    12.000000000000
         C           -0.157969325120    -0.179016605911     0.300722531313    12.000000000000
         C            2.343340674880    -0.472128605911     0.275836531313    12.000000000000
         C            1.000895674880    -0.290838605911    -0.362538468687    12.000000000000
         C           -2.241442225120     1.240147794089     0.143399831313    12.000000000000
         C            3.267474674880     0.716624394089     0.004830531313    12.000000000000
         H           -1.342217325120     0.076439394089    -1.448844468687     1.007825032230
         H           -0.175649325120    -0.251506605911     1.389646531313     1.007825032230
         H            2.812514674880    -1.387395605911    -0.106955468687     1.007825032230
         H            2.217633674880    -0.608550605911     1.355692531313     1.007825032230
         H            0.989469674880    -0.218113605911    -1.452482468687     1.007825032230
         H           -2.319611325120     1.242136394089     1.201560531313     1.007825032230
         H           -1.585711325120     2.167383394089    -0.129907468687     1.007825032230
         H           -3.163075325120     1.370085394089    -0.352926468687     1.007825032230
         H            2.839151674880     1.635070394089     0.414197531313     1.007825032230
         H            3.411480674880     0.862138394089    -1.069636468687     1.007825032230
         H            4.250387674880     0.563455394089     0.458930531313     1.007825032230
         H           -1.912135325120    -1.877773605911    -0.265630468687     1.007825032230

  Basis Set: AUG-CC-PVTZ
    Blend: AUG-CC-PVTZ
  Basis Set: (AUG-CC-PVTZ AUX)
    Blend: AUG-CC-PVTZ-JKFIT
	 Reference Energy          =    -309.1334998049831029 [Eh]
	 Singles Energy            =      -0.0000000000000000 [Eh]
	 Same-Spin Energy          =      -0.3180836365350127 [Eh]
	 Opposite-Spin Energy      =      -1.1058786865389085 [Eh]
	 Correlation Energy        =      -1.4239623230739213 [Eh]
	 Total Energy              =    -310.5574621280570113 [Eh]

	 ================> DF-SCS-MP2 Energies <==================
	-----------------------------------------------------------
	 SCS Same-Spin Scale       =       0.3333333333333333 [-]
	 SCS Opposite-Spin Scale   =       1.2000000000000000 [-]
	 SCS Same-Spin Energy      =      -0.1060278788450042 [Eh]
	 SCS Opposite-Spin Energy  =      -1.3270544238466901 [Eh]
	 SCS Correlation Energy    =      -1.4330823026916943 [Eh]
	 SCS Total Energy          =    -310.5665821076747761 [Eh]
	-----------------------------------------------------------

  Dipole Moment: [D]
     X:     2.0133      Y:    -0.1214      Z:    -0.5767     Total:     2.0978

*** Psi4 exiting successfully. Buy a developer a beer!
