                               Psi4 1.3.2 release

  ==> Input File <==

--------------------------------------------------------------------------
#psi4
#
memory 32 gb

molecule  {
0 1
  O       -2.3916800    -1.0522970    -0.0243250
  C       -1.5013820     0.0265210    -0.3499700
  C       -0.1372624    -0.1850152     0.3681824
  C        2.3285040    -0.4694590     0.2834420
  C        0.9860590    -0.2881690    -0.3549330
  C       -2.1959480     1.2879740     0.1259890
  C        3.2526380     0.7192940     0.0124360
  H       -1.3570540     0.0791090    -1.4412390
  H       -0.1904860    -0.2488370     1.3972520
  H        2.7976780    -1.3847260    -0.0993500
  H        2.2027970    -0.6058810     1.3632980
  H        1.0313153    -0.2230585    -1.4444787
  H       -2.3344480     1.2448060     1.2091660
  H       -1.6005480     2.1700530    -0.1223020
  H       -3.1779120     1.3727550    -0.3453210
  H        2.8243150     1.6377400     0.4218030
  H        3.3966440     0.8648080    -1.0620310
  H        4.2355510     0.5661250     0.4665360
  H       -1.9269720    -1.8751040    -0.2580250
units angstrom
no_reorient  #important for SAPT in psi4, default
symmetry c1  #important for SAPT in psi4, default
}

set PROPERTIES_ORIGIN ["COM"]
properties('MP2/aug-cc-pvtz', properties = ['dipole'])
--------------------------------------------------------------------------

    Molecular point group: c1
  Charge       = 0
  Multiplicity = 1
  Basis Set: AUG-CC-PVTZ
    Blend: AUG-CC-PVTZ
  Basis Set: (AUG-CC-PVTZ AUX)
    Blend: AUG-CC-PVTZ-JKFIT

    Orbital Energies [Eh]
    ---------------------

    Doubly Occupied:

       1A    -20.552766     2A    -11.283379     3A    -11.236554
       4A    -11.227248     5A    -11.225186     6A    -11.218566
       7A    -11.209825     8A     -1.351128     9A     -1.093040
      10A     -1.029482    11A     -0.974013    12A     -0.869303
      13A     -0.803186    14A     -0.769710    15A     -0.689873
      16A     -0.653710    17A     -0.609444    18A     -0.598297
      19A     -0.575345    20A     -0.551620    21A     -0.534183
      22A     -0.526830    23A     -0.521597    24A     -0.509825
      25A     -0.487634    26A     -0.465543    27A     -0.432201
      28A     -0.357291

  @DF-RHF Final Energy:  -309.14632613349647

   => Energetics <=

    Nuclear Repulsion Energy =            298.5920554967989915
    One-Electron Energy =               -1010.7632049459831478
    Two-Electron Energy =                 403.0248233156877404
    Total Energy =                       -309.1463261334964727
  Basis Set: (AUG-CC-PVTZ AUX)
    Blend: AUG-CC-PVTZ-RI
    Molecular point group: c1

    Geometry (in Angstrom), charge = 0, multiplicity = 1:

       Center              X                  Y                   Z               Mass
    ------------   -----------------  -----------------  -----------------  -----------------
         O           -2.396512115169    -1.051180903755    -0.031505186338    15.994914619570
         C           -1.506214115169     0.027637096245    -0.357150186338    12.000000000000
         C           -0.142094515169    -0.183899103755     0.361002213662    12.000000000000
         C            2.323671884831    -0.468342903755     0.276261813662    12.000000000000
         C            0.981226884831    -0.287052903755    -0.362113186338    12.000000000000
         C           -2.200780115169     1.289090096245     0.118808813662    12.000000000000
         C            3.247805884831     0.720410096245     0.005255813662    12.000000000000
         H           -1.361886115169     0.080225096245    -1.448419186338     1.007825032230
         H           -0.195318115169    -0.247720903755     1.390071813662     1.007825032230
         H            2.792845884831    -1.383609903755    -0.106530186338     1.007825032230
         H            2.197964884831    -0.604764903755     1.356117813662     1.007825032230
         H            1.026483184831    -0.221942403755    -1.451658886338     1.007825032230
         H           -2.339280115169     1.245922096245     1.201985813662     1.007825032230
         H           -1.605380115169     2.171169096245    -0.129482186338     1.007825032230
         H           -3.182744115169     1.373871096245    -0.352501186338     1.007825032230
         H            2.819482884831     1.638856096245     0.414622813662     1.007825032230
         H            3.391811884831     0.865924096245    -1.069211186338     1.007825032230
         H            4.230718884831     0.567241096245     0.459355813662     1.007825032230
         H           -1.931804115169    -1.873987903755    -0.265205186338     1.007825032230

  Basis Set: AUG-CC-PVTZ
    Blend: AUG-CC-PVTZ
  Basis Set: (AUG-CC-PVTZ AUX)
    Blend: AUG-CC-PVTZ-JKFIT
	 Reference Energy          =    -309.1463261334964727 [Eh]
	 Singles Energy            =      -0.0000000000000000 [Eh]
	 Same-Spin Energy          =      -0.3162705113382005 [Eh]
	 Opposite-Spin Energy      =      -1.1022359532018262 [Eh]
	 Correlation Energy        =      -1.4185064645400267 [Eh]
	 Total Energy              =    -310.5648325980365030 [Eh]

	 ================> DF-SCS-MP2 Energies <==================
	-----------------------------------------------------------
	 SCS Same-Spin Scale       =       0.3333333333333333 [-]
	 SCS Opposite-Spin Scale   =       1.2000000000000000 [-]
	 SCS Same-Spin Energy      =      -0.1054235037794002 [Eh]
	 SCS Opposite-Spin Energy  =      -1.3226831438421913 [Eh]
	 SCS Correlation Energy    =      -1.4281066476215916 [Eh]
	 SCS Total Energy          =    -310.5744327811180483 [Eh]
	-----------------------------------------------------------

  Dipole Moment: [D]
     X:     1.8898      Y:    -0.0073      Z:    -0.5544     Total:     1.9694

*** Psi4 exiting successfully. Buy a developer a beer!
