                               Psi4 1.3.2 release

  ==> Input File <==

--------------------------------------------------------------------------
#psi4
#
memory 32 gb

molecule  {
0 1
  O       -2.3916800    -1.0522970    -0.0243250
  C       -1.5013820     0.0265210    -0.3499700
  C       -0.1696326    -0.1983543     0.2946233
  C        2.3285040    -0.4694590     0.2834420
  C        0.9860590    -0.2881690    -0.3549330
  C       -2.2162613     1.2825836     0.1098961
  C        3.2526380     0.7192940     0.0124360
  H       -1.3570540     0.0791090    -1.4412390
  H       -0.1904860    -0.2488370     1.3972520
  H        2.7976780    -1.3847260    -0.0993500
  H        2.2027970    -0.6058810     1.3632980
  H        0.9746330    -0.2154440    -1.4448770
  H       -2.3344480     1.2448060     1.2091660
  H       -1.6005480     2.1700530    -0.1223020
  H       -3.1779120     1.3727550    -0.3453210
  H        2.8243150     1.6377400     0.4218030
  H        3.3966440     0.8648080    -1.0620310
  H        4.2355510     0.5661250     0.4665360
  H       -1.9269720    -1.8751040    -0.2580250
units angstrom
no_reorient  #important for SAPT in psi4, default
symmetry c1  #important for SAPT in psi4, default
}

set PROPERTIES_ORIGIN ["COM"]
properties('MP2/aug-cc-pvtz', properties = ['dipole'])
--------------------------------------------------------------------------

    Molecular point group: c1
  Charge       = 0
  Multiplicity = 1
  Basis Set: AUG-CC-PVTZ
    Blend: AUG-CC-PVTZ
  Basis Set: (AUG-CC-PVTZ AUX)
    Blend: AUG-CC-PVTZ-JKFIT

    Orbital Energies [Eh]
    ---------------------

    Doubly Occupied:

       1A    -20.552845     2A    -11.281188     3A    -11.235093
       4A    -11.230965     5A    -11.226080     6A    -11.219925
       7A    -11.211351     8A     -1.352626     9A     -1.095994
      10A     -1.034459    11A     -0.976563    12A     -0.873943
      13A     -0.808497    14A     -0.758658    15A     -0.692477
      16A     -0.654863    17A     -0.612212    18A     -0.594064
      19A     -0.579248    20A     -0.540956    21A     -0.537256
      22A     -0.522450    23A     -0.520995    24A     -0.509564
      25A     -0.487652    26A     -0.472269    27A     -0.439582
      28A     -0.359925

  @DF-RHF Final Energy:  -309.15103692941909

   => Energetics <=

    Nuclear Repulsion Energy =            299.1754964323715171
    One-Electron Energy =               -1011.8896711371609172
    Two-Electron Energy =                 403.5631377753703646
    Total Energy =                       -309.1510369294190923
  Basis Set: (AUG-CC-PVTZ AUX)
    Blend: AUG-CC-PVTZ-RI
    Molecular point group: c1

    Geometry (in Angstrom), charge = 0, multiplicity = 1:

       Center              X                  Y                   Z               Mass
    ------------   -----------------  -----------------  -----------------  -----------------
         O           -2.389624953593    -1.049012030876    -0.020752482186    15.994914619570
         C           -1.499326953593     0.029805969124    -0.346397482186    12.000000000000
         C           -0.167577553593    -0.195069330876     0.298195817814    12.000000000000
         C            2.330559046407    -0.466174030876     0.287014517814    12.000000000000
         C            0.988114046407    -0.284884030876    -0.351360482186    12.000000000000
         C           -2.214206253593     1.285868569124     0.113468617814    12.000000000000
         C            3.254693046407     0.722578969124     0.016008517814    12.000000000000
         H           -1.354998953593     0.082393969124    -1.437666482186     1.007825032230
         H           -0.188430953593    -0.245552030876     1.400824517814     1.007825032230
         H            2.799733046407    -1.381441030876    -0.095777482186     1.007825032230
         H            2.204852046407    -0.602596030876     1.366870517814     1.007825032230
         H            0.976688046407    -0.212159030876    -1.441304482186     1.007825032230
         H           -2.332392953593     1.248090969124     1.212738517814     1.007825032230
         H           -1.598492953593     2.173337969124    -0.118729482186     1.007825032230
         H           -3.175856953593     1.376039969124    -0.341748482186     1.007825032230
         H            2.826370046407     1.641024969124     0.425375517814     1.007825032230
         H            3.398699046407     0.868092969124    -1.058458482186     1.007825032230
         H            4.237606046407     0.569409969124     0.470108517814     1.007825032230
         H           -1.924916953593    -1.871819030876    -0.254452482186     1.007825032230

  Basis Set: AUG-CC-PVTZ
    Blend: AUG-CC-PVTZ
  Basis Set: (AUG-CC-PVTZ AUX)
    Blend: AUG-CC-PVTZ-JKFIT
	 Reference Energy          =    -309.1510369294190923 [Eh]
	 Singles Energy            =      -0.0000000000000000 [Eh]
	 Same-Spin Energy          =      -0.3166091642831590 [Eh]
	 Opposite-Spin Energy      =      -1.1022071557016226 [Eh]
	 Correlation Energy        =      -1.4188163199847816 [Eh]
	 Total Energy              =    -310.5698532494038773 [Eh]

	 ================> DF-SCS-MP2 Energies <==================
	-----------------------------------------------------------
	 SCS Same-Spin Scale       =       0.3333333333333333 [-]
	 SCS Opposite-Spin Scale   =       1.2000000000000000 [-]
	 SCS Same-Spin Energy      =      -0.1055363880943863 [Eh]
	 SCS Opposite-Spin Energy  =      -1.3226485868419471 [Eh]
	 SCS Correlation Energy    =      -1.4281849749363333 [Eh]
	 SCS Total Energy          =    -310.5792219043554496 [Eh]
	-----------------------------------------------------------

  Dipole Moment: [D]
     X:     1.9268      Y:     0.0338      Z:    -0.5642     Total:     2.0080

*** Psi4 exiting successfully. Buy a developer a beer!
