                               Psi4 1.3.2 release

  ==> Input File <==

--------------------------------------------------------------------------
#psi4
#
memory 32 gb

molecule  {
0 1
  O       -2.3916800    -1.0522970    -0.0243250
  C       -1.5344151     0.0255778    -0.2789307
  C       -0.1728060    -0.1763470     0.3083280
  C        2.3285040    -0.4694590     0.2834420
  C        0.9860590    -0.2881690    -0.3549330
  C       -2.1959480     1.2879740     0.1259890
  C        3.2526380     0.7192940     0.0124360
  H       -1.3570540     0.0791090    -1.4412390
  H       -0.2471810    -0.2419697     1.3952893
  H        2.7976780    -1.3847260    -0.0993500
  H        2.2027970    -0.6058810     1.3632980
  H        0.9746330    -0.2154440    -1.4448770
  H       -2.3344480     1.2448060     1.2091660
  H       -1.6005480     2.1700530    -0.1223020
  H       -3.1779120     1.3727550    -0.3453210
  H        2.8243150     1.6377400     0.4218030
  H        3.3966440     0.8648080    -1.0620310
  H        4.2355510     0.5661250     0.4665360
  H       -1.9269720    -1.8751040    -0.2580250
units angstrom
no_reorient  #important for SAPT in psi4, default
symmetry c1  #important for SAPT in psi4, default
}

set PROPERTIES_ORIGIN ["COM"]
properties('MP2/aug-cc-pvtz', properties = ['dipole'])
--------------------------------------------------------------------------

    Molecular point group: c1
  Charge       = 0
  Multiplicity = 1
  Basis Set: AUG-CC-PVTZ
    Blend: AUG-CC-PVTZ
  Basis Set: (AUG-CC-PVTZ AUX)
    Blend: AUG-CC-PVTZ-JKFIT

    Orbital Energies [Eh]
    ---------------------

    Doubly Occupied:

       1A    -20.557344     2A    -11.283764     3A    -11.238001
       4A    -11.230877     5A    -11.226328     6A    -11.219610
       7A    -11.210261     8A     -1.367319     9A     -1.094029
      10A     -1.038379    11A     -0.978258    12A     -0.874012
      13A     -0.806260    14A     -0.759215    15A     -0.699678
      16A     -0.654369    17A     -0.611611    18A     -0.592515
      19A     -0.588189    20A     -0.540745    21A     -0.537559
      22A     -0.536277    23A     -0.522703    24A     -0.511576
      25A     -0.487476    26A     -0.469126    27A     -0.421947
      28A     -0.357932

  @DF-RHF Final Energy:  -309.14462088314895

   => Energetics <=

    Nuclear Repulsion Energy =            299.6315760869393330
    One-Electron Energy =               -1012.7216743495559967
    Two-Electron Energy =                 403.9454773794677749
    Total Energy =                       -309.1446208831489457
  Basis Set: (AUG-CC-PVTZ AUX)
    Blend: AUG-CC-PVTZ-RI
    Molecular point group: c1

    Geometry (in Angstrom), charge = 0, multiplicity = 1:

       Center              X                  Y                   Z               Mass
    ------------   -----------------  -----------------  -----------------  -----------------
         O           -2.387148582580    -1.052252902864    -0.032822409697    15.994914619570
         C           -1.529883682580     0.025621897136    -0.287428109697    12.000000000000
         C           -0.168274582580    -0.176302902864     0.299830590303    12.000000000000
         C            2.333035417420    -0.469414902864     0.274944590303    12.000000000000
         C            0.990590417420    -0.288124902864    -0.363430409697    12.000000000000
         C           -2.191416582580     1.288018097136     0.117491590303    12.000000000000
         C            3.257169417420     0.719338097136     0.003938590303    12.000000000000
         H           -1.352522582580     0.079153097136    -1.449736409697     1.007825032230
         H           -0.242649582580    -0.241925602864     1.386791890303     1.007825032230
         H            2.802209417420    -1.384681902864    -0.107847409697     1.007825032230
         H            2.207328417420    -0.605836902864     1.354800590303     1.007825032230
         H            0.979164417420    -0.215399902864    -1.453374409697     1.007825032230
         H           -2.329916582580     1.244850097136     1.200668590303     1.007825032230
         H           -1.596016582580     2.170097097136    -0.130799409697     1.007825032230
         H           -3.173380582580     1.372799097136    -0.353818409697     1.007825032230
         H            2.828846417420     1.637784097136     0.413305590303     1.007825032230
         H            3.401175417420     0.864852097136    -1.070528409697     1.007825032230
         H            4.240082417420     0.566169097136     0.458038590303     1.007825032230
         H           -1.922440582580    -1.875059902864    -0.266522409697     1.007825032230

  Basis Set: AUG-CC-PVTZ
    Blend: AUG-CC-PVTZ
  Basis Set: (AUG-CC-PVTZ AUX)
    Blend: AUG-CC-PVTZ-JKFIT
	 Reference Energy          =    -309.1446208831489457 [Eh]
	 Singles Energy            =      -0.0000000000000000 [Eh]
	 Same-Spin Energy          =      -0.3170035727962328 [Eh]
	 Opposite-Spin Energy      =      -1.1025193187880613 [Eh]
	 Correlation Energy        =      -1.4195228915842941 [Eh]
	 Total Energy              =    -310.5641437747332247 [Eh]

	 ================> DF-SCS-MP2 Energies <==================
	-----------------------------------------------------------
	 SCS Same-Spin Scale       =       0.3333333333333333 [-]
	 SCS Opposite-Spin Scale   =       1.2000000000000000 [-]
	 SCS Same-Spin Energy      =      -0.1056678575987443 [Eh]
	 SCS Opposite-Spin Energy  =      -1.3230231825456735 [Eh]
	 SCS Correlation Energy    =      -1.4286910401444177 [Eh]
	 SCS Total Energy          =    -310.5733119232933745 [Eh]
	-----------------------------------------------------------

  Dipole Moment: [D]
     X:     1.8236      Y:    -0.0457      Z:    -0.4391     Total:     1.8763

*** Psi4 exiting successfully. Buy a developer a beer!
