                               Psi4 1.3.2 release

  ==> Input File <==

--------------------------------------------------------------------------
#psi4
#
memory 32 gb

molecule  {
0 1
  O       -2.3916800    -1.0522970    -0.0243250
  C       -1.5013820     0.0265210    -0.3499700
  C       -0.1786608    -0.1763884     0.3200017
  C        2.3285040    -0.4694590     0.2834420
  C        0.9860590    -0.2881690    -0.3549330
  C       -2.1959480     1.2879740     0.1259890
  C        3.2526380     0.7192940     0.0124360
  H       -1.3665237     0.0803277    -1.4423903
  H       -0.1904860    -0.2488370     1.3972520
  H        2.7976780    -1.3847260    -0.0993500
  H        2.2027970    -0.6058810     1.3632980
  H        0.9746330    -0.2154440    -1.4448770
  H       -2.3344480     1.2448060     1.2091660
  H       -1.6005480     2.1700530    -0.1223020
  H       -3.1779120     1.3727550    -0.3453210
  H        2.8243150     1.6377400     0.4218030
  H        3.3966440     0.8648080    -1.0620310
  H        4.2355510     0.5661250     0.4665360
  H       -1.9269720    -1.8751040    -0.2580250
units angstrom
no_reorient  #important for SAPT in psi4, default
symmetry c1  #important for SAPT in psi4, default
}

set PROPERTIES_ORIGIN ["COM"]
properties('MP2/aug-cc-pvtz', properties = ['dipole'])
--------------------------------------------------------------------------

    Molecular point group: c1
  Charge       = 0
  Multiplicity = 1
  Basis Set: AUG-CC-PVTZ
    Blend: AUG-CC-PVTZ
  Basis Set: (AUG-CC-PVTZ AUX)
    Blend: AUG-CC-PVTZ-JKFIT

    Orbital Energies [Eh]
    ---------------------

    Doubly Occupied:

       1A    -20.553160     2A    -11.281018     3A    -11.237782
       4A    -11.230551     5A    -11.226915     6A    -11.219589
       7A    -11.210464     8A     -1.352654     9A     -1.093285
      10A     -1.034967    11A     -0.973517    12A     -0.873304
      13A     -0.806546    14A     -0.762744    15A     -0.692283
      16A     -0.654072    17A     -0.610045    18A     -0.595821
      19A     -0.578103    20A     -0.540066    21A     -0.535889
      22A     -0.527745    23A     -0.522101    24A     -0.510231
      25A     -0.487409    26A     -0.470243    27A     -0.441741
      28A     -0.354140

  @DF-RHF Final Energy:  -309.15118147087264

   => Energetics <=

    Nuclear Repulsion Energy =            299.0417558933234545
    One-Electron Energy =               -1011.6331072259650909
    Two-Electron Energy =                 403.4401698617689362
    Total Energy =                       -309.1511814708726433
  Basis Set: (AUG-CC-PVTZ AUX)
    Blend: AUG-CC-PVTZ-RI
    Molecular point group: c1

    Geometry (in Angstrom), charge = 0, multiplicity = 1:

       Center              X                  Y                   Z               Mass
    ------------   -----------------  -----------------  -----------------  -----------------
         O           -2.390882610598    -1.052304145348    -0.025713029386    15.994914619570
         C           -1.500584610598     0.026513854652    -0.351358029386    12.000000000000
         C           -0.177863410598    -0.176395545348     0.318613670614    12.000000000000
         C            2.329301389402    -0.469466145348     0.282053970614    12.000000000000
         C            0.986856389402    -0.288176145348    -0.356321029386    12.000000000000
         C           -2.195150610598     1.287966854652     0.124600970614    12.000000000000
         C            3.253435389402     0.719286854652     0.011047970614    12.000000000000
         H           -1.365726310598     0.080320554652    -1.443778329386     1.007825032230
         H           -0.189688610598    -0.248844145348     1.395863970614     1.007825032230
         H            2.798475389402    -1.384733145348    -0.100738029386     1.007825032230
         H            2.203594389402    -0.605888145348     1.361909970614     1.007825032230
         H            0.975430389402    -0.215451145348    -1.446265029386     1.007825032230
         H           -2.333650610598     1.244798854652     1.207777970614     1.007825032230
         H           -1.599750610598     2.170045854652    -0.123690029386     1.007825032230
         H           -3.177114610598     1.372747854652    -0.346709029386     1.007825032230
         H            2.825112389402     1.637732854652     0.420414970614     1.007825032230
         H            3.397441389402     0.864800854652    -1.063419029386     1.007825032230
         H            4.236348389402     0.566117854652     0.465147970614     1.007825032230
         H           -1.926174610598    -1.875111145348    -0.259413029386     1.007825032230

  Basis Set: AUG-CC-PVTZ
    Blend: AUG-CC-PVTZ
  Basis Set: (AUG-CC-PVTZ AUX)
    Blend: AUG-CC-PVTZ-JKFIT
	 Reference Energy          =    -309.1511814708726433 [Eh]
	 Singles Energy            =      -0.0000000000000000 [Eh]
	 Same-Spin Energy          =      -0.3167943062378131 [Eh]
	 Opposite-Spin Energy      =      -1.1026675647817263 [Eh]
	 Correlation Energy        =      -1.4194618710195395 [Eh]
	 Total Energy              =    -310.5706433418922074 [Eh]

	 ================> DF-SCS-MP2 Energies <==================
	-----------------------------------------------------------
	 SCS Same-Spin Scale       =       0.3333333333333333 [-]
	 SCS Opposite-Spin Scale   =       1.2000000000000000 [-]
	 SCS Same-Spin Energy      =      -0.1055981020792710 [Eh]
	 SCS Opposite-Spin Energy  =      -1.3232010777380716 [Eh]
	 SCS Correlation Energy    =      -1.4287991798173427 [Eh]
	 SCS Total Energy          =    -310.5799806506900040 [Eh]
	-----------------------------------------------------------

  Dipole Moment: [D]
     X:     1.9164      Y:     0.0087      Z:    -0.5511     Total:     1.9941

*** Psi4 exiting successfully. Buy a developer a beer!
