                               Psi4 1.3.2 release

  ==> Input File <==

--------------------------------------------------------------------------
#psi4
#
memory 32 gb

molecule  {
0 1
  O       -2.3916800    -1.0522970    -0.0243250
  C       -1.5013820     0.0265210    -0.3499700
  C       -0.1728060    -0.1763470     0.3083280
  C        2.3285040    -0.4694590     0.2834420
  C        0.8995714    -0.2798236    -0.3054330
  C       -2.1959480     1.2879740     0.1259890
  C        3.2526380     0.7192940     0.0124360
  H       -1.3570540     0.0791090    -1.4412390
  H       -0.1904860    -0.2488370     1.3972520
  H        2.7976780    -1.3847260    -0.0993500
  H        2.2027970    -0.6058810     1.3632980
  H        0.9746330    -0.2154440    -1.4448770
  H       -2.3344480     1.2448060     1.2091660
  H       -1.6005480     2.1700530    -0.1223020
  H       -3.1779120     1.3727550    -0.3453210
  H        2.8243150     1.6377400     0.4218030
  H        3.3966440     0.8648080    -1.0620310
  H        4.2355510     0.5661250     0.4665360
  H       -1.9269720    -1.8751040    -0.2580250
units angstrom
no_reorient  #important for SAPT in psi4, default
symmetry c1  #important for SAPT in psi4, default
}

set PROPERTIES_ORIGIN ["COM"]
properties('MP2/aug-cc-pvtz', properties = ['dipole'])
--------------------------------------------------------------------------

    Molecular point group: c1
  Charge       = 0
  Multiplicity = 1
  Basis Set: AUG-CC-PVTZ
    Blend: AUG-CC-PVTZ
  Basis Set: (AUG-CC-PVTZ AUX)
    Blend: AUG-CC-PVTZ-JKFIT

    Orbital Energies [Eh]
    ---------------------

    Doubly Occupied:

       1A    -20.554099     2A    -11.280777     3A    -11.232924
       4A    -11.227662     5A    -11.219547     6A    -11.211370
       7A    -11.210899     8A     -1.353357     9A     -1.104922
      10A     -1.032522    11A     -0.985274    12A     -0.867164
      13A     -0.812122    14A     -0.751723    15A     -0.694167
      16A     -0.654481    17A     -0.611938    18A     -0.593578
      19A     -0.579842    20A     -0.541631    21A     -0.533889
      22A     -0.527719    23A     -0.520301    24A     -0.508610
      25A     -0.487260    26A     -0.459716    27A     -0.433205
      28A     -0.383409

  @DF-RHF Final Energy:  -309.13890314238677

   => Energetics <=

    Nuclear Repulsion Energy =            300.1016072417039595
    One-Electron Energy =               -1013.7328015003799919
    Two-Electron Energy =                 404.4922911162892660
    Total Energy =                       -309.1389031423867664
  Basis Set: (AUG-CC-PVTZ AUX)
    Blend: AUG-CC-PVTZ-RI
    Molecular point group: c1

    Geometry (in Angstrom), charge = 0, multiplicity = 1:

       Center              X                  Y                   Z               Mass
    ------------   -----------------  -----------------  -----------------  -----------------
         O           -2.381310613975    -1.053297396828    -0.030259750305    15.994914619570
         C           -1.491012613975     0.025520603172    -0.355904750305    12.000000000000
         C           -0.162436613975    -0.177347396828     0.302393249695    12.000000000000
         C            2.338873386025    -0.470459396828     0.277507249695    12.000000000000
         C            0.909940786025    -0.280823996828    -0.311367750305    12.000000000000
         C           -2.185578613975     1.286973603172     0.120054249695    12.000000000000
         C            3.263007386025     0.718293603172     0.006501249695    12.000000000000
         H           -1.346684613975     0.078108603172    -1.447173750305     1.007825032230
         H           -0.180116613975    -0.249837396828     1.391317249695     1.007825032230
         H            2.808047386025    -1.385726396828    -0.105284750305     1.007825032230
         H            2.213166386025    -0.606881396828     1.357363249695     1.007825032230
         H            0.985002386025    -0.216444396828    -1.450811750305     1.007825032230
         H           -2.324078613975     1.243805603172     1.203231249695     1.007825032230
         H           -1.590178613975     2.169052603172    -0.128236750305     1.007825032230
         H           -3.167542613975     1.371754603172    -0.351255750305     1.007825032230
         H            2.834684386025     1.636739603172     0.415868249695     1.007825032230
         H            3.407013386025     0.863807603172    -1.067965750305     1.007825032230
         H            4.245920386025     0.565124603172     0.460601249695     1.007825032230
         H           -1.916602613975    -1.876104396828    -0.263959750305     1.007825032230

  Basis Set: AUG-CC-PVTZ
    Blend: AUG-CC-PVTZ
  Basis Set: (AUG-CC-PVTZ AUX)
    Blend: AUG-CC-PVTZ-JKFIT
	 Reference Energy          =    -309.1389031423867664 [Eh]
	 Singles Energy            =      -0.0000000000000000 [Eh]
	 Same-Spin Energy          =      -0.3157698381924565 [Eh]
	 Opposite-Spin Energy      =      -1.1004652729848439 [Eh]
	 Correlation Energy        =      -1.4162351111773004 [Eh]
	 Total Energy              =    -310.5551382535640528 [Eh]

	 ================> DF-SCS-MP2 Energies <==================
	-----------------------------------------------------------
	 SCS Same-Spin Scale       =       0.3333333333333333 [-]
	 SCS Opposite-Spin Scale   =       1.2000000000000000 [-]
	 SCS Same-Spin Energy      =      -0.1052566127308188 [Eh]
	 SCS Opposite-Spin Energy  =      -1.3205583275818127 [Eh]
	 SCS Correlation Energy    =      -1.4258149403126315 [Eh]
	 SCS Total Energy          =    -310.5647180826994145 [Eh]
	-----------------------------------------------------------

  Dipole Moment: [D]
     X:     1.8537      Y:     0.0116      Z:    -0.5199     Total:     1.9252

*** Psi4 exiting successfully. Buy a developer a beer!
