                               Psi4 1.3.2 release

  ==> Input File <==

--------------------------------------------------------------------------
#psi4
#
memory 32 gb

molecule  {
0 1
  O       -2.3916800    -1.0522970    -0.0243250
  C       -1.5013820     0.0265210    -0.3499700
  C       -0.2054562    -0.1702358     0.2465408
  C        2.3601701    -0.4705429     0.2117290
  C        0.9860590    -0.2881690    -0.3549330
  C       -2.1959480     1.2879740     0.1259890
  C        3.2526380     0.7192940     0.0124360
  H       -1.3570540     0.0791090    -1.4412390
  H       -0.1904860    -0.2488370     1.3972520
  H        2.7976780    -1.3847260    -0.0993500
  H        2.2027970    -0.6058810     1.3632980
  H        0.9746330    -0.2154440    -1.4448770
  H       -2.3344480     1.2448060     1.2091660
  H       -1.6005480     2.1700530    -0.1223020
  H       -3.1779120     1.3727550    -0.3453210
  H        2.8243150     1.6377400     0.4218030
  H        3.3966440     0.8648080    -1.0620310
  H        4.2355510     0.5661250     0.4665360
  H       -1.9269720    -1.8751040    -0.2580250
units angstrom
no_reorient  #important for SAPT in psi4, default
symmetry c1  #important for SAPT in psi4, default
}

set PROPERTIES_ORIGIN ["COM"]
properties('MP2/aug-cc-pvtz', properties = ['dipole'])
--------------------------------------------------------------------------

    Molecular point group: c1
  Charge       = 0
  Multiplicity = 1
  Basis Set: AUG-CC-PVTZ
    Blend: AUG-CC-PVTZ
  Basis Set: (AUG-CC-PVTZ AUX)
    Blend: AUG-CC-PVTZ-JKFIT

    Orbital Energies [Eh]
    ---------------------

    Doubly Occupied:

       1A    -20.555114     2A    -11.279517     3A    -11.237944
       4A    -11.235453     5A    -11.231019     6A    -11.220265
       7A    -11.212164     8A     -1.355224     9A     -1.098409
      10A     -1.044251    11A     -0.977612    12A     -0.879842
      13A     -0.812522    14A     -0.751779    15A     -0.696920
      16A     -0.654769    17A     -0.621884    18A     -0.586955
      19A     -0.582350    20A     -0.547923    21A     -0.532006
      22A     -0.528931    23A     -0.524993    24A     -0.507180
      25A     -0.482880    26A     -0.460875    27A     -0.443815
      28A     -0.359467

  @DF-RHF Final Energy:  -309.13785516967465

   => Energetics <=

    Nuclear Repulsion Energy =            299.7170665596087247
    One-Electron Energy =               -1012.8657174776215015
    Two-Electron Energy =                 404.0107957483381256
    Total Energy =                       -309.1378551696746513
  Basis Set: (AUG-CC-PVTZ AUX)
    Blend: AUG-CC-PVTZ-RI
    Molecular point group: c1

    Geometry (in Angstrom), charge = 0, multiplicity = 1:

       Center              X                  Y                   Z               Mass
    ------------   -----------------  -----------------  -----------------  -----------------
         O           -2.391561929268    -1.052899578151    -0.008319212795    15.994914619570
         C           -1.501263929268     0.025918421849    -0.333964212795    12.000000000000
         C           -0.205338129268    -0.170838378151     0.262546587205    12.000000000000
         C            2.360288170732    -0.471145478151     0.227734787205    12.000000000000
         C            0.986177070732    -0.288771578151    -0.338927212795    12.000000000000
         C           -2.195829929268     1.287371421849     0.141994787205    12.000000000000
         C            3.252756070732     0.718691421849     0.028441787205    12.000000000000
         H           -1.356935929268     0.078506421849    -1.425233212795     1.007825032230
         H           -0.190367929268    -0.249439578151     1.413257787205     1.007825032230
         H            2.797796070732    -1.385328578151    -0.083344212795     1.007825032230
         H            2.202915070732    -0.606483578151     1.379303787205     1.007825032230
         H            0.974751070732    -0.216046578151    -1.428871212795     1.007825032230
         H           -2.334329929268     1.244203421849     1.225171787205     1.007825032230
         H           -1.600429929268     2.169450421849    -0.106296212795     1.007825032230
         H           -3.177793929268     1.372152421849    -0.329315212795     1.007825032230
         H            2.824433070732     1.637137421849     0.437808787205     1.007825032230
         H            3.396762070732     0.864205421849    -1.046025212795     1.007825032230
         H            4.235669070732     0.565522421849     0.482541787205     1.007825032230
         H           -1.926853929268    -1.875706578151    -0.242019212795     1.007825032230

  Basis Set: AUG-CC-PVTZ
    Blend: AUG-CC-PVTZ
  Basis Set: (AUG-CC-PVTZ AUX)
    Blend: AUG-CC-PVTZ-JKFIT
	 Reference Energy          =    -309.1378551696746513 [Eh]
	 Singles Energy            =      -0.0000000000000000 [Eh]
	 Same-Spin Energy          =      -0.3177835367438944 [Eh]
	 Opposite-Spin Energy      =      -1.1041571833440891 [Eh]
	 Correlation Energy        =      -1.4219407200879834 [Eh]
	 Total Energy              =    -310.5597958897626540 [Eh]

	 ================> DF-SCS-MP2 Energies <==================
	-----------------------------------------------------------
	 SCS Same-Spin Scale       =       0.3333333333333333 [-]
	 SCS Opposite-Spin Scale   =       1.2000000000000000 [-]
	 SCS Same-Spin Energy      =      -0.1059278455812981 [Eh]
	 SCS Opposite-Spin Energy  =      -1.3249886200129068 [Eh]
	 SCS Correlation Energy    =      -1.4309164655942050 [Eh]
	 SCS Total Energy          =    -310.5687716352688312 [Eh]
	-----------------------------------------------------------

  Dipole Moment: [D]
     X:     1.9371      Y:     0.0315      Z:    -0.6162     Total:     2.0330

*** Psi4 exiting successfully. Buy a developer a beer!
