                               Psi4 1.3.2 release

  ==> Input File <==

--------------------------------------------------------------------------
#psi4
#
memory 32 gb

molecule  {
0 1
  O       -2.3916800    -1.0522970    -0.0243250
  C       -1.5071430     0.0264024    -0.3382502
  C       -0.1728060    -0.1763470     0.3083280
  C        2.3285040    -0.4694590     0.2834420
  C        0.9860590    -0.2881690    -0.3549330
  C       -2.1959480     1.2879740     0.1259890
  C        3.2526380     0.7192940     0.0124360
  H       -1.3570540     0.0791090    -1.4412390
  H       -0.1999427    -0.2477057     1.3971321
  H        2.7976780    -1.3847260    -0.0993500
  H        2.2027970    -0.6058810     1.3632980
  H        0.9746330    -0.2154440    -1.4448770
  H       -2.3344480     1.2448060     1.2091660
  H       -1.6005480     2.1700530    -0.1223020
  H       -3.1779120     1.3727550    -0.3453210
  H        2.8243150     1.6377400     0.4218030
  H        3.3966440     0.8648080    -1.0620310
  H        4.2355510     0.5661250     0.4665360
  H       -1.9269720    -1.8751040    -0.2580250
units angstrom
no_reorient  #important for SAPT in psi4, default
symmetry c1  #important for SAPT in psi4, default
}

set PROPERTIES_ORIGIN ["COM"]
properties('MP2/aug-cc-pvtz', properties = ['dipole'])
--------------------------------------------------------------------------

    Molecular point group: c1
  Charge       = 0
  Multiplicity = 1
  Basis Set: AUG-CC-PVTZ
    Blend: AUG-CC-PVTZ
  Basis Set: (AUG-CC-PVTZ AUX)
    Blend: AUG-CC-PVTZ-JKFIT

    Orbital Energies [Eh]
    ---------------------

    Doubly Occupied:

       1A    -20.554228     2A    -11.281434     3A    -11.236430
       4A    -11.230647     5A    -11.226189     6A    -11.219606
       7A    -11.210569     8A     -1.355275     9A     -1.094461
      10A     -1.035454    11A     -0.975281    12A     -0.873353
      13A     -0.806989    14A     -0.760301    15A     -0.694265
      16A     -0.654118    17A     -0.610899    18A     -0.594170
      19A     -0.579901    20A     -0.538915    21A     -0.536308
      22A     -0.529357    23A     -0.521805    24A     -0.510579
      25A     -0.487354    26A     -0.470926    27A     -0.438275
      28A     -0.356908

  @DF-RHF Final Energy:  -309.15168370714184

   => Energetics <=

    Nuclear Repulsion Energy =            299.2283032652285328
    One-Electron Energy =               -1011.9919821687028616
    Two-Electron Energy =                 403.6119951963324866
    Total Energy =                       -309.1516837071418422
  Basis Set: (AUG-CC-PVTZ AUX)
    Blend: AUG-CC-PVTZ-RI
    Molecular point group: c1

    Geometry (in Angstrom), charge = 0, multiplicity = 1:

       Center              X                  Y                   Z               Mass
    ------------   -----------------  -----------------  -----------------  -----------------
         O           -2.390893987511    -1.052294009511    -0.025728941960    15.994914619570
         C           -1.506356987511     0.026405390489    -0.339654141960    12.000000000000
         C           -0.172019987511    -0.176344009511     0.306924058040    12.000000000000
         C            2.329290012489    -0.469456009511     0.282038058040    12.000000000000
         C            0.986845012489    -0.288166009511    -0.356336941960    12.000000000000
         C           -2.195161987511     1.287976990489     0.124585058040    12.000000000000
         C            3.253424012489     0.719296990489     0.011032058040    12.000000000000
         H           -1.356267987511     0.079111990489    -1.442642941960     1.007825032230
         H           -0.199156687511    -0.247702709511     1.395728158040     1.007825032230
         H            2.798464012489    -1.384723009511    -0.100753941960     1.007825032230
         H            2.203583012489    -0.605878009511     1.361894058040     1.007825032230
         H            0.975419012489    -0.215441009511    -1.446280941960     1.007825032230
         H           -2.333661987511     1.244808990489     1.207762058040     1.007825032230
         H           -1.599761987511     2.170055990489    -0.123705941960     1.007825032230
         H           -3.177125987511     1.372757990489    -0.346724941960     1.007825032230
         H            2.825101012489     1.637742990489     0.420399058040     1.007825032230
         H            3.397430012489     0.864810990489    -1.063434941960     1.007825032230
         H            4.236337012489     0.566127990489     0.465132058040     1.007825032230
         H           -1.926185987511    -1.875101009511    -0.259428941960     1.007825032230

  Basis Set: AUG-CC-PVTZ
    Blend: AUG-CC-PVTZ
  Basis Set: (AUG-CC-PVTZ AUX)
    Blend: AUG-CC-PVTZ-JKFIT
	 Reference Energy          =    -309.1516837071418422 [Eh]
	 Singles Energy            =      -0.0000000000000000 [Eh]
	 Same-Spin Energy          =      -0.3167329248630492 [Eh]
	 Opposite-Spin Energy      =      -1.1023770213340298 [Eh]
	 Correlation Energy        =      -1.4191099461970791 [Eh]
	 Total Energy              =    -310.5707936533389102 [Eh]

	 ================> DF-SCS-MP2 Energies <==================
	-----------------------------------------------------------
	 SCS Same-Spin Scale       =       0.3333333333333333 [-]
	 SCS Opposite-Spin Scale   =       1.2000000000000000 [-]
	 SCS Same-Spin Energy      =      -0.1055776416210164 [Eh]
	 SCS Opposite-Spin Energy  =      -1.3228524256008358 [Eh]
	 SCS Correlation Energy    =      -1.4284300672218522 [Eh]
	 SCS Total Energy          =    -310.5801137743636673 [Eh]
	-----------------------------------------------------------

  Dipole Moment: [D]
     X:     1.8988      Y:    -0.0011      Z:    -0.5368     Total:     1.9732

*** Psi4 exiting successfully. Buy a developer a beer!
