                               Psi4 1.4a3.dev225

  ==> Input File <==

--------------------------------------------------------------------------
#psi4
#
memory 32 gb

molecule  {
0 1
  O        2.4733480    -1.0180220    -0.0592030
  C        1.5612870     0.0272190     0.3186860
  C        0.1795433    -0.1968416    -0.3430391
  C       -2.2699720    -0.5538550    -0.2568310
  C       -0.9183080    -0.3574540     0.3612590
  C        2.2155680     1.3228410    -0.1266610
  C       -3.2245640     0.5955150     0.0801580
  H        1.4362950     0.0398890     1.4137890
  H        0.2208170    -0.2229080    -1.4128920
  H       -2.7032570    -1.4976940     0.0989920
  H       -2.1635450    -0.6441890    -1.3439560
  H       -0.8861850    -0.3229140     1.4529890
  H        2.3348110     1.3198720    -1.2134080
  H        1.6025990     2.1805020     0.1626330
  H        3.2041590     1.4168830     0.3297970
  H       -2.8327200     1.5423190    -0.3012060
  H       -3.3500700     0.6943310     1.1626160
  H       -4.2121190     0.4296020    -0.3601990
  H        2.0333780    -1.8594800     0.1548220
units angstrom
no_reorient  #important for SAPT in psi4, default
symmetry c1  #important for SAPT in psi4, default
}

set PROPERTIES_ORIGIN ["COM"]
properties('MP2/aug-cc-pvtz', properties = ['dipole'])
--------------------------------------------------------------------------

    Molecular point group: c1
  Charge       = 0
  Multiplicity = 1
  Basis Set: AUG-CC-PVTZ
    Blend: AUG-CC-PVTZ
  Basis Set: (AUG-CC-PVTZ AUX)
    Blend: AUG-CC-PVTZ-JKFIT

    Orbital Energies [Eh]
    ---------------------

    Doubly Occupied:

       1A    -20.553711     2A    -11.283726     3A    -11.232226
       4A    -11.229236     5A    -11.223648     6A    -11.219177
       7A    -11.210784     8A     -1.351179     9A     -1.095947
      10A     -1.029815    11A     -0.976874    12A     -0.868913
      13A     -0.805817    14A     -0.762856    15A     -0.690527
      16A     -0.652822    17A     -0.610773    18A     -0.595198
      19A     -0.575887    20A     -0.545207    21A     -0.535155
      22A     -0.527172    23A     -0.521024    24A     -0.510732
      25A     -0.488302    26A     -0.467891    27A     -0.432717
      28A     -0.363259

  @DF-RHF Final Energy:  -309.15058210570180

   => Energetics <=

    Nuclear Repulsion Energy =            298.6443507293543007
    One-Electron Energy =               -1010.8687109054740176
    Two-Electron Energy =                 403.0737780704179158
    Total Energy =                       -309.1505821057018011
  Basis Set: (AUG-CC-PVTZ AUX)
    Blend: AUG-CC-PVTZ-RI
    Molecular point group: c1

    Geometry (in Angstrom), charge = 0, multiplicity = 1:

       Center              X                  Y                   Z               Mass
    ------------   -----------------  -----------------  -----------------  -----------------
         O            2.426127857686    -0.986711831079    -0.055216735346    15.994914619570
         C            1.514066857686     0.058529168921     0.322672264654    12.000000000000
         C            0.132323157686    -0.165531431079    -0.339052835346    12.000000000000
         C           -2.317192142314    -0.522544831079    -0.252844735346    12.000000000000
         C           -0.965528142314    -0.326143831079     0.365245264654    12.000000000000
         C            2.168347857686     1.354151168921    -0.122674735346    12.000000000000
         C           -3.271784142314     0.626825168921     0.084144264654    12.000000000000
         H            1.389074857686     0.071199168921     1.417775264654     1.007825032230
         H            0.173596857686    -0.191597831079    -1.408905735346     1.007825032230
         H           -2.750477142314    -1.466383831079     0.102978264654     1.007825032230
         H           -2.210765142314    -0.612878831079    -1.339969735346     1.007825032230
         H           -0.933405142314    -0.291603831079     1.456975264654     1.007825032230
         H            2.287590857686     1.351182168921    -1.209421735346     1.007825032230
         H            1.555378857686     2.211812168921     0.166619264654     1.007825032230
         H            3.156938857686     1.448193168921     0.333783264654     1.007825032230
         H           -2.879940142314     1.573629168921    -0.297219735346     1.007825032230
         H           -3.397290142314     0.725641168921     1.166602264654     1.007825032230
         H           -4.259339142314     0.460912168921    -0.356212735346     1.007825032230
         H            1.986157857686    -1.828169831079     0.158808264654     1.007825032230

  Basis Set: AUG-CC-PVTZ
    Blend: AUG-CC-PVTZ
  Basis Set: (AUG-CC-PVTZ AUX)
    Blend: AUG-CC-PVTZ-JKFIT
	 Reference Energy          =    -309.1505821057018011 [Eh]
	 Singles Energy            =      -0.0000000000000000 [Eh]
	 Same-Spin Energy          =      -0.3160489502250131 [Eh]
	 Opposite-Spin Energy      =      -1.1015948640586513 [Eh]
	 Correlation Energy        =      -1.4176438142836645 [Eh]
	 Total Energy              =    -310.5682259199854798 [Eh]

	 ================> DF-SCS-MP2 Energies <==================
	-----------------------------------------------------------
	 SCS Same-Spin Scale       =       0.3333333333333333 [-]
	 SCS Opposite-Spin Scale   =       1.2000000000000000 [-]
	 SCS Same-Spin Energy      =      -0.1053496500750044 [Eh]
	 SCS Opposite-Spin Energy  =      -1.3219138368703816 [Eh]
	 SCS Correlation Energy    =      -1.4272634869453860 [Eh]
	 SCS Total Energy          =    -310.5778455926471793 [Eh]
	-----------------------------------------------------------

  Dipole Moment: [D]
     X:    -1.8760      Y:    -0.0702      Z:     0.5868     Total:     1.9668

*** Psi4 exiting successfully. Buy a developer a beer!
