                               Psi4 1.4a3.dev225

  ==> Input File <==

--------------------------------------------------------------------------
#psi4
#
memory 32 gb

molecule  {
0 1
  O        2.4733480    -1.0180220    -0.0592030
  C        1.5612870     0.0272190     0.3186860
  C        0.2241640    -0.1896060    -0.3216700
  C       -2.2699720    -0.5538550    -0.2568310
  C       -0.9183080    -0.3574540     0.3612590
  C        2.2155680     1.3228410    -0.1266610
  C       -3.2245640     0.5955150     0.0801580
  H        1.4385629     0.0396591     1.3939193
  H        0.2208170    -0.2229080    -1.4128920
  H       -2.7032570    -1.4976940     0.0989920
  H       -2.1635450    -0.6441890    -1.3439560
  H       -0.8861850    -0.3229140     1.4529890
  H        2.3348110     1.3198720    -1.2134080
  H        1.6025990     2.1805020     0.1626330
  H        3.2041590     1.4168830     0.3297970
  H       -2.8327200     1.5423190    -0.3012060
  H       -3.3500700     0.6943310     1.1626160
  H       -4.2121190     0.4296020    -0.3601990
  H        2.0333780    -1.8594800     0.1548220
units angstrom
no_reorient  #important for SAPT in psi4, default
symmetry c1  #important for SAPT in psi4, default
}

set PROPERTIES_ORIGIN ["COM"]
properties('MP2/aug-cc-pvtz', properties = ['dipole'])
--------------------------------------------------------------------------

    Molecular point group: c1
  Charge       = 0
  Multiplicity = 1
  Basis Set: AUG-CC-PVTZ
    Blend: AUG-CC-PVTZ
  Basis Set: (AUG-CC-PVTZ AUX)
    Blend: AUG-CC-PVTZ-JKFIT

    Orbital Energies [Eh]
    ---------------------

    Doubly Occupied:

       1A    -20.553275     2A    -11.279169     3A    -11.236723
       4A    -11.231091     5A    -11.226725     6A    -11.219978
       7A    -11.210935     8A     -1.352058     9A     -1.093991
      10A     -1.034835    11A     -0.974340    12A     -0.873347
      13A     -0.808511    14A     -0.761490    15A     -0.692972
      16A     -0.654495    17A     -0.610366    18A     -0.594712
      19A     -0.577726    20A     -0.538741    21A     -0.535918
      22A     -0.527765    23A     -0.521537    24A     -0.510287
      25A     -0.487480    26A     -0.471885    27A     -0.441542
      28A     -0.356471

  @DF-RHF Final Energy:  -309.15186911128518

   => Energetics <=

    Nuclear Repulsion Energy =            298.9308665408462957
    One-Electron Energy =               -1011.4087438489694932
    Two-Electron Energy =                 403.3260081968380177
    Total Energy =                       -309.1518691112851798
  Basis Set: (AUG-CC-PVTZ AUX)
    Blend: AUG-CC-PVTZ-RI
    Molecular point group: c1

    Geometry (in Angstrom), charge = 0, multiplicity = 1:

       Center              X                  Y                   Z               Mass
    ------------   -----------------  -----------------  -----------------  -----------------
         O            2.420755288870    -0.987577017674    -0.057578677776    15.994914619570
         C            1.508694288870     0.057663982326     0.320310322224    12.000000000000
         C            0.171571288870    -0.159161017674    -0.320045677776    12.000000000000
         C           -2.322564711130    -0.523410017674    -0.255206677776    12.000000000000
         C           -0.970900711130    -0.327009017674     0.362883322224    12.000000000000
         C            2.162975288870     1.353285982326    -0.125036677776    12.000000000000
         C           -3.277156711130     0.625959982326     0.081782322224    12.000000000000
         H            1.385970188870     0.070104082326     1.395543622224     1.007825032230
         H            0.168224288870    -0.192463017674    -1.411267677776     1.007825032230
         H           -2.755849711130    -1.467249017674     0.100616322224     1.007825032230
         H           -2.216137711130    -0.613744017674    -1.342331677776     1.007825032230
         H           -0.938777711130    -0.292469017674     1.454613322224     1.007825032230
         H            2.282218288870     1.350316982326    -1.211783677776     1.007825032230
         H            1.550006288870     2.210946982326     0.164257322224     1.007825032230
         H            3.151566288870     1.447327982326     0.331421322224     1.007825032230
         H           -2.885312711130     1.572763982326    -0.299581677776     1.007825032230
         H           -3.402662711130     0.724775982326     1.164240322224     1.007825032230
         H           -4.264711711130     0.460046982326    -0.358574677776     1.007825032230
         H            1.980785288870    -1.829035017674     0.156446322224     1.007825032230

  Basis Set: AUG-CC-PVTZ
    Blend: AUG-CC-PVTZ
  Basis Set: (AUG-CC-PVTZ AUX)
    Blend: AUG-CC-PVTZ-JKFIT
	 Reference Energy          =    -309.1518691112851798 [Eh]
	 Singles Energy            =      -0.0000000000000000 [Eh]
	 Same-Spin Energy          =      -0.3166182816403788 [Eh]
	 Opposite-Spin Energy      =      -1.1023323762267738 [Eh]
	 Correlation Energy        =      -1.4189506578671527 [Eh]
	 Total Energy              =    -310.5708197691523083 [Eh]

	 ================> DF-SCS-MP2 Energies <==================
	-----------------------------------------------------------
	 SCS Same-Spin Scale       =       0.3333333333333333 [-]
	 SCS Opposite-Spin Scale   =       1.2000000000000000 [-]
	 SCS Same-Spin Energy      =      -0.1055394272134596 [Eh]
	 SCS Opposite-Spin Energy  =      -1.3227988514721285 [Eh]
	 SCS Correlation Energy    =      -1.4283382786855880 [Eh]
	 SCS Total Energy          =    -310.5802073899707807 [Eh]
	-----------------------------------------------------------

  Dipole Moment: [D]
     X:    -1.9116      Y:    -0.0539      Z:     0.6049     Total:     2.0057

*** Psi4 exiting successfully. Buy a developer a beer!
