                               Psi4 1.4a3.dev225

  ==> Input File <==

--------------------------------------------------------------------------
#psi4
#
memory 32 gb

molecule  {
0 1
  O        2.4733480    -1.0180220    -0.0592030
  C        1.5612870     0.0272190     0.3186860
  C        0.2241640    -0.1896060    -0.3216700
  C       -2.2699720    -0.5538550    -0.2568310
  C       -0.9012761    -0.3549517     0.3510780
  C        2.2155680     1.3228410    -0.1266610
  C       -3.2245640     0.5955150     0.0801580
  H        1.4362950     0.0398890     1.4137890
  H        0.2208170    -0.2229080    -1.4128920
  H       -2.7032570    -1.4976940     0.0989920
  H       -2.1635450    -0.6441890    -1.3439560
  H       -0.8861850    -0.3229140     1.4529890
  H        2.3348110     1.3198720    -1.2134080
  H        1.6025990     2.1805020     0.1626330
  H        3.2041590     1.4168830     0.3297970
  H       -2.8327200     1.5423190    -0.3012060
  H       -3.3500700     0.6943310     1.1626160
  H       -4.2121190     0.4296020    -0.3601990
  H        2.0333780    -1.8594800     0.1548220
units angstrom
no_reorient  #important for SAPT in psi4, default
symmetry c1  #important for SAPT in psi4, default
}

set PROPERTIES_ORIGIN ["COM"]
properties('MP2/aug-cc-pvtz', properties = ['dipole'])
--------------------------------------------------------------------------

    Molecular point group: c1
  Charge       = 0
  Multiplicity = 1
  Basis Set: AUG-CC-PVTZ
    Blend: AUG-CC-PVTZ
  Basis Set: (AUG-CC-PVTZ AUX)
    Blend: AUG-CC-PVTZ-JKFIT

    Orbital Energies [Eh]
    ---------------------

    Doubly Occupied:

       1A    -20.553732     2A    -11.281609     3A    -11.235094
       4A    -11.231501     5A    -11.224097     6A    -11.219947
       7A    -11.211158     8A     -1.352344     9A     -1.095129
      10A     -1.034064    11A     -0.976498    12A     -0.871964
      13A     -0.808203    14A     -0.758809    15A     -0.692612
      16A     -0.653870    17A     -0.610392    18A     -0.594087
      19A     -0.578189    20A     -0.539299    21A     -0.535520
      22A     -0.527753    23A     -0.521307    24A     -0.509833
      25A     -0.486909    26A     -0.469355    27A     -0.440095
      28A     -0.361608

  @DF-RHF Final Energy:  -309.15204098302348

   => Energetics <=

    Nuclear Repulsion Energy =            299.0062550295170922
    One-Electron Energy =               -1011.5666365184712276
    Two-Electron Energy =                 403.4083405059306529
    Total Energy =                       -309.1520409830234826
  Basis Set: (AUG-CC-PVTZ AUX)
    Blend: AUG-CC-PVTZ-RI
    Molecular point group: c1

    Geometry (in Angstrom), charge = 0, multiplicity = 1:

       Center              X                  Y                   Z               Mass
    ------------   -----------------  -----------------  -----------------  -----------------
         O            2.418736110667    -0.987879342154    -0.056558115998    15.994914619570
         C            1.506675110667     0.057361657846     0.321330884002    12.000000000000
         C            0.169552110667    -0.159463342154    -0.319025115998    12.000000000000
         C           -2.324583889333    -0.523712342154    -0.254186115998    12.000000000000
         C           -0.955887989333    -0.324809042154     0.353722884002    12.000000000000
         C            2.160956110667     1.352983657846    -0.124016115998    12.000000000000
         C           -3.279175889333     0.625657657846     0.082802884002    12.000000000000
         H            1.381683110667     0.070031657846     1.416433884002     1.007825032230
         H            0.166205110667    -0.192765342154    -1.410247115998     1.007825032230
         H           -2.757868889333    -1.467551342154     0.101636884002     1.007825032230
         H           -2.218156889333    -0.614046342154    -1.341311115998     1.007825032230
         H           -0.940796889333    -0.292771342154     1.455633884002     1.007825032230
         H            2.280199110667     1.350014657846    -1.210763115998     1.007825032230
         H            1.547987110667     2.210644657846     0.165277884002     1.007825032230
         H            3.149547110667     1.447025657846     0.332441884002     1.007825032230
         H           -2.887331889333     1.572461657846    -0.298561115998     1.007825032230
         H           -3.404681889333     0.724473657846     1.165260884002     1.007825032230
         H           -4.266730889333     0.459744657846    -0.357554115998     1.007825032230
         H            1.978766110667    -1.829337342154     0.157466884002     1.007825032230

  Basis Set: AUG-CC-PVTZ
    Blend: AUG-CC-PVTZ
  Basis Set: (AUG-CC-PVTZ AUX)
    Blend: AUG-CC-PVTZ-JKFIT
	 Reference Energy          =    -309.1520409830234826 [Eh]
	 Singles Energy            =      -0.0000000000000000 [Eh]
	 Same-Spin Energy          =      -0.3163903445289853 [Eh]
	 Opposite-Spin Energy      =      -1.1019823217911622 [Eh]
	 Correlation Energy        =      -1.4183726663201475 [Eh]
	 Total Energy              =    -310.5704136493436067 [Eh]

	 ================> DF-SCS-MP2 Energies <==================
	-----------------------------------------------------------
	 SCS Same-Spin Scale       =       0.3333333333333333 [-]
	 SCS Opposite-Spin Scale   =       1.2000000000000000 [-]
	 SCS Same-Spin Energy      =      -0.1054634481763284 [Eh]
	 SCS Opposite-Spin Energy  =      -1.3223787861493945 [Eh]
	 SCS Correlation Energy    =      -1.4278422343257229 [Eh]
	 SCS Total Energy          =    -310.5798832173492201 [Eh]
	-----------------------------------------------------------

  Dipole Moment: [D]
     X:    -1.8961      Y:    -0.0557      Z:     0.5838     Total:     1.9847

*** Psi4 exiting successfully. Buy a developer a beer!
