                               Psi4 1.3.2 release

  ==> Input File <==

--------------------------------------------------------------------------
#psi4
#
memory 32 gb

molecule  {
0 1
  O       -2.3916800    -1.0522970    -0.0243250
  C       -1.5013820     0.0265210    -0.3499700
  C       -0.1728060    -0.1763470     0.3083280
  C        2.3285040    -0.4694590     0.2834420
  C        0.9860590    -0.2881690    -0.3549330
  C       -2.1959480     1.2879740     0.1259890
  C        3.2526380     0.7192940     0.0124360
  H       -1.3308608     0.0886529    -1.6392865
  H       -0.1904860    -0.2488370     1.3972520
  H        2.7976780    -1.3847260    -0.0993500
  H        2.2027970    -0.6058810     1.3632980
  H        0.9746330    -0.2154440    -1.4448770
  H       -2.3344480     1.2448060     1.2091660
  H       -1.6005480     2.1700530    -0.1223020
  H       -3.1779120     1.3727550    -0.3453210
  H        2.8243150     1.6377400     0.4218030
  H        3.3966440     0.8648080    -1.0620310
  H        4.2355510     0.5661250     0.4665360
  H       -1.9269720    -1.8751040    -0.2580250
units angstrom
no_reorient  #important for SAPT in psi4, default
symmetry c1  #important for SAPT in psi4, default
}

set PROPERTIES_ORIGIN ["COM"]
properties('MP2/aug-cc-pvtz', properties = ['dipole'])
--------------------------------------------------------------------------

    Molecular point group: c1
  Charge       = 0
  Multiplicity = 1
  Basis Set: AUG-CC-PVTZ
    Blend: AUG-CC-PVTZ
  Basis Set: (AUG-CC-PVTZ AUX)
    Blend: AUG-CC-PVTZ-JKFIT

    Orbital Energies [Eh]
    ---------------------

    Doubly Occupied:

       1A    -20.558474     2A    -11.304852     3A    -11.236950
       4A    -11.230975     5A    -11.228338     6A    -11.219912
       7A    -11.213255     8A     -1.356044     9A     -1.094458
      10A     -1.033173    11A     -0.975343    12A     -0.872888
      13A     -0.801645    14A     -0.753772    15A     -0.689491
      16A     -0.645381    17A     -0.611033    18A     -0.592114
      19A     -0.581363    20A     -0.539553    21A     -0.537085
      22A     -0.529017    23A     -0.522143    24A     -0.510654
      25A     -0.487725    26A     -0.467127    27A     -0.427579
      28A     -0.357495

  @DF-RHF Final Energy:  -309.13177866730587

   => Energetics <=

    Nuclear Repulsion Energy =            298.2654922895567893
    One-Electron Energy =               -1010.0388653612271810
    Two-Electron Energy =                 402.6415944043645823
    Total Energy =                       -309.1317786673058663
  Basis Set: (AUG-CC-PVTZ AUX)
    Blend: AUG-CC-PVTZ-RI
    Molecular point group: c1

    Geometry (in Angstrom), charge = 0, multiplicity = 1:

       Center              X                  Y                   Z               Mass
    ------------   -----------------  -----------------  -----------------  -----------------
         O           -2.391943663857    -1.052392937937    -0.022330820104    15.994914619570
         C           -1.501645663857     0.026425062063    -0.347975820104    12.000000000000
         C           -0.173069663857    -0.176442937937     0.310322179896    12.000000000000
         C            2.328240336143    -0.469554937937     0.285436179896    12.000000000000
         C            0.985795336143    -0.288264937937    -0.352938820104    12.000000000000
         C           -2.196211663857     1.287878062063     0.127983179896    12.000000000000
         C            3.252374336143     0.719198062063     0.014430179896    12.000000000000
         H           -1.331124463857     0.088556962063    -1.637292320104     1.007825032230
         H           -0.190749663857    -0.248932937937     1.399246179896     1.007825032230
         H            2.797414336143    -1.384821937937    -0.097355820104     1.007825032230
         H            2.202533336143    -0.605976937937     1.365292179896     1.007825032230
         H            0.974369336143    -0.215539937937    -1.442882820104     1.007825032230
         H           -2.334711663857     1.244710062063     1.211160179896     1.007825032230
         H           -1.600811663857     2.169957062063    -0.120307820104     1.007825032230
         H           -3.178175663857     1.372659062063    -0.343326820104     1.007825032230
         H            2.824051336143     1.637644062063     0.423797179896     1.007825032230
         H            3.396380336143     0.864712062063    -1.060036820104     1.007825032230
         H            4.235287336143     0.566029062063     0.468530179896     1.007825032230
         H           -1.927235663857    -1.875199937937    -0.256030820104     1.007825032230

  Basis Set: AUG-CC-PVTZ
    Blend: AUG-CC-PVTZ
  Basis Set: (AUG-CC-PVTZ AUX)
    Blend: AUG-CC-PVTZ-JKFIT
	 Reference Energy          =    -309.1317786673058663 [Eh]
	 Singles Energy            =      -0.0000000000000000 [Eh]
	 Same-Spin Energy          =      -0.3171811050611074 [Eh]
	 Opposite-Spin Energy      =      -1.1046028907822527 [Eh]
	 Correlation Energy        =      -1.4217839958433600 [Eh]
	 Total Energy              =    -310.5535626631492505 [Eh]

	 ================> DF-SCS-MP2 Energies <==================
	-----------------------------------------------------------
	 SCS Same-Spin Scale       =       0.3333333333333333 [-]
	 SCS Opposite-Spin Scale   =       1.2000000000000000 [-]
	 SCS Same-Spin Energy      =      -0.1057270350203691 [Eh]
	 SCS Opposite-Spin Energy  =      -1.3255234689387032 [Eh]
	 SCS Correlation Energy    =      -1.4312505039590724 [Eh]
	 SCS Total Energy          =    -310.5630291712649296 [Eh]
	-----------------------------------------------------------

  Dipole Moment: [D]
     X:     1.8749      Y:    -0.0376      Z:    -0.3376     Total:     1.9054

*** Psi4 exiting successfully. Buy a developer a beer!
