                               Psi4 1.3.2 release

  ==> Input File <==

--------------------------------------------------------------------------
#psi4
#
memory 32 gb

molecule  {
0 1
  O       -2.3916800    -1.0522970    -0.0243250
  C       -1.5538624     0.0745541    -0.3256417
  C       -0.1728060    -0.1763470     0.3083280
  C        2.3285040    -0.4694590     0.2834420
  C        0.9860590    -0.2881690    -0.3549330
  C       -2.1959480     1.2879740     0.1259890
  C        3.2526380     0.7192940     0.0124360
  H       -1.3570540     0.0791090    -1.4412390
  H       -0.1904860    -0.2488370     1.3972520
  H        2.7976780    -1.3847260    -0.0993500
  H        2.2027970    -0.6058810     1.3632980
  H        0.9746330    -0.2154440    -1.4448770
  H       -2.3344480     1.2448060     1.2091660
  H       -1.6005480     2.1700530    -0.1223020
  H       -3.1779120     1.3727550    -0.3453210
  H        2.8243150     1.6377400     0.4218030
  H        3.3966440     0.8648080    -1.0620310
  H        4.2355510     0.5661250     0.4665360
  H       -1.9677727    -1.9011140    -0.2420240
units angstrom
no_reorient  #important for SAPT in psi4, default
symmetry c1  #important for SAPT in psi4, default
}

set PROPERTIES_ORIGIN ["COM"]
properties('MP2/aug-cc-pvtz', properties = ['dipole'])
--------------------------------------------------------------------------

    Molecular point group: c1
  Charge       = 0
  Multiplicity = 1
  Basis Set: AUG-CC-PVTZ
    Blend: AUG-CC-PVTZ
  Basis Set: (AUG-CC-PVTZ AUX)
    Blend: AUG-CC-PVTZ-JKFIT

    Orbital Energies [Eh]
    ---------------------

    Doubly Occupied:

       1A    -20.550859     2A    -11.284987     3A    -11.234154
       4A    -11.229541     5A    -11.226734     6A    -11.218772
       7A    -11.210159     8A     -1.349567     9A     -1.091700
      10A     -1.042322    11A     -0.980721    12A     -0.869565
      13A     -0.805933    14A     -0.757295    15A     -0.695370
      16A     -0.651452    17A     -0.610743    18A     -0.593652
      19A     -0.581498    20A     -0.541637    21A     -0.536564
      22A     -0.534927    23A     -0.519594    24A     -0.510024
      25A     -0.486443    26A     -0.471162    27A     -0.427272
      28A     -0.355807

  @DF-RHF Final Energy:  -309.14543860513226

   => Energetics <=

    Nuclear Repulsion Energy =            298.9927984939063208
    One-Electron Energy =               -1011.5395600227207069
    Two-Electron Energy =                 403.4013229236821303
    Total Energy =                       -309.1454386051322558
  Basis Set: (AUG-CC-PVTZ AUX)
    Blend: AUG-CC-PVTZ-RI
    Molecular point group: c1

    Geometry (in Angstrom), charge = 0, multiplicity = 1:

       Center              X                  Y                   Z               Mass
    ------------   -----------------  -----------------  -----------------  -----------------
         O           -2.384977021986    -1.057793792064    -0.027402945659    15.994914619570
         C           -1.547159421986     0.069057307936    -0.328719645659    12.000000000000
         C           -0.166103021986    -0.181843792064     0.305250054341    12.000000000000
         C            2.335206978014    -0.474955792064     0.280364054341    12.000000000000
         C            0.992761978014    -0.293665792064    -0.358010945659    12.000000000000
         C           -2.189245021986     1.282477207936     0.122911054341    12.000000000000
         C            3.259340978014     0.713797207936     0.009358054341    12.000000000000
         H           -1.350351021986     0.073612207936    -1.444316945659     1.007825032230
         H           -0.183783021986    -0.254333792064     1.394174054341     1.007825032230
         H            2.804380978014    -1.390222792064    -0.102427945659     1.007825032230
         H            2.209499978014    -0.611377792064     1.360220054341     1.007825032230
         H            0.981335978014    -0.220940792064    -1.447954945659     1.007825032230
         H           -2.327745021986     1.239309207936     1.206088054341     1.007825032230
         H           -1.593845021986     2.164556207936    -0.125379945659     1.007825032230
         H           -3.171209021986     1.367258207936    -0.348398945659     1.007825032230
         H            2.831017978014     1.632243207936     0.418725054341     1.007825032230
         H            3.403346978014     0.859311207936    -1.065108945659     1.007825032230
         H            4.242253978014     0.560628207936     0.463458054341     1.007825032230
         H           -1.961069721986    -1.906610792064    -0.245101945659     1.007825032230

  Basis Set: AUG-CC-PVTZ
    Blend: AUG-CC-PVTZ
  Basis Set: (AUG-CC-PVTZ AUX)
    Blend: AUG-CC-PVTZ-JKFIT
	 Reference Energy          =    -309.1454386051322558 [Eh]
	 Singles Energy            =      -0.0000000000000000 [Eh]
	 Same-Spin Energy          =      -0.3168215917185144 [Eh]
	 Opposite-Spin Energy      =      -1.1024558069309047 [Eh]
	 Correlation Energy        =      -1.4192773986494192 [Eh]
	 Total Energy              =    -310.5647160037816548 [Eh]

	 ================> DF-SCS-MP2 Energies <==================
	-----------------------------------------------------------
	 SCS Same-Spin Scale       =       0.3333333333333333 [-]
	 SCS Opposite-Spin Scale   =       1.2000000000000000 [-]
	 SCS Same-Spin Energy      =      -0.1056071972395048 [Eh]
	 SCS Opposite-Spin Energy  =      -1.3229469683170856 [Eh]
	 SCS Correlation Energy    =      -1.4285541655565903 [Eh]
	 SCS Total Energy          =    -310.5739927706888466 [Eh]
	-----------------------------------------------------------

  Dipole Moment: [D]
     X:     1.7472      Y:     0.0793      Z:    -0.5065     Total:     1.8209

*** Psi4 exiting successfully. Buy a developer a beer!
