                               Psi4 1.3.2 release

  ==> Input File <==

--------------------------------------------------------------------------
#psi4
#
memory 32 gb

molecule  {
0 1
  O       -2.3916800    -1.0522970    -0.0243250
  C       -1.4955477     0.0263972    -0.3616534
  C       -0.1728060    -0.1763470     0.3083280
  C        2.3285040    -0.4694590     0.2834420
  C        0.9803314    -0.2869113    -0.3650493
  C       -2.1959480     1.2879740     0.1259890
  C        3.2526380     0.7192940     0.0124360
  H       -1.3570540     0.0791090    -1.4412390
  H       -0.1904860    -0.2488370     1.3972520
  H        2.7976780    -1.3847260    -0.0993500
  H        2.2027970    -0.6058810     1.3632980
  H        0.9746330    -0.2154440    -1.4448770
  H       -2.3344480     1.2448060     1.2091660
  H       -1.6005480     2.1700530    -0.1223020
  H       -3.1779120     1.3727550    -0.3453210
  H        2.8243150     1.6377400     0.4218030
  H        3.3966440     0.8648080    -1.0620310
  H        4.2355510     0.5661250     0.4665360
  H       -1.9269720    -1.8751040    -0.2580250
units angstrom
no_reorient  #important for SAPT in psi4, default
symmetry c1  #important for SAPT in psi4, default
}

set PROPERTIES_ORIGIN ["COM"]
properties('MP2/aug-cc-pvtz', properties = ['dipole'])
--------------------------------------------------------------------------

    Molecular point group: c1
  Charge       = 0
  Multiplicity = 1
  Basis Set: AUG-CC-PVTZ
    Blend: AUG-CC-PVTZ
  Basis Set: (AUG-CC-PVTZ AUX)
    Blend: AUG-CC-PVTZ-JKFIT

    Orbital Energies [Eh]
    ---------------------

    Doubly Occupied:

       1A    -20.552999     2A    -11.280421     3A    -11.235592
       4A    -11.230853     5A    -11.226568     6A    -11.219371
       7A    -11.210798     8A     -1.350448     9A     -1.093899
      10A     -1.034072    11A     -0.973966    12A     -0.872353
      13A     -0.807664    14A     -0.763006    15A     -0.691311
      16A     -0.654582    17A     -0.609343    18A     -0.595100
      19A     -0.576749    20A     -0.540743    21A     -0.535240
      22A     -0.526308    23A     -0.521346    24A     -0.509858
      25A     -0.488312    26A     -0.470583    27A     -0.442158
      28A     -0.356778

  @DF-RHF Final Energy:  -309.15159924946153

   => Energetics <=

    Nuclear Repulsion Energy =            299.0121818393368471
    One-Electron Energy =               -1011.5867177171851381
    Two-Electron Energy =                 403.4229366283868217
    Total Energy =                       -309.1515992494615261
  Basis Set: (AUG-CC-PVTZ AUX)
    Blend: AUG-CC-PVTZ-RI
    Molecular point group: c1

    Geometry (in Angstrom), charge = 0, multiplicity = 1:

       Center              X                  Y                   Z               Mass
    ------------   -----------------  -----------------  -----------------  -----------------
         O           -2.391692709116    -1.052432784734    -0.021711378542    15.994914619570
         C           -1.495560409116     0.026261415266    -0.359039778542    12.000000000000
         C           -0.172818709116    -0.176482784734     0.310941621458    12.000000000000
         C            2.328491290884    -0.469594784734     0.286055621458    12.000000000000
         C            0.980318690884    -0.287047084734    -0.362435678542    12.000000000000
         C           -2.195960709116     1.287838215266     0.128602621458    12.000000000000
         C            3.252625290884     0.719158215266     0.015049621458    12.000000000000
         H           -1.357066709116     0.078973215266    -1.438625378542     1.007825032230
         H           -0.190498709116    -0.248972784734     1.399865621458     1.007825032230
         H            2.797665290884    -1.384861784734    -0.096736378542     1.007825032230
         H            2.202784290884    -0.606016784734     1.365911621458     1.007825032230
         H            0.974620290884    -0.215579784734    -1.442263378542     1.007825032230
         H           -2.334460709116     1.244670215266     1.211779621458     1.007825032230
         H           -1.600560709116     2.169917215266    -0.119688378542     1.007825032230
         H           -3.177924709116     1.372619215266    -0.342707378542     1.007825032230
         H            2.824302290884     1.637604215266     0.424416621458     1.007825032230
         H            3.396631290884     0.864672215266    -1.059417378542     1.007825032230
         H            4.235538290884     0.565989215266     0.469149621458     1.007825032230
         H           -1.926984709116    -1.875239784734    -0.255411378542     1.007825032230

  Basis Set: AUG-CC-PVTZ
    Blend: AUG-CC-PVTZ
  Basis Set: (AUG-CC-PVTZ AUX)
    Blend: AUG-CC-PVTZ-JKFIT
	 Reference Energy          =    -309.1515992494615261 [Eh]
	 Singles Energy            =      -0.0000000000000000 [Eh]
	 Same-Spin Energy          =      -0.3166078665608971 [Eh]
	 Opposite-Spin Energy      =      -1.1024243852456022 [Eh]
	 Correlation Energy        =      -1.4190322518064993 [Eh]
	 Total Energy              =    -310.5706315012680534 [Eh]

	 ================> DF-SCS-MP2 Energies <==================
	-----------------------------------------------------------
	 SCS Same-Spin Scale       =       0.3333333333333333 [-]
	 SCS Opposite-Spin Scale   =       1.2000000000000000 [-]
	 SCS Same-Spin Energy      =      -0.1055359555202990 [Eh]
	 SCS Opposite-Spin Energy  =      -1.3229092622947225 [Eh]
	 SCS Correlation Energy    =      -1.4284452178150215 [Eh]
	 SCS Total Energy          =    -310.5800444672765366 [Eh]
	-----------------------------------------------------------

  Dipole Moment: [D]
     X:     1.9202      Y:     0.0144      Z:    -0.5735     Total:     2.0041

*** Psi4 exiting successfully. Buy a developer a beer!
