                               Psi4 1.3.2 release

  ==> Input File <==

--------------------------------------------------------------------------
#psi4
#
memory 32 gb

molecule  {
-4 1
  P        2.5594502     0.1038385    -0.3076284
  P       -0.1663333    -1.1037953     0.3324708
  P       -2.7088530     0.4754690    -0.2006980
  O        1.9534540     1.6068400    -0.1842610
  O        1.2509400    -0.8782220    -0.5450080
  O        3.2679280     0.0927970    -1.6978490
  O        3.3289310    -0.2934220     0.9022790
  O       -0.9881700     0.1612780    -0.2225170
  O        0.0932830    -1.0798150     1.7822090
  O       -0.7150640    -2.4305380    -0.3003910
  O       -3.2327710    -0.2685190     1.0414150
  O       -2.7128520     2.0086770    -0.0959300
  O       -3.2113930    -0.0752120    -1.5473660
  C        1.4216660     1.9681570     1.1052990
  H        1.0169430     1.1016800     1.6278780
  H        2.2027140     2.4392170     1.7103290
  H        0.6160650     2.6819120     0.9264900
units angstrom
no_reorient  #important for SAPT in psi4, default
symmetry c1  #important for SAPT in psi4, default
}

set PROPERTIES_ORIGIN ["COM"]
properties('MP2/aug-cc-pvtz', properties = ['dipole'])
--------------------------------------------------------------------------

    Molecular point group: c1
  Charge       = -4
  Multiplicity = 1
  Basis Set: AUG-CC-PVTZ
    Blend: AUG-CC-PVTZ
  Basis Set: (AUG-CC-PVTZ AUX)
    Blend: AUG-CC-PVTZ-JKFIT

    Orbital Energies [Eh]
    ---------------------

    Doubly Occupied:

       1A    -79.573332     2A    -79.527112     3A    -79.481790
       4A    -20.097744     5A    -20.041957     6A    -20.008227
       7A    -19.996172     8A    -19.991532     9A    -19.960686
      10A    -19.934295    11A    -19.925855    12A    -19.919675
      13A    -19.918958    14A    -10.821809    15A     -7.087380
      16A     -7.040564    17A     -6.995270    18A     -4.986349
      19A     -4.985379    20A     -4.984418    21A     -4.939740
      22A     -4.938544    23A     -4.937428    24A     -4.894764
      25A     -4.892520    26A     -4.892366    27A     -0.916961
      28A     -0.851937    29A     -0.810093    30A     -0.783057
      31A     -0.756025    32A     -0.736725    33A     -0.721493
      34A     -0.678210    35A     -0.665015    36A     -0.660022
      37A     -0.478872    38A     -0.295465    39A     -0.245036
      40A     -0.191811    41A     -0.173475    42A     -0.159328
      43A     -0.129279    44A     -0.101560    45A     -0.082194
      46A     -0.067951    47A     -0.054920    48A     -0.047252
      49A     -0.037739    50A     -0.015912    51A     -0.013367
      52A     -0.005075    53A      0.008272    54A      0.015239
      55A      0.020961    56A      0.037946    57A      0.044567
      58A      0.057734    59A      0.071909    60A      0.074312
      61A      0.087098    62A      0.098148    63A      0.101003
      64A      0.102734    65A      0.124466    66A      0.131657
      67A      0.143454    68A      0.149348    69A      0.170869

  @DF-RHF Final Energy: -1810.67811699902836

   => Energetics <=

    Nuclear Repulsion Energy =           1465.1693710667109372
    One-Electron Energy =               -5505.6691216687877386
    Two-Electron Energy =                2229.8216336030482125
    Total Energy =                      -1810.6781169990285889
  Basis Set: (AUG-CC-PVTZ AUX)
    Blend: AUG-CC-PVTZ-RI
    Molecular point group: c1

    Geometry (in Angstrom), charge = -4, multiplicity = 1:

       Center              X                  Y                   Z               Mass
    ------------   -----------------  -----------------  -----------------  -----------------
         P            2.575502521562     0.121936224823    -0.301060329934    30.973761998420
         P           -0.150280978438    -1.085697575177     0.339038870066    30.973761998420
         P           -2.692800678438     0.493566724823    -0.194129929934    30.973761998420
         O            1.969506321562     1.624937724823    -0.177692929934    15.994914619570
         O            1.266992321562    -0.860124275177    -0.538439929934    15.994914619570
         O            3.283980321562     0.110894724823    -1.691280929934    15.994914619570
         O            3.344983321562    -0.275324275177     0.908847070066    15.994914619570
         O           -0.972117678438     0.179375724823    -0.215948929934    15.994914619570
         O            0.109335321562    -1.061717275177     1.788777070066    15.994914619570
         O           -0.699011678438    -2.412440275177    -0.293822929934    15.994914619570
         O           -3.216718678438    -0.250421275177     1.047983070066    15.994914619570
         O           -2.696799678438     2.026774724823    -0.089361929934    15.994914619570
         O           -3.195340678438    -0.057114275177    -1.540797929934    15.994914619570
         C            1.437718321562     1.986254724823     1.111867070066    12.000000000000
         H            1.032995321562     1.119777724823     1.634446070066     1.007825032230
         H            2.218766321562     2.457314724823     1.716897070066     1.007825032230
         H            0.632117321562     2.700009724823     0.933058070066     1.007825032230

  Basis Set: AUG-CC-PVTZ
    Blend: AUG-CC-PVTZ
  Basis Set: (AUG-CC-PVTZ AUX)
    Blend: AUG-CC-PVTZ-JKFIT
	 Reference Energy          =   -1810.6781169990283615 [Eh]
	 Singles Energy            =      -0.0000000000000000 [Eh]
	 Same-Spin Energy          =      -0.9136876479042828 [Eh]
	 Opposite-Spin Energy      =      -2.5271560900071703 [Eh]
	 Correlation Energy        =      -3.4408437379114529 [Eh]
	 Total Energy              =   -1814.1189607369399255 [Eh]

	 ================> DF-SCS-MP2 Energies <==================
	-----------------------------------------------------------
	 SCS Same-Spin Scale       =       0.3333333333333333 [-]
	 SCS Opposite-Spin Scale   =       1.2000000000000000 [-]
	 SCS Same-Spin Energy      =      -0.3045625493014276 [Eh]
	 SCS Opposite-Spin Energy  =      -3.0325873080086043 [Eh]
	 SCS Correlation Energy    =      -3.3371498573100320 [Eh]
	 SCS Total Energy          =   -1814.0152668563384850 [Eh]
	-----------------------------------------------------------

  Dipole Moment: [D]
     X:     9.0847      Y:     3.1571      Z:     2.7819     Total:    10.0119

*** Psi4 exiting successfully. Buy a developer a beer!
