                               Psi4 1.4a3.dev225

  ==> Input File <==

--------------------------------------------------------------------------
#psi4
#
memory 32 gb

molecule  {
-4 1
  P       -2.5202440    -0.2449420     0.3712220
  P        0.3565170    -0.5960480    -0.3589090
  P        3.1750170     0.3881900     0.1554910
  O       -2.7927880     1.3311510    -0.1150520
  O       -0.9169740    -0.0836090     0.6422800
  O       -3.1856250    -0.4605710     1.7148300
  O       -2.8507450    -1.1694890    -0.7786080
  O        1.4548169     0.0631314     0.5435124
  O        0.2127210     0.0849480    -1.7048820
  O        0.4027150    -2.1095660    -0.2874290
  O        3.5327910    -0.6840640    -0.8835370
  O        3.1643710     1.8286230    -0.3742880
  O        3.8338960     0.2099350     1.5311200
  C       -4.1398760     1.5889580    -0.5252390
  H       -4.4292020     0.9309370    -1.3496150
  H       -4.8386320     1.4471050     0.3059850
  H       -4.1840730     2.6280350    -0.8559160
units angstrom
no_reorient  #important for SAPT in psi4, default
symmetry c1  #important for SAPT in psi4, default
}

set PROPERTIES_ORIGIN ["COM"]
properties('MP2/aug-cc-pvtz', properties = ['dipole'])
--------------------------------------------------------------------------

    Molecular point group: c1
  Charge       = -4
  Multiplicity = 1
  Basis Set: AUG-CC-PVTZ
    Blend: AUG-CC-PVTZ
  Basis Set: (AUG-CC-PVTZ AUX)
    Blend: AUG-CC-PVTZ-JKFIT

    Orbital Energies [Eh]
    ---------------------

    Doubly Occupied:

       1A    -79.577906     2A    -79.507840     3A    -79.481896
       4A    -20.117238     5A    -20.037338     6A    -20.012968
       7A    -20.002636     8A    -19.982171     9A    -19.931137
      10A    -19.929623    11A    -19.928108    12A    -19.921900
      13A    -19.916191    14A    -10.881907    15A     -7.092223
      16A     -7.022090    17A     -6.995352    18A     -4.991372
      19A     -4.990038    20A     -4.989165    21A     -4.921451
      22A     -4.920076    23A     -4.918688    24A     -4.894772
      25A     -4.892565    26A     -4.892422    27A     -0.929277
      28A     -0.852411    29A     -0.808912    30A     -0.777588
      31A     -0.758964    32A     -0.737811    33A     -0.707016
      34A     -0.682071    35A     -0.666764    36A     -0.660634
      37A     -0.526630    38A     -0.306058    39A     -0.250800
      40A     -0.219118    41A     -0.196345    42A     -0.164625
      43A     -0.138428    44A     -0.106528    45A     -0.093699
      46A     -0.077793    47A     -0.062716    48A     -0.051683
      49A     -0.035001    50A     -0.023732    51A     -0.012803
      52A     -0.008901    53A      0.010880    54A      0.011550
      55A      0.020805    56A      0.036138    57A      0.050474
      58A      0.055637    59A      0.064560    60A      0.083671
      61A      0.097061    62A      0.099903    63A      0.103785
      64A      0.108273    65A      0.128656    66A      0.136762
      67A      0.144931    68A      0.152305    69A      0.170484

  @DF-RHF Final Energy: -1810.67576121381671

   => Energetics <=

    Nuclear Repulsion Energy =           1426.8801350972987620
    One-Electron Energy =               -5428.8527837816318424
    Two-Electron Energy =                2191.2968874705161397
    Total Energy =                      -1810.6757612138167133
  Basis Set: (AUG-CC-PVTZ AUX)
    Blend: AUG-CC-PVTZ-RI
    Molecular point group: c1

    Geometry (in Angstrom), charge = -4, multiplicity = 1:

       Center              X                  Y                   Z               Mass
    ------------   -----------------  -----------------  -----------------  -----------------
         P           -2.571593125607    -0.223518178386     0.365302039935    30.973761998420
         P            0.305167874393    -0.574624178386    -0.364828960065    30.973761998420
         P            3.123667874393     0.409613821614     0.149571039935    30.973761998420
         O           -2.844137125607     1.352574821614    -0.120971960065    15.994914619570
         O           -0.968323125607    -0.062185178386     0.636360039935    15.994914619570
         O           -3.236974125607    -0.439147178386     1.708910039935    15.994914619570
         O           -2.902094125607    -1.148065178386    -0.784527960065    15.994914619570
         O            1.403467774393     0.084555221614     0.537592439935    15.994914619570
         O            0.161371874393     0.106371821614    -1.710801960065    15.994914619570
         O            0.351365874393    -2.088142178386    -0.293348960065    15.994914619570
         O            3.481441874393    -0.662640178386    -0.889456960065    15.994914619570
         O            3.113021874393     1.850046821614    -0.380207960065    15.994914619570
         O            3.782546874393     0.231358821614     1.525200039935    15.994914619570
         C           -4.191225125607     1.610381821614    -0.531158960065    12.000000000000
         H           -4.480551125607     0.952360821614    -1.355534960065     1.007825032230
         H           -4.889981125607     1.468528821614     0.300065039935     1.007825032230
         H           -4.235422125607     2.649458821614    -0.861835960065     1.007825032230

  Basis Set: AUG-CC-PVTZ
    Blend: AUG-CC-PVTZ
  Basis Set: (AUG-CC-PVTZ AUX)
    Blend: AUG-CC-PVTZ-JKFIT
	 Reference Energy          =   -1810.6757612138167133 [Eh]
	 Singles Energy            =      -0.0000000000000000 [Eh]
	 Same-Spin Energy          =      -0.9120290838478282 [Eh]
	 Opposite-Spin Energy      =      -2.5242189919294864 [Eh]
	 Correlation Energy        =      -3.4362480757773146 [Eh]
	 Total Energy              =   -1814.1120092895939706 [Eh]

	 ================> DF-SCS-MP2 Energies <==================
	-----------------------------------------------------------
	 SCS Same-Spin Scale       =       0.3333333333333333 [-]
	 SCS Opposite-Spin Scale   =       1.2000000000000000 [-]
	 SCS Same-Spin Energy      =      -0.3040096946159427 [Eh]
	 SCS Opposite-Spin Energy  =      -3.0290627903153835 [Eh]
	 SCS Correlation Energy    =      -3.3330724849313262 [Eh]
	 SCS Total Energy          =   -1814.0088336987480488 [Eh]
	-----------------------------------------------------------

  Dipole Moment: [D]
     X:   -14.4305      Y:     2.8987      Z:     0.1446     Total:    14.7195

*** Psi4 exiting successfully. Buy a developer a beer!
