                               Psi4 1.3.2 release

  ==> Input File <==

--------------------------------------------------------------------------
#psi4
#
memory 32 gb

molecule  {
-4 1
  P        2.5828670     0.0826120    -0.3559070
  P       -0.1833470    -1.1435920     0.2927960
  P       -2.7088530     0.4754690    -0.2006980
  O        1.9534540     1.6068400    -0.1842610
  O        1.2509400    -0.8782220    -0.5450080
  O        3.2679280     0.0927970    -1.6978490
  O        3.3289310    -0.2934220     0.9022790
  O       -0.9825446     0.1996723    -0.1395633
  O        0.0932830    -1.0798150     1.7822090
  O       -0.7150640    -2.4305380    -0.3003910
  O       -3.2327710    -0.2685190     1.0414150
  O       -2.7128520     2.0086770    -0.0959300
  O       -3.2857836    -0.0522155    -1.5265980
  C        1.4216660     1.9681570     1.1052990
  H        1.0169430     1.1016800     1.6278780
  H        2.2027140     2.4392170     1.7103290
  H        0.6160650     2.6819120     0.9264900
units angstrom
no_reorient  #important for SAPT in psi4, default
symmetry c1  #important for SAPT in psi4, default
}

set PROPERTIES_ORIGIN ["COM"]
properties('MP2/aug-cc-pvtz', properties = ['dipole'])
--------------------------------------------------------------------------

    Molecular point group: c1
  Charge       = -4
  Multiplicity = 1
  Basis Set: AUG-CC-PVTZ
    Blend: AUG-CC-PVTZ
  Basis Set: (AUG-CC-PVTZ AUX)
    Blend: AUG-CC-PVTZ-JKFIT

    Orbital Energies [Eh]
    ---------------------

    Doubly Occupied:

       1A    -79.573771     2A    -79.529312     3A    -79.479666
       4A    -20.086014     5A    -20.040986     6A    -20.003714
       7A    -20.003624     8A    -19.997354     9A    -19.950913
      10A    -19.947416    11A    -19.923234    12A    -19.919989
      13A    -19.912670    14A    -10.811066    15A     -7.087589
      16A     -7.042236    17A     -6.993166    18A     -4.986535
      19A     -4.985604    20A     -4.984766    21A     -4.941462
      22A     -4.940134    23A     -4.939194    24A     -4.892576
      25A     -4.890438    26A     -4.890297    27A     -0.902660
      28A     -0.847140    29A     -0.808022    30A     -0.779610
      31A     -0.758556    32A     -0.742971    33A     -0.715069
      34A     -0.701091    35A     -0.661918    36A     -0.656975
      37A     -0.466404    38A     -0.295343    39A     -0.235442
      40A     -0.185857    41A     -0.164070    42A     -0.148983
      43A     -0.126550    44A     -0.099597    45A     -0.084302
      46A     -0.066052    47A     -0.052620    48A     -0.045090
      49A     -0.033123    50A     -0.016807    51A     -0.007808
      52A      0.000313    53A      0.008645    54A      0.014277
      55A      0.020987    56A      0.036222    57A      0.046915
      58A      0.052793    59A      0.065799    60A      0.069522
      61A      0.087733    62A      0.099453    63A      0.104907
      64A      0.105585    65A      0.112232    66A      0.124052
      67A      0.145843    68A      0.151197    69A      0.174024

  @DF-RHF Final Energy: -1810.68747965670855

   => Energetics <=

    Nuclear Repulsion Energy =           1462.0550613224977496
    One-Electron Energy =               -5499.6145127886411501
    Two-Electron Energy =                2226.8719718094348536
    Total Energy =                      -1810.6874796567085468
  Basis Set: (AUG-CC-PVTZ AUX)
    Blend: AUG-CC-PVTZ-RI
    Molecular point group: c1

    Geometry (in Angstrom), charge = -4, multiplicity = 1:

       Center              X                  Y                   Z               Mass
    ------------   -----------------  -----------------  -----------------  -----------------
         P            2.602284703838     0.104099788740    -0.345362624710    30.973761998420
         P           -0.163929296162    -1.122104211260     0.303340375290    30.973761998420
         P           -2.689435296162     0.496956788740    -0.190153624710    30.973761998420
         O            1.972871703838     1.628327788740    -0.173716624710    15.994914619570
         O            1.270357703838    -0.856734211260    -0.534463624710    15.994914619570
         O            3.287345703838     0.114284788740    -1.687304624710    15.994914619570
         O            3.348348703838    -0.271934211260     0.912823375290    15.994914619570
         O           -0.963126896162     0.221160088740    -0.129018924710    15.994914619570
         O            0.112700703838    -1.058327211260     1.792753375290    15.994914619570
         O           -0.695646296162    -2.409050211260    -0.289846624710    15.994914619570
         O           -3.213353296162    -0.247031211260     1.051959375290    15.994914619570
         O           -2.693434296162     2.030164788740    -0.085385624710    15.994914619570
         O           -3.266365896162    -0.030727711260    -1.516053624710    15.994914619570
         C            1.441083703838     1.989644788740     1.115843375290    12.000000000000
         H            1.036360703838     1.123167788740     1.638422375290     1.007825032230
         H            2.222131703838     2.460704788740     1.720873375290     1.007825032230
         H            0.635482703838     2.703399788740     0.937034375290     1.007825032230

  Basis Set: AUG-CC-PVTZ
    Blend: AUG-CC-PVTZ
  Basis Set: (AUG-CC-PVTZ AUX)
    Blend: AUG-CC-PVTZ-JKFIT
	 Reference Energy          =   -1810.6874796567085468 [Eh]
	 Singles Energy            =      -0.0000000000000000 [Eh]
	 Same-Spin Energy          =      -0.9130722500848319 [Eh]
	 Opposite-Spin Energy      =      -2.5259020653379829 [Eh]
	 Correlation Energy        =      -3.4389743154228150 [Eh]
	 Total Energy              =   -1814.1264539721314577 [Eh]

	 ================> DF-SCS-MP2 Energies <==================
	-----------------------------------------------------------
	 SCS Same-Spin Scale       =       0.3333333333333333 [-]
	 SCS Opposite-Spin Scale   =       1.2000000000000000 [-]
	 SCS Same-Spin Energy      =      -0.3043574166949440 [Eh]
	 SCS Opposite-Spin Energy  =      -3.0310824784055792 [Eh]
	 SCS Correlation Energy    =      -3.3354398951005231 [Eh]
	 SCS Total Energy          =   -1814.0229195518090819 [Eh]
	-----------------------------------------------------------

  Dipole Moment: [D]
     X:     9.4635      Y:     2.1800      Z:     1.4389     Total:     9.8173

*** Psi4 exiting successfully. Buy a developer a beer!
