                               Psi4 1.3.2 release

  ==> Input File <==

--------------------------------------------------------------------------
#psi4
#
memory 32 gb

molecule  {
-4 1
  P        2.5828670     0.0826120    -0.3559070
  P       -0.1833470    -1.1435920     0.2927960
  P       -2.7088530     0.4754690    -0.2006980
  O        1.9534540     1.6068400    -0.1842610
  O        1.2582846    -0.8825448    -0.5725737
  O        3.2491616     0.0769796    -1.7072916
  O        3.3289310    -0.2934220     0.9022790
  O       -0.9881700     0.1612780    -0.2225170
  O        0.0932830    -1.0798150     1.7822090
  O       -0.7150640    -2.4305380    -0.3003910
  O       -3.2327710    -0.2685190     1.0414150
  O       -2.7128520     2.0086770    -0.0959300
  O       -3.2113930    -0.0752120    -1.5473660
  C        1.4216660     1.9681570     1.1052990
  H        1.0169430     1.1016800     1.6278780
  H        2.2027140     2.4392170     1.7103290
  H        0.6160650     2.6819120     0.9264900
units angstrom
no_reorient  #important for SAPT in psi4, default
symmetry c1  #important for SAPT in psi4, default
}

set PROPERTIES_ORIGIN ["COM"]
properties('MP2/aug-cc-pvtz', properties = ['dipole'])
--------------------------------------------------------------------------

    Molecular point group: c1
  Charge       = -4
  Multiplicity = 1
  Basis Set: AUG-CC-PVTZ
    Blend: AUG-CC-PVTZ
  Basis Set: (AUG-CC-PVTZ AUX)
    Blend: AUG-CC-PVTZ-JKFIT

    Orbital Energies [Eh]
    ---------------------

    Doubly Occupied:

       1A    -79.570772     2A    -79.528209     3A    -79.480200
       4A    -20.086153     5A    -20.036820     6A    -20.003876
       7A    -19.999850     8A    -19.993663     9A    -19.952439
      10A    -19.945569    11A    -19.924189    12A    -19.919383
      13A    -19.917728    14A    -10.812186    15A     -7.084747
      16A     -7.040985    17A     -6.993706    18A     -4.983656
      19A     -4.982778    20A     -4.981910    21A     -4.940197
      22A     -4.938868    23A     -4.937952    24A     -4.893172
      25A     -4.890976    26A     -4.890826    27A     -0.901296
      28A     -0.842886    29A     -0.806718    30A     -0.776125
      31A     -0.757186    32A     -0.742257    33A     -0.714122
      34A     -0.700442    35A     -0.663713    36A     -0.659324
      37A     -0.467174    38A     -0.289111    39A     -0.234891
      40A     -0.183107    41A     -0.163967    42A     -0.148715
      43A     -0.125720    44A     -0.099053    45A     -0.080788
      46A     -0.064371    47A     -0.051410    48A     -0.044054
      49A     -0.032599    50A     -0.015529    51A     -0.005726
      52A      0.000201    53A      0.009957    54A      0.015289
      55A      0.021616    56A      0.038593    57A      0.047144
      58A      0.053306    59A      0.066840    60A      0.071668
      61A      0.091067    62A      0.099988    63A      0.102016
      64A      0.103520    65A      0.113067    66A      0.124392
      67A      0.144193    68A      0.150176    69A      0.171799

  @DF-RHF Final Energy: -1810.68701989137230

   => Energetics <=

    Nuclear Repulsion Energy =           1462.3166619970129432
    One-Electron Energy =               -5500.2548412026326332
    Two-Electron Energy =                2227.2511593142476158
    Total Energy =                      -1810.6870198913720742
  Basis Set: (AUG-CC-PVTZ AUX)
    Blend: AUG-CC-PVTZ-RI
    Molecular point group: c1

    Geometry (in Angstrom), charge = -4, multiplicity = 1:

       Center              X                  Y                   Z               Mass
    ------------   -----------------  -----------------  -----------------  -----------------
         P            2.598860950023     0.108967691102    -0.336960177797    30.973761998420
         P           -0.167353049977    -1.117236308898     0.311742822203    30.973761998420
         P           -2.692859049977     0.501824691102    -0.181751177797    30.973761998420
         O            1.969447950023     1.633195691102    -0.165314177797    15.994914619570
         O            1.274278550023    -0.856189108898    -0.553626877797    15.994914619570
         O            3.265155550023     0.103335291102    -1.688344777797    15.994914619570
         O            3.344924950023    -0.267066308898     0.921225822203    15.994914619570
         O           -0.972176049977     0.187633691102    -0.203570177797    15.994914619570
         O            0.109276950023    -1.053459308898     1.801155822203    15.994914619570
         O           -0.699070049977    -2.404182308898    -0.281444177797    15.994914619570
         O           -3.216777049977    -0.242163308898     1.060361822203    15.994914619570
         O           -2.696858049977     2.035032691102    -0.076983177797    15.994914619570
         O           -3.195399049977    -0.048856308898    -1.528419177797    15.994914619570
         C            1.437659950023     1.994512691102     1.124245822203    12.000000000000
         H            1.032936950023     1.128035691102     1.646824822203     1.007825032230
         H            2.218707950023     2.465572691102     1.729275822203     1.007825032230
         H            0.632058950023     2.708267691102     0.945436822203     1.007825032230

  Basis Set: AUG-CC-PVTZ
    Blend: AUG-CC-PVTZ
  Basis Set: (AUG-CC-PVTZ AUX)
    Blend: AUG-CC-PVTZ-JKFIT
	 Reference Energy          =   -1810.6870198913723016 [Eh]
	 Singles Energy            =      -0.0000000000000000 [Eh]
	 Same-Spin Energy          =      -0.9133034062707726 [Eh]
	 Opposite-Spin Energy      =      -2.5265592122858895 [Eh]
	 Correlation Energy        =      -3.4398626185566621 [Eh]
	 Total Energy              =   -1814.1268825099289188 [Eh]

	 ================> DF-SCS-MP2 Energies <==================
	-----------------------------------------------------------
	 SCS Same-Spin Scale       =       0.3333333333333333 [-]
	 SCS Opposite-Spin Scale   =       1.2000000000000000 [-]
	 SCS Same-Spin Energy      =      -0.3044344687569241 [Eh]
	 SCS Opposite-Spin Energy  =      -3.0318710547430672 [Eh]
	 SCS Correlation Energy    =      -3.3363055234999912 [Eh]
	 SCS Total Energy          =   -1814.0233254148722608 [Eh]
	-----------------------------------------------------------

  Dipole Moment: [D]
     X:     9.1934      Y:     2.3546      Z:     1.7125     Total:     9.6434

*** Psi4 exiting successfully. Buy a developer a beer!
