                               Psi4 1.3.2 release

  ==> Input File <==

--------------------------------------------------------------------------
#psi4
#
memory 32 gb

molecule  {
-4 1
  P        2.5828670     0.0826120    -0.3559070
  P       -0.1833470    -1.1435920     0.2927960
  P       -2.7088530     0.4754690    -0.2006980
  O        1.9534540     1.6068400    -0.1842610
  O        1.2509400    -0.8782220    -0.5450080
  O        3.2679280     0.0927970    -1.6978490
  O        3.3289310    -0.2934220     0.9022790
  O       -0.9854871     0.1762707    -0.2214931
  O        0.0932830    -1.0798150     1.7822090
  O       -0.7150640    -2.4305380    -0.3003910
  O       -3.2327710    -0.2685190     1.0414150
  O       -2.6994411     2.0086536    -0.0959343
  O       -3.2113930    -0.0752120    -1.5473660
  C        1.4216660     1.9681570     1.1052990
  H        1.0169430     1.1016800     1.6278780
  H        2.2027140     2.4392170     1.7103290
  H        0.6160650     2.6819120     0.9264900
units angstrom
no_reorient  #important for SAPT in psi4, default
symmetry c1  #important for SAPT in psi4, default
}

set PROPERTIES_ORIGIN ["COM"]
properties('MP2/aug-cc-pvtz', properties = ['dipole'])
--------------------------------------------------------------------------

    Molecular point group: c1
  Charge       = -4
  Multiplicity = 1
  Basis Set: AUG-CC-PVTZ
    Blend: AUG-CC-PVTZ
  Basis Set: (AUG-CC-PVTZ AUX)
    Blend: AUG-CC-PVTZ-JKFIT

    Orbital Energies [Eh]
    ---------------------

    Doubly Occupied:

       1A    -79.572444     2A    -79.527866     3A    -79.479176
       4A    -20.085257     5A    -20.038400     6A    -20.002737
       7A    -20.002432     8A    -19.992479     9A    -19.950501
      10A    -19.946498    11A    -19.922734    12A    -19.919482
      13A    -19.917778    14A    -10.811193    15A     -7.086263
      16A     -7.040651    17A     -6.992723    18A     -4.985211
      19A     -4.984270    20A     -4.983450    21A     -4.939939
      22A     -4.938487    23A     -4.937625    24A     -4.892182
      25A     -4.889992    26A     -4.889863    27A     -0.901609
      28A     -0.844971    29A     -0.805475    30A     -0.777440
      31A     -0.757505    32A     -0.742232    33A     -0.712368
      34A     -0.700321    35A     -0.663074    36A     -0.659253
      37A     -0.466322    38A     -0.293477    39A     -0.233532
      40A     -0.182791    41A     -0.163192    42A     -0.148279
      43A     -0.125917    44A     -0.098926    45A     -0.082694
      46A     -0.064799    47A     -0.051300    48A     -0.043599
      49A     -0.031093    50A     -0.015673    51A     -0.006373
      52A      0.000164    53A      0.009745    54A      0.014959
      55A      0.021594    56A      0.037691    57A      0.047974
      58A      0.053650    59A      0.066830    60A      0.070868
      61A      0.090666    62A      0.100651    63A      0.103177
      64A      0.104377    65A      0.113434    66A      0.124649
      67A      0.144868    68A      0.150551    69A      0.172072

  @DF-RHF Final Energy: -1810.68783900910330

   => Energetics <=

    Nuclear Repulsion Energy =           1462.8193464829612367
    One-Electron Energy =               -5501.2665120394240148
    Two-Electron Energy =                2227.7593265473597057
    Total Energy =                      -1810.6878390091032998
  Basis Set: (AUG-CC-PVTZ AUX)
    Blend: AUG-CC-PVTZ-RI
    Molecular point group: c1

    Geometry (in Angstrom), charge = -4, multiplicity = 1:

       Center              X                  Y                   Z               Mass
    ------------   -----------------  -----------------  -----------------  -----------------
         P            2.597218099399     0.106871437923    -0.339230677413    30.973761998420
         P           -0.168995900601    -1.119332562077     0.309472322587    30.973761998420
         P           -2.694501900601     0.499728437923    -0.184021677413    30.973761998420
         O            1.967805099399     1.631099437923    -0.167584677413    15.994914619570
         O            1.265291099399    -0.853962562077    -0.528331677413    15.994914619570
         O            3.282279099399     0.117056437923    -1.681172677413    15.994914619570
         O            3.343282099399    -0.269162562077     0.918955322587    15.994914619570
         O           -0.971136000601     0.200530137923    -0.204816777413    15.994914619570
         O            0.107634099399    -1.055555562077     1.798885322587    15.994914619570
         O           -0.700712900601    -2.406278562077    -0.283714677413    15.994914619570
         O           -3.218419900601    -0.244259562077     1.058091322587    15.994914619570
         O           -2.685090000601     2.032913037923    -0.079257977413    15.994914619570
         O           -3.197041900601    -0.050952562077    -1.530689677413    15.994914619570
         C            1.436017099399     1.992416437923     1.121975322587    12.000000000000
         H            1.031294099399     1.125939437923     1.644554322587     1.007825032230
         H            2.217065099399     2.463476437923     1.727005322587     1.007825032230
         H            0.630416099399     2.706171437923     0.943166322587     1.007825032230

  Basis Set: AUG-CC-PVTZ
    Blend: AUG-CC-PVTZ
  Basis Set: (AUG-CC-PVTZ AUX)
    Blend: AUG-CC-PVTZ-JKFIT
	 Reference Energy          =   -1810.6878390091032998 [Eh]
	 Singles Energy            =      -0.0000000000000000 [Eh]
	 Same-Spin Energy          =      -0.9132091636618508 [Eh]
	 Opposite-Spin Energy      =      -2.5262647938234131 [Eh]
	 Correlation Energy        =      -3.4394739574852640 [Eh]
	 Total Energy              =   -1814.1273129665885335 [Eh]

	 ================> DF-SCS-MP2 Energies <==================
	-----------------------------------------------------------
	 SCS Same-Spin Scale       =       0.3333333333333333 [-]
	 SCS Opposite-Spin Scale   =       1.2000000000000000 [-]
	 SCS Same-Spin Energy      =      -0.3044030545539502 [Eh]
	 SCS Opposite-Spin Energy  =      -3.0315177525880954 [Eh]
	 SCS Correlation Energy    =      -3.3359208071420454 [Eh]
	 SCS Total Energy          =   -1814.0237598162452741 [Eh]
	-----------------------------------------------------------

  Dipole Moment: [D]
     X:     9.2511      Y:     2.2811      Z:     1.6148     Total:     9.6641

*** Psi4 exiting successfully. Buy a developer a beer!
