                               Psi4 1.3.2 release

  ==> Input File <==

--------------------------------------------------------------------------
#psi4
#
memory 32 gb

molecule  {
-4 1
  P        2.5828670     0.0826120    -0.3559070
  P       -0.1833470    -1.1435920     0.2927960
  P       -2.7088530     0.4754690    -0.2006980
  O        1.9534540     1.6068400    -0.1842610
  O        1.2509400    -0.8782220    -0.5450080
  O        3.2679280     0.0927970    -1.6978490
  O        3.3289310    -0.2934220     0.9022790
  O       -0.9881700     0.1612780    -0.2225170
  O        0.0932830    -1.0798150     1.7822090
  O       -0.7150640    -2.4305380    -0.3003910
  O       -3.2327710    -0.2685190     1.0414150
  O       -2.7128520     2.0086770    -0.0959300
  O       -3.2113930    -0.0752120    -1.5473660
  C        1.4585716     1.9430819     1.0158048
  H        1.0169430     1.1016800     1.6278780
  H        2.2027140     2.4392170     1.7103290
  H        0.6160650     2.6819120     0.9264900
units angstrom
no_reorient  #important for SAPT in psi4, default
symmetry c1  #important for SAPT in psi4, default
}

set PROPERTIES_ORIGIN ["COM"]
properties('MP2/aug-cc-pvtz', properties = ['dipole'])
--------------------------------------------------------------------------

    Molecular point group: c1
  Charge       = -4
  Multiplicity = 1
  Basis Set: AUG-CC-PVTZ
    Blend: AUG-CC-PVTZ
  Basis Set: (AUG-CC-PVTZ AUX)
    Blend: AUG-CC-PVTZ-JKFIT

    Orbital Energies [Eh]
    ---------------------

    Doubly Occupied:

       1A    -79.578370     2A    -79.527903     3A    -79.479911
       4A    -20.093751     5A    -20.042012     6A    -20.006639
       7A    -20.006614     8A    -19.993592     9A    -19.950188
      10A    -19.946261    11A    -19.923591    12A    -19.919388
      13A    -19.917365    14A    -10.814424    15A     -7.092264
      16A     -7.040862    17A     -6.993419    18A     -4.991298
      19A     -4.990204    20A     -4.989357    21A     -4.940160
      22A     -4.938733    23A     -4.937795    24A     -4.892886
      25A     -4.890684    26A     -4.890542    27A     -0.933867
      28A     -0.855323    29A     -0.812000    30A     -0.780696
      31A     -0.761492    32A     -0.742906    33A     -0.713843
      34A     -0.700216    35A     -0.663281    36A     -0.659138
      37A     -0.456087    38A     -0.300174    39A     -0.248428
      40A     -0.190854    41A     -0.172355    42A     -0.166566
      43A     -0.127059    44A     -0.099652    45A     -0.086289
      46A     -0.064882    47A     -0.052220    48A     -0.038430
      49A     -0.029143    50A     -0.017512    51A     -0.002475
      52A      0.001629    53A      0.011569    54A      0.012942
      55A      0.022844    56A      0.036425    57A      0.046762
      58A      0.049425    59A      0.064120    60A      0.069952
      61A      0.090133    62A      0.100424    63A      0.102227
      64A      0.103767    65A      0.113580    66A      0.125181
      67A      0.144583    68A      0.150327    69A      0.172109

  @DF-RHF Final Energy: -1810.68331867525717

   => Energetics <=

    Nuclear Repulsion Energy =           1465.1078943364634597
    One-Electron Energy =               -5505.4922291243965446
    Two-Electron Energy =                2229.7010161126754610
    Total Energy =                      -1810.6833186752573965
  Basis Set: (AUG-CC-PVTZ AUX)
    Blend: AUG-CC-PVTZ-RI
    Molecular point group: c1

    Geometry (in Angstrom), charge = -4, multiplicity = 1:

       Center              X                  Y                   Z               Mass
    ------------   -----------------  -----------------  -----------------  -----------------
         P            2.596525854305     0.108888407554    -0.335161011081    30.973761998420
         P           -0.169688145695    -1.117315592446     0.313541988919    30.973761998420
         P           -2.695194145695     0.501745407554    -0.179952011081    30.973761998420
         O            1.967112854305     1.633116407554    -0.163515011081    15.994914619570
         O            1.264598854305    -0.851945592446    -0.524262011081    15.994914619570
         O            3.281586854305     0.119073407554    -1.677103011081    15.994914619570
         O            3.342589854305    -0.267145592446     0.923024988919    15.994914619570
         O           -0.974511145695     0.187554407554    -0.201771011081    15.994914619570
         O            0.106941854305    -1.053538592446     1.802954988919    15.994914619570
         O           -0.701405145695    -2.404261592446    -0.279645011081    15.994914619570
         O           -3.219112145695    -0.242242592446     1.062160988919    15.994914619570
         O           -2.699193145695     2.034953407554    -0.075184011081    15.994914619570
         O           -3.197734145695    -0.048935592446    -1.526620011081    15.994914619570
         C            1.472230454305     1.969358307554     1.036550788919    12.000000000000
         H            1.030601854305     1.127956407554     1.648623988919     1.007825032230
         H            2.216372854305     2.465493407554     1.731074988919     1.007825032230
         H            0.629723854305     2.708188407554     0.947235988919     1.007825032230

  Basis Set: AUG-CC-PVTZ
    Blend: AUG-CC-PVTZ
  Basis Set: (AUG-CC-PVTZ AUX)
    Blend: AUG-CC-PVTZ-JKFIT
	 Reference Energy          =   -1810.6833186752571692 [Eh]
	 Singles Energy            =      -0.0000000000000000 [Eh]
	 Same-Spin Energy          =      -0.9132998932162802 [Eh]
	 Opposite-Spin Energy      =      -2.5250204299203238 [Eh]
	 Correlation Energy        =      -3.4383203231366042 [Eh]
	 Total Energy              =   -1814.1216389983937916 [Eh]

	 ================> DF-SCS-MP2 Energies <==================
	-----------------------------------------------------------
	 SCS Same-Spin Scale       =       0.3333333333333333 [-]
	 SCS Opposite-Spin Scale   =       1.2000000000000000 [-]
	 SCS Same-Spin Energy      =      -0.3044332977387600 [Eh]
	 SCS Opposite-Spin Energy  =      -3.0300245159043886 [Eh]
	 SCS Correlation Energy    =      -3.3344578136431489 [Eh]
	 SCS Total Energy          =   -1814.0177764889003811 [Eh]
	-----------------------------------------------------------

  Dipole Moment: [D]
     X:     9.3783      Y:     2.0121      Z:     1.1913     Total:     9.6654

*** Psi4 exiting successfully. Buy a developer a beer!
