                               Psi4 1.3.2 release

  ==> Input File <==

--------------------------------------------------------------------------
#psi4
#
memory 32 gb

molecule  {
-4 1
  P        2.5828670     0.0826120    -0.3559070
  P       -0.1833470    -1.1435920     0.2927960
  P       -2.7088530     0.4754690    -0.2006980
  O        1.9534540     1.6068400    -0.1842610
  O        1.2724406    -0.9185896    -0.4715293
  O        3.2679280     0.0927970    -1.6978490
  O        3.2744845    -0.3492403     0.9153970
  O       -0.9881700     0.1612780    -0.2225170
  O        0.0932830    -1.0798150     1.7822090
  O       -0.7150640    -2.4305380    -0.3003910
  O       -3.2327710    -0.2685190     1.0414150
  O       -2.7128520     2.0086770    -0.0959300
  O       -3.2113930    -0.0752120    -1.5473660
  C        1.4216660     1.9681570     1.1052990
  H        1.0169430     1.1016800     1.6278780
  H        2.2027140     2.4392170     1.7103290
  H        0.6160650     2.6819120     0.9264900
units angstrom
no_reorient  #important for SAPT in psi4, default
symmetry c1  #important for SAPT in psi4, default
}

set PROPERTIES_ORIGIN ["COM"]
properties('MP2/aug-cc-pvtz', properties = ['dipole'])
--------------------------------------------------------------------------

    Molecular point group: c1
  Charge       = -4
  Multiplicity = 1
  Basis Set: AUG-CC-PVTZ
    Blend: AUG-CC-PVTZ
  Basis Set: (AUG-CC-PVTZ AUX)
    Blend: AUG-CC-PVTZ-JKFIT

    Orbital Energies [Eh]
    ---------------------

    Doubly Occupied:

       1A    -79.574440     2A    -79.522263     3A    -79.479525
       4A    -20.090095     5A    -20.033214     6A    -20.009021
       7A    -19.999002     8A    -19.992767     9A    -19.942072
      10A    -19.941439    11A    -19.923740    12A    -19.918840
      13A    -19.916604    14A    -10.812981    15A     -7.088148
      16A     -7.035362    17A     -6.993021    18A     -4.987103
      19A     -4.986270    20A     -4.985239    21A     -4.934687
      22A     -4.933318    23A     -4.932291    24A     -4.892489
      25A     -4.890294    26A     -4.890140    27A     -0.904338
      28A     -0.847498    29A     -0.807090    30A     -0.778797
      31A     -0.758529    32A     -0.738151    33A     -0.711556
      34A     -0.694735    35A     -0.663119    36A     -0.658445
      37A     -0.468622    38A     -0.295806    39A     -0.235834
      40A     -0.186760    41A     -0.166066    42A     -0.151667
      43A     -0.123260    44A     -0.096620    45A     -0.085169
      46A     -0.063685    47A     -0.051654    48A     -0.045046
      49A     -0.030308    50A     -0.016171    51A     -0.007058
      52A      0.001408    53A      0.008114    54A      0.015476
      55A      0.023085    56A      0.033115    57A      0.049028
      58A      0.055262    59A      0.070262    60A      0.073011
      61A      0.093653    62A      0.101670    63A      0.103501
      64A      0.105356    65A      0.118621    66A      0.129596
      67A      0.145102    68A      0.151298    69A      0.172545

  @DF-RHF Final Energy: -1810.68607031939405

   => Energetics <=

    Nuclear Repulsion Energy =           1464.2895195435205551
    One-Electron Energy =               -5504.2706874004325073
    Two-Electron Energy =                2229.2950975375183589
    Total Energy =                      -1810.6860703193938207
  Basis Set: (AUG-CC-PVTZ AUX)
    Blend: AUG-CC-PVTZ-RI
    Molecular point group: c1

    Geometry (in Angstrom), charge = -4, multiplicity = 1:

       Center              X                  Y                   Z               Mass
    ------------   -----------------  -----------------  -----------------  -----------------
         P            2.600146071231     0.113508087302    -0.344340156840    30.973761998420
         P           -0.166067928769    -1.112695912698     0.304362843160    30.973761998420
         P           -2.691573928769     0.506365087302    -0.189131156840    30.973761998420
         O            1.970733071231     1.637736087302    -0.172694156840    15.994914619570
         O            1.289719671231    -0.887693512698    -0.459962456840    15.994914619570
         O            3.285207071231     0.123693087302    -1.686282156840    15.994914619570
         O            3.291763571231    -0.318344212698     0.926963843160    15.994914619570
         O           -0.970890928769     0.192174087302    -0.210950156840    15.994914619570
         O            0.110562071231    -1.048918912698     1.793775843160    15.994914619570
         O           -0.697784928769    -2.399641912698    -0.288824156840    15.994914619570
         O           -3.215491928769    -0.237622912698     1.052981843160    15.994914619570
         O           -2.695572928769     2.039573087302    -0.084363156840    15.994914619570
         O           -3.194113928769    -0.044315912698    -1.535799156840    15.994914619570
         C            1.438945071231     1.999053087302     1.116865843160    12.000000000000
         H            1.034222071231     1.132576087302     1.639444843160     1.007825032230
         H            2.219993071231     2.470113087302     1.721895843160     1.007825032230
         H            0.633344071231     2.712808087302     0.938056843160     1.007825032230

  Basis Set: AUG-CC-PVTZ
    Blend: AUG-CC-PVTZ
  Basis Set: (AUG-CC-PVTZ AUX)
    Blend: AUG-CC-PVTZ-JKFIT
	 Reference Energy          =   -1810.6860703193940481 [Eh]
	 Singles Energy            =      -0.0000000000000000 [Eh]
	 Same-Spin Energy          =      -0.9128973314883586 [Eh]
	 Opposite-Spin Energy      =      -2.5252207182739399 [Eh]
	 Correlation Energy        =      -3.4381180497622985 [Eh]
	 Total Energy              =   -1814.1241883691563999 [Eh]

	 ================> DF-SCS-MP2 Energies <==================
	-----------------------------------------------------------
	 SCS Same-Spin Scale       =       0.3333333333333333 [-]
	 SCS Opposite-Spin Scale   =       1.2000000000000000 [-]
	 SCS Same-Spin Energy      =      -0.3042991104961195 [Eh]
	 SCS Opposite-Spin Energy  =      -3.0302648619287278 [Eh]
	 SCS Correlation Energy    =      -3.3345639724248475 [Eh]
	 SCS Total Energy          =   -1814.0206342918188511 [Eh]
	-----------------------------------------------------------

  Dipole Moment: [D]
     X:     9.5075      Y:     2.5719      Z:     1.4111     Total:     9.9498

*** Psi4 exiting successfully. Buy a developer a beer!
