                               Psi4 1.3.2 release

  ==> Input File <==

--------------------------------------------------------------------------
#psi4
#
memory 32 gb

molecule  {
-4 1
  P        2.5828670     0.0826120    -0.3559070
  P       -0.1833470    -1.1435920     0.2927960
  P       -2.7088530     0.4754690    -0.2006980
  O        1.9534540     1.6068400    -0.1842610
  O        1.4120755    -0.7619810    -0.5221307
  O        3.2679280     0.0927970    -1.6978490
  O        3.3289310    -0.2934220     0.9022790
  O       -0.9881700     0.1612780    -0.2225170
  O        0.0932830    -1.0798150     1.7822090
  O       -0.7150640    -2.4305380    -0.3003910
  O       -3.2327710    -0.2685190     1.0414150
  O       -2.7128520     2.0086770    -0.0959300
  O       -3.2113930    -0.0752120    -1.5473660
  C        1.4216660     1.9681570     1.1052990
  H        1.0169430     1.1016800     1.6278780
  H        2.2027140     2.4392170     1.7103290
  H        0.6160650     2.6819120     0.9264900
units angstrom
no_reorient  #important for SAPT in psi4, default
symmetry c1  #important for SAPT in psi4, default
}

set PROPERTIES_ORIGIN ["COM"]
properties('MP2/aug-cc-pvtz', properties = ['dipole'])
--------------------------------------------------------------------------

    Molecular point group: c1
  Charge       = -4
  Multiplicity = 1
  Basis Set: AUG-CC-PVTZ
    Blend: AUG-CC-PVTZ
  Basis Set: (AUG-CC-PVTZ AUX)
    Blend: AUG-CC-PVTZ-JKFIT

    Orbital Energies [Eh]
    ---------------------

    Doubly Occupied:

       1A    -79.556762     2A    -79.529679     3A    -79.488905
       4A    -20.065264     5A    -20.028783     6A    -20.010054
       7A    -19.977317     8A    -19.975474     9A    -19.974091
      10A    -19.967299    11A    -19.930596    12A    -19.927092
      13A    -19.925847    14A    -10.803007    15A     -7.068163
      16A     -7.049592    17A     -7.002467    18A     -4.967467
      19A     -4.965720    20A     -4.964764    21A     -4.949092
      22A     -4.947531    23A     -4.946164    24A     -4.902010
      25A     -4.899645    26A     -4.899517    27A     -0.908617
      28A     -0.847195    29A     -0.820067    30A     -0.768684
      31A     -0.755766    32A     -0.734855    33A     -0.726144
      34A     -0.719335    35A     -0.670670    36A     -0.667299
      37A     -0.456079    38A     -0.298102    39A     -0.230506
      40A     -0.184848    41A     -0.158330    42A     -0.138575
      43A     -0.124914    44A     -0.103626    45A     -0.086719
      46A     -0.071975    47A     -0.055027    48A     -0.051635
      49A     -0.035509    50A     -0.017245    51A     -0.006207
      52A      0.003821    53A      0.008047    54A      0.018625
      55A      0.027670    56A      0.034125    57A      0.046126
      58A      0.066777    59A      0.066884    60A      0.075724
      61A      0.087336    62A      0.092837    63A      0.094751
      64A      0.096538    65A      0.100999    66A      0.107630
      67A      0.136265    68A      0.141302    69A      0.164445

  @DF-RHF Final Energy: -1810.66931365109781

   => Energetics <=

    Nuclear Repulsion Energy =           1465.4090987662709722
    One-Electron Energy =               -5506.1761702207513736
    Two-Electron Energy =                2230.0977578033825921
    Total Energy =                      -1810.6693136510975819
  Basis Set: (AUG-CC-PVTZ AUX)
    Blend: AUG-CC-PVTZ-RI
    Molecular point group: c1

    Geometry (in Angstrom), charge = -4, multiplicity = 1:

       Center              X                  Y                   Z               Mass
    ------------   -----------------  -----------------  -----------------  -----------------
         P            2.588558217466     0.100824894307    -0.340535716594    30.973761998420
         P           -0.177655782534    -1.125379105693     0.308167283406    30.973761998420
         P           -2.703161782534     0.493681894307    -0.185326716594    30.973761998420
         O            1.959145217466     1.625052894307    -0.168889716594    15.994914619570
         O            1.417766717466    -0.743768105693    -0.506759416594    15.994914619570
         O            3.273619217466     0.111009894307    -1.682477716594    15.994914619570
         O            3.334622217466    -0.275209105693     0.917650283406    15.994914619570
         O           -0.982478782534     0.179490894307    -0.207145716594    15.994914619570
         O            0.098974217466    -1.061602105693     1.797580283406    15.994914619570
         O           -0.709372782534    -2.412325105693    -0.285019716594    15.994914619570
         O           -3.227079782534    -0.250306105693     1.056786283406    15.994914619570
         O           -2.707160782534     2.026889894307    -0.080558716594    15.994914619570
         O           -3.205701782534    -0.056999105693    -1.531994716594    15.994914619570
         C            1.427357217466     1.986369894307     1.120670283406    12.000000000000
         H            1.022634217466     1.119892894307     1.643249283406     1.007825032230
         H            2.208405217466     2.457429894307     1.725700283406     1.007825032230
         H            0.621756217466     2.700124894307     0.941861283406     1.007825032230

  Basis Set: AUG-CC-PVTZ
    Blend: AUG-CC-PVTZ
  Basis Set: (AUG-CC-PVTZ AUX)
    Blend: AUG-CC-PVTZ-JKFIT
	 Reference Energy          =   -1810.6693136510978093 [Eh]
	 Singles Energy            =      -0.0000000000000000 [Eh]
	 Same-Spin Energy          =      -0.9123179148693935 [Eh]
	 Opposite-Spin Energy      =      -2.5235267395940406 [Eh]
	 Correlation Energy        =      -3.4358446544634340 [Eh]
	 Total Energy              =   -1814.1051583055611900 [Eh]

	 ================> DF-SCS-MP2 Energies <==================
	-----------------------------------------------------------
	 SCS Same-Spin Scale       =       0.3333333333333333 [-]
	 SCS Opposite-Spin Scale   =       1.2000000000000000 [-]
	 SCS Same-Spin Energy      =      -0.3041059716231311 [Eh]
	 SCS Opposite-Spin Energy  =      -3.0282320875128486 [Eh]
	 SCS Correlation Energy    =      -3.3323380591359797 [Eh]
	 SCS Total Energy          =   -1814.0016517102337730 [Eh]
	-----------------------------------------------------------

  Dipole Moment: [D]
     X:     7.0490      Y:     1.3883      Z:     1.8477     Total:     7.4182

*** Psi4 exiting successfully. Buy a developer a beer!
