                               Psi4 1.3.2 release

  ==> Input File <==

--------------------------------------------------------------------------
#psi4
#
memory 32 gb

molecule  {
-4 1
  P        2.5828670     0.0826120    -0.3559070
  P       -0.1833470    -1.1435920     0.2927960
  P       -2.7088530     0.4754690    -0.2006980
  O        1.9534540     1.6068400    -0.1842610
  O        1.2509400    -0.8782220    -0.5450080
  O        3.2226030     0.1078920    -1.7198423
  O        3.2846279    -0.2856407     0.9297705
  O       -0.9881700     0.1612780    -0.2225170
  O        0.0932830    -1.0798150     1.7822090
  O       -0.7150640    -2.4305380    -0.3003910
  O       -3.2327710    -0.2685190     1.0414150
  O       -2.7128520     2.0086770    -0.0959300
  O       -3.2113930    -0.0752120    -1.5473660
  C        1.4216660     1.9681570     1.1052990
  H        1.0169430     1.1016800     1.6278780
  H        2.2027140     2.4392170     1.7103290
  H        0.6160650     2.6819120     0.9264900
units angstrom
no_reorient  #important for SAPT in psi4, default
symmetry c1  #important for SAPT in psi4, default
}

set PROPERTIES_ORIGIN ["COM"]
properties('MP2/aug-cc-pvtz', properties = ['dipole'])
--------------------------------------------------------------------------

    Molecular point group: c1
  Charge       = -4
  Multiplicity = 1
  Basis Set: AUG-CC-PVTZ
    Blend: AUG-CC-PVTZ
  Basis Set: (AUG-CC-PVTZ AUX)
    Blend: AUG-CC-PVTZ-JKFIT

    Orbital Energies [Eh]
    ---------------------

    Doubly Occupied:

       1A    -79.572727     2A    -79.525015     3A    -79.478777
       4A    -20.082627     5A    -20.034714     6A    -20.005829
       7A    -20.005361     8A    -19.991412     9A    -19.948220
      10A    -19.943734    11A    -19.922888    12A    -19.918221
      13A    -19.916367    14A    -10.809349    15A     -7.086563
      16A     -7.037940    17A     -6.992277    18A     -4.985530
      19A     -4.984697    20A     -4.983649    21A     -4.937204
      22A     -4.935843    23A     -4.934912    24A     -4.891734
      25A     -4.889556    26A     -4.889407    27A     -0.900644
      28A     -0.843357    29A     -0.805846    30A     -0.776316
      31A     -0.761915    32A     -0.740340    33A     -0.712143
      34A     -0.697960    35A     -0.662424    36A     -0.658052
      37A     -0.464544    38A     -0.291750    39A     -0.232944
      40A     -0.182475    41A     -0.162383    42A     -0.147020
      43A     -0.125815    44A     -0.097640    45A     -0.082579
      46A     -0.063575    47A     -0.051739    48A     -0.042520
      49A     -0.030714    50A     -0.015153    51A     -0.004641
      52A      0.001271    53A      0.010919    54A      0.014816
      55A      0.022997    56A      0.037559    57A      0.048772
      58A      0.051936    59A      0.065148    60A      0.071645
      61A      0.092632    62A      0.101653    63A      0.103592
      64A      0.105066    65A      0.115463    66A      0.126845
      67A      0.145601    68A      0.151602    69A      0.173061

  @DF-RHF Final Energy: -1810.68600634061704

   => Energetics <=

    Nuclear Repulsion Energy =           1464.1637992524690617
    One-Electron Energy =               -5504.0626823648262871
    Two-Electron Energy =                2229.2128767717399569
    Total Energy =                      -1810.6860063406170411
  Basis Set: (AUG-CC-PVTZ AUX)
    Blend: AUG-CC-PVTZ-RI
    Molecular point group: c1

    Geometry (in Angstrom), charge = -4, multiplicity = 1:

       Center              X                  Y                   Z               Mass
    ------------   -----------------  -----------------  -----------------  -----------------
         P            2.603530347338     0.106399341371    -0.339498077390    30.973761998420
         P           -0.162683652662    -1.119804658629     0.309204922610    30.973761998420
         P           -2.688189652662     0.499256341371    -0.184289077390    30.973761998420
         O            1.974117347338     1.630627341371    -0.167852077390    15.994914619570
         O            1.271603347338    -0.854434658629    -0.528599077390    15.994914619570
         O            3.243266347338     0.131679341371    -1.703433377390    15.994914619570
         O            3.305291247338    -0.261853358629     0.946179422610    15.994914619570
         O           -0.967506652662     0.185065341371    -0.206108077390    15.994914619570
         O            0.113946347338    -1.056027658629     1.798617922610    15.994914619570
         O           -0.694400652662    -2.406750658629    -0.283982077390    15.994914619570
         O           -3.212107652662    -0.244731658629     1.057823922610    15.994914619570
         O           -2.692188652662     2.032464341371    -0.079521077390    15.994914619570
         O           -3.190729652662    -0.051424658629    -1.530957077390    15.994914619570
         C            1.442329347338     1.991944341371     1.121707922610    12.000000000000
         H            1.037606347338     1.125467341371     1.644286922610     1.007825032230
         H            2.223377347338     2.463004341371     1.726737922610     1.007825032230
         H            0.636728347338     2.705699341371     0.942898922610     1.007825032230

  Basis Set: AUG-CC-PVTZ
    Blend: AUG-CC-PVTZ
  Basis Set: (AUG-CC-PVTZ AUX)
    Blend: AUG-CC-PVTZ-JKFIT
	 Reference Energy          =   -1810.6860063406170411 [Eh]
	 Singles Energy            =      -0.0000000000000000 [Eh]
	 Same-Spin Energy          =      -0.9133324520867308 [Eh]
	 Opposite-Spin Energy      =      -2.5263636950081336 [Eh]
	 Correlation Energy        =      -3.4396961470948644 [Eh]
	 Total Energy              =   -1814.1257024877118056 [Eh]

	 ================> DF-SCS-MP2 Energies <==================
	-----------------------------------------------------------
	 SCS Same-Spin Scale       =       0.3333333333333333 [-]
	 SCS Opposite-Spin Scale   =       1.2000000000000000 [-]
	 SCS Same-Spin Energy      =      -0.3044441506955769 [Eh]
	 SCS Opposite-Spin Energy  =      -3.0316364340097604 [Eh]
	 SCS Correlation Energy    =      -3.3360805847053374 [Eh]
	 SCS Total Energy          =   -1814.0220869253223555 [Eh]
	-----------------------------------------------------------

  Dipole Moment: [D]
     X:     9.5412      Y:     2.2787      Z:     1.5807     Total:     9.9360

*** Psi4 exiting successfully. Buy a developer a beer!
