                               Psi4 1.3.2 release

  ==> Input File <==

--------------------------------------------------------------------------
#psi4
#
memory 32 gb

molecule  {
-4 1
  P        2.5828670     0.0826120    -0.3559070
  P       -0.1833470    -1.1435920     0.2927960
  P       -2.7088530     0.4754690    -0.2006980
  O        1.9502439     1.5948636    -0.1821678
  O        1.2509400    -0.8782220    -0.5450080
  O        3.2679280     0.0927970    -1.6978490
  O        3.3289310    -0.2934220     0.9022790
  O       -0.9881700     0.1612780    -0.2225170
  O        0.0932830    -1.0798150     1.7822090
  O       -0.7150640    -2.4305380    -0.3003910
  O       -3.2327710    -0.2685190     1.0414150
  O       -2.7128520     2.0086770    -0.0959300
  O       -3.2113930    -0.0752120    -1.5473660
  C        1.4216660     1.9681570     1.1052990
  H        1.0193385     1.0961680     1.6205074
  H        2.2027140     2.4392170     1.7103290
  H        0.6160650     2.6819120     0.9264900
units angstrom
no_reorient  #important for SAPT in psi4, default
symmetry c1  #important for SAPT in psi4, default
}

set PROPERTIES_ORIGIN ["COM"]
properties('MP2/aug-cc-pvtz', properties = ['dipole'])
--------------------------------------------------------------------------

    Molecular point group: c1
  Charge       = -4
  Multiplicity = 1
  Basis Set: AUG-CC-PVTZ
    Blend: AUG-CC-PVTZ
  Basis Set: (AUG-CC-PVTZ AUX)
    Blend: AUG-CC-PVTZ-JKFIT

    Orbital Energies [Eh]
    ---------------------

    Doubly Occupied:

       1A    -79.571469     2A    -79.526613     3A    -79.479791
       4A    -20.085299     5A    -20.037276     6A    -20.002146
       7A    -20.002075     8A    -19.992799     9A    -19.949914
      10A    -19.944950    11A    -19.923910    12A    -19.919135
      13A    -19.917304    14A    -10.812403    15A     -7.085430
      16A     -7.039543    17A     -6.993295    18A     -4.984411
      19A     -4.983427    20A     -4.982620    21A     -4.938817
      22A     -4.937436    23A     -4.936508    24A     -4.892755
      25A     -4.890571    26A     -4.890421    27A     -0.903673
      28A     -0.845344    29A     -0.806311    30A     -0.777635
      31A     -0.757125    32A     -0.741797    33A     -0.713397
      34A     -0.699373    35A     -0.663417    36A     -0.658983
      37A     -0.468164    38A     -0.293462    39A     -0.234988
      40A     -0.184454    41A     -0.165065    42A     -0.150106
      43A     -0.125651    44A     -0.098799    45A     -0.082640
      46A     -0.064728    47A     -0.051972    48A     -0.043228
      49A     -0.031866    50A     -0.015929    51A     -0.006876
      52A      0.000299    53A      0.009494    54A      0.015020
      55A      0.021711    56A      0.037644    57A      0.047591
      58A      0.054088    59A      0.067470    60A      0.071264
      61A      0.091328    62A      0.100599    63A      0.102428
      64A      0.104002    65A      0.114169    66A      0.125501
      67A      0.144571    68A      0.150581    69A      0.172112

  @DF-RHF Final Energy: -1810.68933209949955

   => Energetics <=

    Nuclear Repulsion Energy =           1463.4683739071838318
    One-Electron Energy =               -5502.5645556144972943
    Two-Electron Energy =                2228.4068496078139106
    Total Energy =                      -1810.6893320994995520
  Basis Set: (AUG-CC-PVTZ AUX)
    Blend: AUG-CC-PVTZ-RI
    Molecular point group: c1

    Geometry (in Angstrom), charge = -4, multiplicity = 1:

       Center              X                  Y                   Z               Mass
    ------------   -----------------  -----------------  -----------------  -----------------
         P            2.598361649063     0.108500998321    -0.339267049517    30.973761998420
         P           -0.167852350937    -1.117703001679     0.309435950483    30.973761998420
         P           -2.693358350937     0.501357998321    -0.184058049517    30.973761998420
         O            1.965738549063     1.620752598321    -0.165527849517    15.994914619570
         O            1.266434649063    -0.852333001679    -0.528368049517    15.994914619570
         O            3.283422649063     0.118685998321    -1.681209049517    15.994914619570
         O            3.344425649063    -0.267533001679     0.918918950483    15.994914619570
         O           -0.972675350937     0.187166998321    -0.205877049517    15.994914619570
         O            0.108777649063    -1.053926001679     1.798848950483    15.994914619570
         O           -0.699569350937    -2.404649001679    -0.283751049517    15.994914619570
         O           -3.217276350937    -0.242630001679     1.058054950483    15.994914619570
         O           -2.697357350937     2.034565998321    -0.079290049517    15.994914619570
         O           -3.195898350937    -0.049323001679    -1.530726049517    15.994914619570
         C            1.437160649063     1.994045998321     1.121938950483    12.000000000000
         H            1.034833149063     1.122056998321     1.637147350483     1.007825032230
         H            2.218208649063     2.465105998321     1.726968950483     1.007825032230
         H            0.631559649063     2.707800998321     0.943129950483     1.007825032230

  Basis Set: AUG-CC-PVTZ
    Blend: AUG-CC-PVTZ
  Basis Set: (AUG-CC-PVTZ AUX)
    Blend: AUG-CC-PVTZ-JKFIT
	 Reference Energy          =   -1810.6893320994995520 [Eh]
	 Singles Energy            =      -0.0000000000000000 [Eh]
	 Same-Spin Energy          =      -0.9129137993675206 [Eh]
	 Opposite-Spin Energy      =      -2.5254534450779307 [Eh]
	 Correlation Energy        =      -3.4383672444454514 [Eh]
	 Total Energy              =   -1814.1276993439450962 [Eh]

	 ================> DF-SCS-MP2 Energies <==================
	-----------------------------------------------------------
	 SCS Same-Spin Scale       =       0.3333333333333333 [-]
	 SCS Opposite-Spin Scale   =       1.2000000000000000 [-]
	 SCS Same-Spin Energy      =      -0.3043045997891735 [Eh]
	 SCS Opposite-Spin Energy  =      -3.0305441340935166 [Eh]
	 SCS Correlation Energy    =      -3.3348487338826902 [Eh]
	 SCS Total Energy          =   -1814.0241808333821609 [Eh]
	-----------------------------------------------------------

  Dipole Moment: [D]
     X:     9.2529      Y:     2.3886      Z:     1.6156     Total:     9.6918

*** Psi4 exiting successfully. Buy a developer a beer!
