                               Psi4 1.4a3.dev225

  ==> Input File <==

--------------------------------------------------------------------------
#psi4
#
memory 32 gb

molecule  {
-4 1
  P       -2.5202440    -0.2449420     0.3712220
  P        0.3565170    -0.5960480    -0.3589090
  P        3.1750170     0.3881900     0.1554910
  O       -2.7927880     1.3311510    -0.1150520
  O       -0.9169740    -0.0836090     0.6422800
  O       -3.1856250    -0.4605710     1.7148300
  O       -2.8507450    -1.1694890    -0.7786080
  O        1.4898640     0.0841660     0.5723090
  O        0.2127210     0.0849480    -1.7048820
  O        0.4027150    -2.1095660    -0.2874290
  O        3.5327910    -0.6840640    -0.8835370
  O        3.1643710     1.8286230    -0.3742880
  O        3.8424771     0.2076135     1.5490358
  C       -4.1398760     1.5889580    -0.5252390
  H       -4.4292020     0.9309370    -1.3496150
  H       -4.8386320     1.4471050     0.3059850
  H       -4.1840730     2.6280350    -0.8559160
units angstrom
no_reorient  #important for SAPT in psi4, default
symmetry c1  #important for SAPT in psi4, default
}

set PROPERTIES_ORIGIN ["COM"]
properties('MP2/aug-cc-pvtz', properties = ['dipole'])
--------------------------------------------------------------------------

    Molecular point group: c1
  Charge       = -4
  Multiplicity = 1
  Basis Set: AUG-CC-PVTZ
    Blend: AUG-CC-PVTZ
  Basis Set: (AUG-CC-PVTZ AUX)
    Blend: AUG-CC-PVTZ-JKFIT

    Orbital Energies [Eh]
    ---------------------

    Doubly Occupied:

       1A    -79.581085     2A    -79.518036     3A    -79.479263
       4A    -20.119419     5A    -20.042317     6A    -20.015323
       7A    -20.005331     8A    -19.985684     9A    -19.937538
      10A    -19.935961    11A    -19.923265    12A    -19.918964
      13A    -19.915143    14A    -10.883656    15A     -7.095360
      16A     -7.031092    17A     -6.992396    18A     -4.994507
      19A     -4.993198    20A     -4.992289    21A     -4.930490
      22A     -4.928921    23A     -4.927766    24A     -4.891836
      25A     -4.889621    26A     -4.889577    27A     -0.931618
      28A     -0.854008    29A     -0.807447    30A     -0.777875
      31A     -0.761545    32A     -0.735897    33A     -0.706067
      34A     -0.687633    35A     -0.659608    36A     -0.657932
      37A     -0.528476    38A     -0.309020    39A     -0.252740
      40A     -0.220984    41A     -0.196976    42A     -0.165784
      43A     -0.140711    44A     -0.108706    45A     -0.094792
      46A     -0.079679    47A     -0.063364    48A     -0.052383
      49A     -0.035372    50A     -0.025743    51A     -0.012855
      52A     -0.010095    53A      0.009212    54A      0.011620
      55A      0.023114    56A      0.034024    57A      0.047740
      58A      0.054256    59A      0.061764    60A      0.080843
      61A      0.097458    62A      0.103608    63A      0.106399
      64A      0.108761    65A      0.124276    66A      0.134839
      67A      0.147824    68A      0.153311    69A      0.173516

  @DF-RHF Final Energy: -1810.67442954744433

   => Energetics <=

    Nuclear Repulsion Energy =           1424.7014592890666336
    One-Electron Energy =               -5424.3062115939137584
    Two-Electron Energy =                2188.9303227574032462
    Total Energy =                      -1810.6744295474441060
  Basis Set: (AUG-CC-PVTZ AUX)
    Blend: AUG-CC-PVTZ-RI
    Molecular point group: c1

    Geometry (in Angstrom), charge = -4, multiplicity = 1:

       Center              X                  Y                   Z               Mass
    ------------   -----------------  -----------------  -----------------  -----------------
         P           -2.574197997592    -0.224635465598     0.362513022233    30.973761998420
         P            0.302563002408    -0.575741465598    -0.367617977767    30.973761998420
         P            3.121063002408     0.408496534402     0.146782022233    30.973761998420
         O           -2.846741997592     1.351457534402    -0.123760977767    15.994914619570
         O           -0.970927997592    -0.063302465598     0.633571022233    15.994914619570
         O           -3.239578997592    -0.440264465598     1.706121022233    15.994914619570
         O           -2.904698997592    -1.149182465598    -0.787316977767    15.994914619570
         O            1.435910002408     0.104472534402     0.563600022233    15.994914619570
         O            0.158767002408     0.105254534402    -1.713590977767    15.994914619570
         O            0.348761002408    -2.089259465598    -0.296137977767    15.994914619570
         O            3.478837002408    -0.663757465598    -0.892245977767    15.994914619570
         O            3.110417002408     1.848929534402    -0.382996977767    15.994914619570
         O            3.788523102408     0.227920034402     1.540326822233    15.994914619570
         C           -4.193829997592     1.609264534402    -0.533947977767    12.000000000000
         H           -4.483155997592     0.951243534402    -1.358323977767     1.007825032230
         H           -4.892585997592     1.467411534402     0.297276022233     1.007825032230
         H           -4.238026997592     2.648341534402    -0.864624977767     1.007825032230

  Basis Set: AUG-CC-PVTZ
    Blend: AUG-CC-PVTZ
  Basis Set: (AUG-CC-PVTZ AUX)
    Blend: AUG-CC-PVTZ-JKFIT
	 Reference Energy          =   -1810.6744295474443334 [Eh]
	 Singles Energy            =      -0.0000000000000000 [Eh]
	 Same-Spin Energy          =      -0.9127226050913737 [Eh]
	 Opposite-Spin Energy      =      -2.5261519439546638 [Eh]
	 Correlation Energy        =      -3.4388745490460373 [Eh]
	 Total Energy              =   -1814.1133040964903103 [Eh]

	 ================> DF-SCS-MP2 Energies <==================
	-----------------------------------------------------------
	 SCS Same-Spin Scale       =       0.3333333333333333 [-]
	 SCS Opposite-Spin Scale   =       1.2000000000000000 [-]
	 SCS Same-Spin Energy      =      -0.3042408683637912 [Eh]
	 SCS Opposite-Spin Energy  =      -3.0313823327455967 [Eh]
	 SCS Correlation Energy    =      -3.3356232011093878 [Eh]
	 SCS Total Energy          =   -1814.0100527485537896 [Eh]
	-----------------------------------------------------------

  Dipole Moment: [D]
     X:   -15.0783      Y:     2.7265      Z:    -0.1424     Total:    15.3235

*** Psi4 exiting successfully. Buy a developer a beer!
