                               Psi4 1.3.2 release

  ==> Input File <==

--------------------------------------------------------------------------
#psi4
#
memory 32 gb

molecule  {
-4 1
  P        2.5828670     0.0826120    -0.3559070
  P       -0.1833470    -1.1435920     0.2927960
  P       -2.7088530     0.4754690    -0.2006980
  O        1.9534540     1.6068400    -0.1842610
  O        1.2509400    -0.8782220    -0.5450080
  O        3.2679280     0.0927970    -1.6978490
  O        3.2301350    -0.2436265     0.7356664
  O       -0.9881700     0.1612780    -0.2225170
  O        0.0932830    -1.0798150     1.7822090
  O       -0.7150640    -2.4305380    -0.3003910
  O       -3.2327710    -0.2685190     1.0414150
  O       -2.7128520     2.0086770    -0.0959300
  O       -3.2113930    -0.0752120    -1.5473660
  C        1.4216660     1.9681570     1.1052990
  H        1.0169430     1.1016800     1.6278780
  H        2.2027140     2.4392170     1.7103290
  H        0.6160650     2.6819120     0.9264900
units angstrom
no_reorient  #important for SAPT in psi4, default
symmetry c1  #important for SAPT in psi4, default
}

set PROPERTIES_ORIGIN ["COM"]
properties('MP2/aug-cc-pvtz', properties = ['dipole'])
--------------------------------------------------------------------------

    Molecular point group: c1
  Charge       = -4
  Multiplicity = 1
  Basis Set: AUG-CC-PVTZ
    Blend: AUG-CC-PVTZ
  Basis Set: (AUG-CC-PVTZ AUX)
    Blend: AUG-CC-PVTZ-JKFIT

    Orbital Energies [Eh]
    ---------------------

    Doubly Occupied:

       1A    -79.524814     2A    -79.521683     3A    -79.476839
       4A    -20.070047     5A    -20.022045     6A    -19.991409
       7A    -19.988358     8A    -19.984451     9A    -19.947766
      10A    -19.940698    11A    -19.921094    12A    -19.916364
      13A    -19.914833    14A    -10.807067    15A     -7.052238
      16A     -7.034532    17A     -6.990330    18A     -4.952676
      19A     -4.948885    20A     -4.947778    21A     -4.933736
      22A     -4.932484    23A     -4.931586    24A     -4.889775
      25A     -4.887621    26A     -4.887473    27A     -0.922578
      28A     -0.846634    29A     -0.831703    30A     -0.783207
      31A     -0.756449    32A     -0.736578    33A     -0.710065
      34A     -0.696044    35A     -0.660656    36A     -0.656359
      37A     -0.460447    38A     -0.280851    39A     -0.228570
      40A     -0.181846    41A     -0.160249    42A     -0.141829
      43A     -0.133900    44A     -0.102036    45A     -0.088146
      46A     -0.066770    47A     -0.056561    48A     -0.046841
      49A     -0.033942    50A     -0.014368    51A     -0.011495
      52A     -0.000033    53A      0.007763    54A      0.017145
      55A      0.024052    56A      0.041557    57A      0.048320
      58A      0.053970    59A      0.066087    60A      0.075876
      61A      0.096260    62A      0.103401    63A      0.105642
      64A      0.107151    65A      0.117790    66A      0.128707
      67A      0.147418    68A      0.153482    69A      0.174761

  @DF-RHF Final Energy: -1810.64291097236082

   => Energetics <=

    Nuclear Repulsion Energy =           1473.7758036360846745
    One-Electron Energy =               -5523.7267116389366493
    Two-Electron Energy =                2239.3079970304911512
    Total Energy =                      -1810.6429109723608235
  Basis Set: (AUG-CC-PVTZ AUX)
    Blend: AUG-CC-PVTZ-RI
    Molecular point group: c1

    Geometry (in Angstrom), charge = -4, multiplicity = 1:

       Center              X                  Y                   Z               Mass
    ------------   -----------------  -----------------  -----------------  -----------------
         P            2.604077727378     0.104792099496    -0.329222003630    30.973761998420
         P           -0.162136272622    -1.121411900504     0.319480996370    30.973761998420
         P           -2.687642272622     0.497649099496    -0.174013003630    30.973761998420
         O            1.974664727378     1.629020099496    -0.157576003630    15.994914619570
         O            1.272150727378    -0.856041900504    -0.518323003630    15.994914619570
         O            3.289138727378     0.114977099496    -1.671164003630    15.994914619570
         O            3.251345727378    -0.221446400504     0.762351396370    15.994914619570
         O           -0.966959272622     0.183458099496    -0.195832003630    15.994914619570
         O            0.114493727378    -1.057634900504     1.808893996370    15.994914619570
         O           -0.693853272622    -2.408357900504    -0.273706003630    15.994914619570
         O           -3.211560272622    -0.246338900504     1.068099996370    15.994914619570
         O           -2.691641272622     2.030857099496    -0.069245003630    15.994914619570
         O           -3.190182272622    -0.053031900504    -1.520681003630    15.994914619570
         C            1.442876727378     1.990337099496     1.131983996370    12.000000000000
         H            1.038153727378     1.123860099496     1.654562996370     1.007825032230
         H            2.223924727378     2.461397099496     1.737013996370     1.007825032230
         H            0.637275727378     2.704092099496     0.953174996370     1.007825032230

  Basis Set: AUG-CC-PVTZ
    Blend: AUG-CC-PVTZ
  Basis Set: (AUG-CC-PVTZ AUX)
    Blend: AUG-CC-PVTZ-JKFIT
	 Reference Energy          =   -1810.6429109723608235 [Eh]
	 Singles Energy            =      -0.0000000000000000 [Eh]
	 Same-Spin Energy          =      -0.9090866909709063 [Eh]
	 Opposite-Spin Energy      =      -2.5160742134845648 [Eh]
	 Correlation Energy        =      -3.4251609044554714 [Eh]
	 Total Energy              =   -1814.0680718768162478 [Eh]

	 ================> DF-SCS-MP2 Energies <==================
	-----------------------------------------------------------
	 SCS Same-Spin Scale       =       0.3333333333333333 [-]
	 SCS Opposite-Spin Scale   =       1.2000000000000000 [-]
	 SCS Same-Spin Energy      =      -0.3030288969903021 [Eh]
	 SCS Opposite-Spin Energy  =      -3.0192890561814778 [Eh]
	 SCS Correlation Energy    =      -3.3223179531717797 [Eh]
	 SCS Total Energy          =   -1813.9652289255325286 [Eh]
	-----------------------------------------------------------

  Dipole Moment: [D]
     X:    10.1353      Y:     2.0686      Z:     2.4265     Total:    10.6250

*** Psi4 exiting successfully. Buy a developer a beer!
