                               Psi4 1.3.2 release

  ==> Input File <==

--------------------------------------------------------------------------
#psi4
#
memory 32 gb

molecule  {
-4 1
  P        2.5828670     0.0826120    -0.3559070
  P       -0.1833470    -1.1435920     0.2927960
  P       -2.7088530     0.4754690    -0.2006980
  O        1.9534540     1.6068400    -0.1842610
  O        1.2275622    -0.8292689    -0.5674668
  O        3.2679280     0.0927970    -1.6978490
  O        3.3289310    -0.2934220     0.9022790
  O       -0.9430056     0.1758350    -0.2531018
  O        0.0932830    -1.0798150     1.7822090
  O       -0.7150640    -2.4305380    -0.3003910
  O       -3.2327710    -0.2685190     1.0414150
  O       -2.7128520     2.0086770    -0.0959300
  O       -3.2113930    -0.0752120    -1.5473660
  C        1.4216660     1.9681570     1.1052990
  H        1.0169430     1.1016800     1.6278780
  H        2.2027140     2.4392170     1.7103290
  H        0.6160650     2.6819120     0.9264900
units angstrom
no_reorient  #important for SAPT in psi4, default
symmetry c1  #important for SAPT in psi4, default
}

set PROPERTIES_ORIGIN ["COM"]
properties('MP2/aug-cc-pvtz', properties = ['dipole'])
--------------------------------------------------------------------------

    Molecular point group: c1
  Charge       = -4
  Multiplicity = 1
  Basis Set: AUG-CC-PVTZ
    Blend: AUG-CC-PVTZ
  Basis Set: (AUG-CC-PVTZ AUX)
    Blend: AUG-CC-PVTZ-JKFIT

    Orbital Energies [Eh]
    ---------------------

    Doubly Occupied:

       1A    -79.569678     2A    -79.524370     3A    -79.482889
       4A    -20.080924     5A    -20.033230     6A    -20.002805
       7A    -19.999966     8A    -19.989817     9A    -19.951373
      10A    -19.946655    11A    -19.925642    12A    -19.922039
      13A    -19.921400    14A    -10.809241    15A     -7.083538
      16A     -7.037549    17A     -6.996200    18A     -4.982519
      19A     -4.981512    20A     -4.980776    21A     -4.936919
      22A     -4.935278    23A     -4.934544    24A     -4.895581
      25A     -4.893428    26A     -4.893296    27A     -0.899111
      28A     -0.842555    29A     -0.802522    30A     -0.773101
      31A     -0.756240    32A     -0.742783    33A     -0.713491
      34A     -0.700347    35A     -0.665381    36A     -0.661741
      37A     -0.464018    38A     -0.291871    39A     -0.228468
      40A     -0.176204    41A     -0.159509    42A     -0.145101
      43A     -0.126144    44A     -0.099891    45A     -0.080647
      46A     -0.065574    47A     -0.049744    48A     -0.040337
      49A     -0.028546    50A     -0.013556    51A     -0.004445
      52A      0.000396    53A      0.011158    54A      0.015938
      55A      0.020125    56A      0.041154    57A      0.049003
      58A      0.054139    59A      0.066570    60A      0.072154
      61A      0.091218    62A      0.098839    63A      0.101066
      64A      0.104831    65A      0.113133    66A      0.124638
      67A      0.141458    68A      0.148213    69A      0.169537

  @DF-RHF Final Energy: -1810.68488414092508

   => Energetics <=

    Nuclear Repulsion Energy =           1462.9907648449986937
    One-Electron Energy =               -5501.7134438553093787
    Two-Electron Energy =                2228.0377948693853796
    Total Energy =                      -1810.6848841409250781
  Basis Set: (AUG-CC-PVTZ AUX)
    Blend: AUG-CC-PVTZ-RI
    Molecular point group: c1

    Geometry (in Angstrom), charge = -4, multiplicity = 1:

       Center              X                  Y                   Z               Mass
    ------------   -----------------  -----------------  -----------------  -----------------
         P            2.596878204212     0.103973253490    -0.336002771722    30.973761998420
         P           -0.169335795788    -1.122230746510     0.312700228278    30.973761998420
         P           -2.694841795788     0.496830253490    -0.180793771722    30.973761998420
         O            1.967465204212     1.628201253490    -0.164356771722    15.994914619570
         O            1.241573404212    -0.807907646510    -0.547562571722    15.994914619570
         O            3.281939204212     0.114158253490    -1.677944771722    15.994914619570
         O            3.342942204212    -0.272060746510     0.922183228278    15.994914619570
         O           -0.928994395788     0.197196253490    -0.233197571722    15.994914619570
         O            0.107294204212    -1.058453746510     1.802113228278    15.994914619570
         O           -0.701052795788    -2.409176746510    -0.280486771722    15.994914619570
         O           -3.218759795788    -0.247157746510     1.061319228278    15.994914619570
         O           -2.698840795788     2.030038253490    -0.076025771722    15.994914619570
         O           -3.197381795788    -0.053850746510    -1.527461771722    15.994914619570
         C            1.435677204212     1.989518253490     1.125203228278    12.000000000000
         H            1.030954204212     1.123041253490     1.647782228278     1.007825032230
         H            2.216725204212     2.460578253490     1.730233228278     1.007825032230
         H            0.630076204212     2.703273253490     0.946394228278     1.007825032230

  Basis Set: AUG-CC-PVTZ
    Blend: AUG-CC-PVTZ
  Basis Set: (AUG-CC-PVTZ AUX)
    Blend: AUG-CC-PVTZ-JKFIT
	 Reference Energy          =   -1810.6848841409250781 [Eh]
	 Singles Energy            =      -0.0000000000000000 [Eh]
	 Same-Spin Energy          =      -0.9136505655392274 [Eh]
	 Opposite-Spin Energy      =      -2.5273012148436100 [Eh]
	 Correlation Energy        =      -3.4409517803828376 [Eh]
	 Total Energy              =   -1814.1258359213079530 [Eh]

	 ================> DF-SCS-MP2 Energies <==================
	-----------------------------------------------------------
	 SCS Same-Spin Scale       =       0.3333333333333333 [-]
	 SCS Opposite-Spin Scale   =       1.2000000000000000 [-]
	 SCS Same-Spin Energy      =      -0.3045501885130758 [Eh]
	 SCS Opposite-Spin Energy  =      -3.0327614578123319 [Eh]
	 SCS Correlation Energy    =      -3.3373116463254076 [Eh]
	 SCS Total Energy          =   -1814.0221957872504390 [Eh]
	-----------------------------------------------------------

  Dipole Moment: [D]
     X:     8.9552      Y:     2.2706      Z:     1.6618     Total:     9.3869

*** Psi4 exiting successfully. Buy a developer a beer!
