                               Psi4 1.3.2 release

  ==> Input File <==

--------------------------------------------------------------------------
#psi4
#
memory 32 gb

molecule  {
-4 1
  P        2.5828670     0.0826120    -0.3559070
  P       -0.1833470    -1.1435920     0.2927960
  P       -2.7088530     0.4754690    -0.2006980
  O        1.9534540     1.6068400    -0.1842610
  O        1.2509400    -0.8782220    -0.5450080
  O        3.2679280     0.0927970    -1.6978490
  O        3.3289310    -0.2934220     0.9022790
  O       -0.9881700     0.1612780    -0.2225170
  O        0.0932830    -1.0798150     1.7822090
  O       -0.7150640    -2.4305380    -0.3003910
  O       -3.2327710    -0.2685190     1.0414150
  O       -2.7131122     2.1084440    -0.0891127
  O       -3.2113930    -0.0752120    -1.5473660
  C        1.4216660     1.9681570     1.1052990
  H        1.0169430     1.1016800     1.6278780
  H        2.2027140     2.4392170     1.7103290
  H        0.6160650     2.6819120     0.9264900
units angstrom
no_reorient  #important for SAPT in psi4, default
symmetry c1  #important for SAPT in psi4, default
}

set PROPERTIES_ORIGIN ["COM"]
properties('MP2/aug-cc-pvtz', properties = ['dipole'])
--------------------------------------------------------------------------

    Molecular point group: c1
  Charge       = -4
  Multiplicity = 1
  Basis Set: AUG-CC-PVTZ
    Blend: AUG-CC-PVTZ
  Basis Set: (AUG-CC-PVTZ AUX)
    Blend: AUG-CC-PVTZ-JKFIT

    Orbital Energies [Eh]
    ---------------------

    Doubly Occupied:

       1A    -79.573580     2A    -79.530769     3A    -79.497228
       4A    -20.085953     5A    -20.040555     6A    -20.003726
       7A    -20.003392     8A    -19.999687     9A    -19.952913
      10A    -19.948581    11A    -19.929929    12A    -19.928559
      13A    -19.926716    14A    -10.811342    15A     -7.087407
      16A     -7.043664    17A     -7.008295    18A     -4.986350
      19A     -4.985421    20A     -4.984587    21A     -4.942922
      22A     -4.941594    23A     -4.940603    24A     -4.907862
      25A     -4.905585    26A     -4.905182    27A     -0.902649
      28A     -0.847990    29A     -0.808627    30A     -0.778949
      31A     -0.758480    32A     -0.742115    33A     -0.714295
      34A     -0.702729    35A     -0.667250    36A     -0.643497
      37A     -0.466660    38A     -0.296153    39A     -0.237164
      40A     -0.187343    41A     -0.164917    42A     -0.148920
      43A     -0.127750    44A     -0.102141    45A     -0.084587
      46A     -0.067019    47A     -0.053993    48A     -0.045514
      49A     -0.034188    50A     -0.017719    51A     -0.007575
      52A     -0.000781    53A      0.009424    54A      0.014465
      55A      0.021411    56A      0.036378    57A      0.045703
      58A      0.052578    59A      0.065211    60A      0.069155
      61A      0.088470    62A      0.097409    63A      0.104558
      64A      0.107287    65A      0.112744    66A      0.122658
      67A      0.142815    68A      0.148421    69A      0.167847

  @DF-RHF Final Energy: -1810.67786940479527

   => Energetics <=

    Nuclear Repulsion Energy =           1458.4446382923374586
    One-Electron Energy =               -5492.0952638652852329
    Two-Electron Energy =                2222.9727561681525003
    Total Energy =                      -1810.6778694047952740
  Basis Set: (AUG-CC-PVTZ AUX)
    Blend: AUG-CC-PVTZ-RI
    Molecular point group: c1

    Geometry (in Angstrom), charge = -4, multiplicity = 1:

       Center              X                  Y                   Z               Mass
    ------------   -----------------  -----------------  -----------------  -----------------
         P            2.598194533826     0.101808493471    -0.339576835776    30.973761998420
         P           -0.168019466174    -1.124395506529     0.309126164224    30.973761998420
         P           -2.693525466174     0.494665493471    -0.184367835776    30.973761998420
         O            1.968781533826     1.626036493471    -0.167930835776    15.994914619570
         O            1.266267533826    -0.859025506529    -0.528677835776    15.994914619570
         O            3.283255533826     0.111993493471    -1.681518835776    15.994914619570
         O            3.344258533826    -0.274225506529     0.918609164224    15.994914619570
         O           -0.972842466174     0.180474493471    -0.206186835776    15.994914619570
         O            0.108610533826    -1.060618506529     1.798539164224    15.994914619570
         O           -0.699736466174    -2.411341506529    -0.284060835776    15.994914619570
         O           -3.217443466174    -0.249322506529     1.057745164224    15.994914619570
         O           -2.697784666174     2.127640493471    -0.072782535776    15.994914619570
         O           -3.196065466174    -0.056015506529    -1.531035835776    15.994914619570
         C            1.436993533826     1.987353493471     1.121629164224    12.000000000000
         H            1.032270533826     1.120876493471     1.644208164224     1.007825032230
         H            2.218041533826     2.458413493471     1.726659164224     1.007825032230
         H            0.631392533826     2.701108493471     0.942820164224     1.007825032230

  Basis Set: AUG-CC-PVTZ
    Blend: AUG-CC-PVTZ
  Basis Set: (AUG-CC-PVTZ AUX)
    Blend: AUG-CC-PVTZ-JKFIT
	 Reference Energy          =   -1810.6778694047952740 [Eh]
	 Singles Energy            =      -0.0000000000000000 [Eh]
	 Same-Spin Energy          =      -0.9147030276028009 [Eh]
	 Opposite-Spin Energy      =      -2.5303733739088461 [Eh]
	 Correlation Energy        =      -3.4450764015116468 [Eh]
	 Total Energy              =   -1814.1229458063069160 [Eh]

	 ================> DF-SCS-MP2 Energies <==================
	-----------------------------------------------------------
	 SCS Same-Spin Scale       =       0.3333333333333333 [-]
	 SCS Opposite-Spin Scale   =       1.2000000000000000 [-]
	 SCS Same-Spin Energy      =      -0.3049010092009336 [Eh]
	 SCS Opposite-Spin Energy  =      -3.0364480486906151 [Eh]
	 SCS Correlation Energy    =      -3.3413490578915486 [Eh]
	 SCS Total Energy          =   -1814.0192184626869221 [Eh]
	-----------------------------------------------------------

  Dipole Moment: [D]
     X:     9.3596      Y:     1.5235      Z:     1.5685     Total:     9.6116

*** Psi4 exiting successfully. Buy a developer a beer!
