                               Psi4 1.3.2 release

  ==> Input File <==

--------------------------------------------------------------------------
#psi4
#
memory 32 gb

molecule  {
-4 1
  P        2.5828670     0.0826120    -0.3559070
  P       -0.1833470    -1.1435920     0.2927960
  P       -2.7088530     0.4754690    -0.2006980
  O        1.9534540     1.6068400    -0.1842610
  O        1.2509400    -0.8782220    -0.5450080
  O        3.2679280     0.0927970    -1.6978490
  O        3.3289310    -0.2934220     0.9022790
  O       -0.9881700     0.1612780    -0.2225170
  O        0.0932830    -1.0798150     1.7822090
  O       -0.7150640    -2.4305380    -0.3003910
  O       -3.2327710    -0.2685190     1.0414150
  O       -2.7128520     2.0086770    -0.0959300
  O       -3.2113930    -0.0752120    -1.5473660
  C        1.4216660     1.9681570     1.1052990
  H        1.0051325     1.0986066     1.6132889
  H        2.2051816     2.4523150     1.6966442
  H        0.6160650     2.6819120     0.9264900
units angstrom
no_reorient  #important for SAPT in psi4, default
symmetry c1  #important for SAPT in psi4, default
}

set PROPERTIES_ORIGIN ["COM"]
properties('MP2/aug-cc-pvtz', properties = ['dipole'])
--------------------------------------------------------------------------

    Molecular point group: c1
  Charge       = -4
  Multiplicity = 1
  Basis Set: AUG-CC-PVTZ
    Blend: AUG-CC-PVTZ
  Basis Set: (AUG-CC-PVTZ AUX)
    Blend: AUG-CC-PVTZ-JKFIT

    Orbital Energies [Eh]
    ---------------------

    Doubly Occupied:

       1A    -79.572401     2A    -79.527021     3A    -79.479914
       4A    -20.085059     5A    -20.038308     6A    -20.002691
       7A    -20.002429     8A    -19.993101     9A    -19.950289
      10A    -19.945316    11A    -19.923953    12A    -19.919247
      13A    -19.917433    14A    -10.811530    15A     -7.086224
      16A     -7.039960    17A     -6.993419    18A     -4.985172
      19A     -4.984231    20A     -4.983411    21A     -4.939236
      22A     -4.937848    23A     -4.936921    24A     -4.892881
      25A     -4.890693    26A     -4.890544    27A     -0.901741
      28A     -0.845649    29A     -0.806635    30A     -0.778029
      31A     -0.757476    32A     -0.742138    33A     -0.713631
      34A     -0.699742    35A     -0.663490    36A     -0.659106
      37A     -0.466539    38A     -0.293642    39A     -0.234014
      40A     -0.183708    41A     -0.165808    42A     -0.148640
      43A     -0.125573    44A     -0.098983    45A     -0.082979
      46A     -0.065067    47A     -0.051764    48A     -0.043952
      49A     -0.031518    50A     -0.016208    51A     -0.006231
      52A      0.000005    53A      0.009643    54A      0.014845
      55A      0.021509    56A      0.037487    57A      0.047315
      58A      0.053678    59A      0.067043    60A      0.070888
      61A      0.090984    62A      0.100444    63A      0.102263
      64A      0.103846    65A      0.113841    66A      0.125176
      67A      0.144461    68A      0.150430    69A      0.172016

  @DF-RHF Final Energy: -1810.68883889670906

   => Energetics <=

    Nuclear Repulsion Energy =           1462.9791909623218089
    One-Electron Energy =               -5501.5648149418648245
    Two-Electron Energy =                2227.8967850828339579
    Total Energy =                      -1810.6888388967090577
  Basis Set: (AUG-CC-PVTZ AUX)
    Blend: AUG-CC-PVTZ-RI
    Molecular point group: c1

    Geometry (in Angstrom), charge = -4, multiplicity = 1:

       Center              X                  Y                   Z               Mass
    ------------   -----------------  -----------------  -----------------  -----------------
         P            2.598214146559     0.107727484389    -0.339063433747    30.973761998420
         P           -0.167999853441    -1.118476515611     0.309639566253    30.973761998420
         P           -2.693505853441     0.500584484389    -0.183854433747    30.973761998420
         O            1.968801146559     1.631955484389    -0.167417433747    15.994914619570
         O            1.266287146559    -0.853106515611    -0.528164433747    15.994914619570
         O            3.283275146559     0.117912484389    -1.681005433747    15.994914619570
         O            3.344278146559    -0.268306515611     0.919122566253    15.994914619570
         O           -0.972822853441     0.186393484389    -0.205673433747    15.994914619570
         O            0.108630146559    -1.054699515611     1.799052566253    15.994914619570
         O           -0.699716853441    -2.405422515611    -0.283547433747    15.994914619570
         O           -3.217423853441    -0.243403515611     1.058258566253    15.994914619570
         O           -2.697504853441     2.033792484389    -0.079086433747    15.994914619570
         O           -3.196045853441    -0.050096515611    -1.530522433747    15.994914619570
         C            1.437013146559     1.993272484389     1.122142566253    12.000000000000
         H            1.020479646559     1.123722084389     1.630132466253     1.007825032230
         H            2.220528746559     2.477430484389     1.713487766253     1.007825032230
         H            0.631412146559     2.707027484389     0.943333566253     1.007825032230

  Basis Set: AUG-CC-PVTZ
    Blend: AUG-CC-PVTZ
  Basis Set: (AUG-CC-PVTZ AUX)
    Blend: AUG-CC-PVTZ-JKFIT
	 Reference Energy          =   -1810.6888388967090577 [Eh]
	 Singles Energy            =      -0.0000000000000000 [Eh]
	 Same-Spin Energy          =      -0.9130305595140058 [Eh]
	 Opposite-Spin Energy      =      -2.5258122559687570 [Eh]
	 Correlation Energy        =      -3.4388428154827628 [Eh]
	 Total Energy              =   -1814.1276817121918157 [Eh]

	 ================> DF-SCS-MP2 Energies <==================
	-----------------------------------------------------------
	 SCS Same-Spin Scale       =       0.3333333333333333 [-]
	 SCS Opposite-Spin Scale   =       1.2000000000000000 [-]
	 SCS Same-Spin Energy      =      -0.3043435198380019 [Eh]
	 SCS Opposite-Spin Energy  =      -3.0309747071625082 [Eh]
	 SCS Correlation Energy    =      -3.3353182270005099 [Eh]
	 SCS Total Energy          =   -1814.0241571237095286 [Eh]
	-----------------------------------------------------------

  Dipole Moment: [D]
     X:     9.2454      Y:     2.3421      Z:     1.6054     Total:     9.6716

*** Psi4 exiting successfully. Buy a developer a beer!
