                               Psi4 1.3.2 release

  ==> Input File <==

--------------------------------------------------------------------------
#psi4
#
memory 32 gb

molecule  {
-4 1
  P        2.5828670     0.0826120    -0.3559070
  P       -0.1833470    -1.1435920     0.2927960
  P       -2.7088530     0.4754690    -0.2006980
  O        1.9534540     1.6068400    -0.1842610
  O        1.2725703    -0.9274985    -0.5215285
  O        3.2679280     0.0927970    -1.6978490
  O        3.3289310    -0.2934220     0.9022790
  O       -1.0323538     0.1451312    -0.1913044
  O        0.0932830    -1.0798150     1.7822090
  O       -0.7150640    -2.4305380    -0.3003910
  O       -3.2327710    -0.2685190     1.0414150
  O       -2.7128520     2.0086770    -0.0959300
  O       -3.2113930    -0.0752120    -1.5473660
  C        1.4216660     1.9681570     1.1052990
  H        1.0169430     1.1016800     1.6278780
  H        2.2027140     2.4392170     1.7103290
  H        0.6160650     2.6819120     0.9264900
units angstrom
no_reorient  #important for SAPT in psi4, default
symmetry c1  #important for SAPT in psi4, default
}

set PROPERTIES_ORIGIN ["COM"]
properties('MP2/aug-cc-pvtz', properties = ['dipole'])
--------------------------------------------------------------------------

    Molecular point group: c1
  Charge       = -4
  Multiplicity = 1
  Basis Set: AUG-CC-PVTZ
    Blend: AUG-CC-PVTZ
  Basis Set: (AUG-CC-PVTZ AUX)
    Blend: AUG-CC-PVTZ-JKFIT

    Orbital Energies [Eh]
    ---------------------

    Doubly Occupied:

       1A    -79.575650     2A    -79.529378     3A    -79.476565
       4A    -20.090459     5A    -20.042955     6A    -20.005373
       7A    -20.003051     8A    -19.995476     9A    -19.948826
      10A    -19.943729    11A    -19.922212    12A    -19.916996
      13A    -19.912468    14A    -10.814201    15A     -7.089412
      16A     -7.042080    17A     -6.990341    18A     -4.988319
      19A     -4.987441    20A     -4.986546    21A     -4.941270
      22A     -4.940120    23A     -4.938998    24A     -4.889904
      25A     -4.887647    26A     -4.887477    27A     -0.904734
      28A     -0.848430    29A     -0.811545    30A     -0.782547
      31A     -0.759088    32A     -0.741059    33A     -0.712816
      34A     -0.698819    35A     -0.661614    36A     -0.656062
      37A     -0.469668    38A     -0.295043    39A     -0.241236
      40A     -0.192125    41A     -0.167884    42A     -0.152361
      43A     -0.125914    44A     -0.097617    45A     -0.084625
      46A     -0.064410    47A     -0.054332    48A     -0.047607
      49A     -0.035361    50A     -0.018732    51A     -0.009161
      52A     -0.000335    53A      0.007280    54A      0.014319
      55A      0.024185    56A      0.033664    57A      0.046487
      58A      0.052717    59A      0.067177    60A      0.069932
      61A      0.090728    62A      0.101913    63A      0.103075
      64A      0.105699    65A      0.115105    66A      0.126038
      67A      0.147431    68A      0.153320    69A      0.174698

  @DF-RHF Final Energy: -1810.68894556828127

   => Energetics <=

    Nuclear Repulsion Energy =           1462.8157720983351737
    One-Electron Energy =               -5501.1169401100078176
    Two-Electron Energy =                2227.6122224433911470
    Total Energy =                      -1810.6889455682812695
  Basis Set: (AUG-CC-PVTZ AUX)
    Blend: AUG-CC-PVTZ-RI
    Molecular point group: c1

    Geometry (in Angstrom), charge = -4, multiplicity = 1:

       Center              X                  Y                   Z               Mass
    ------------   -----------------  -----------------  -----------------  -----------------
         P            2.599525581007     0.111671370799    -0.342435255911    30.973761998420
         P           -0.166688418993    -1.114532629201     0.306267744089    30.973761998420
         P           -2.692194418993     0.504528370799    -0.187226255911    30.973761998420
         O            1.970112581007     1.635899370799    -0.170789255911    15.994914619570
         O            1.289228881007    -0.898439129201    -0.508056755911    15.994914619570
         O            3.284586581007     0.121856370799    -1.684377255911    15.994914619570
         O            3.345589581007    -0.264362629201     0.915750744089    15.994914619570
         O           -1.015695218993     0.174190570799    -0.177832655911    15.994914619570
         O            0.109941581007    -1.050755629201     1.795680744089    15.994914619570
         O           -0.698405418993    -2.401478629201    -0.286919255911    15.994914619570
         O           -3.216112418993    -0.239459629201     1.054886744089    15.994914619570
         O           -2.696193418993     2.037736370799    -0.082458255911    15.994914619570
         O           -3.194734418993    -0.046152629201    -1.533894255911    15.994914619570
         C            1.438324581007     1.997216370799     1.118770744089    12.000000000000
         H            1.033601581007     1.130739370799     1.641349744089     1.007825032230
         H            2.219372581007     2.468276370799     1.723800744089     1.007825032230
         H            0.632723581007     2.710971370799     0.939961744089     1.007825032230

  Basis Set: AUG-CC-PVTZ
    Blend: AUG-CC-PVTZ
  Basis Set: (AUG-CC-PVTZ AUX)
    Blend: AUG-CC-PVTZ-JKFIT
	 Reference Energy          =   -1810.6889455682812695 [Eh]
	 Singles Energy            =      -0.0000000000000000 [Eh]
	 Same-Spin Energy          =      -0.9126270423242498 [Eh]
	 Opposite-Spin Energy      =      -2.5247575904006370 [Eh]
	 Correlation Energy        =      -3.4373846327248869 [Eh]
	 Total Energy              =   -1814.1263302010061125 [Eh]

	 ================> DF-SCS-MP2 Energies <==================
	-----------------------------------------------------------
	 SCS Same-Spin Scale       =       0.3333333333333333 [-]
	 SCS Opposite-Spin Scale   =       1.2000000000000000 [-]
	 SCS Same-Spin Energy      =      -0.3042090141080833 [Eh]
	 SCS Opposite-Spin Energy  =      -3.0297091084807644 [Eh]
	 SCS Correlation Energy    =      -3.3339181225888477 [Eh]
	 SCS Total Energy          =   -1814.0228636908700537 [Eh]
	-----------------------------------------------------------

  Dipole Moment: [D]
     X:     9.5794      Y:     2.4075      Z:     1.5540     Total:     9.9988

*** Psi4 exiting successfully. Buy a developer a beer!
