                               Psi4 1.3.2 release

  ==> Input File <==

--------------------------------------------------------------------------
#psi4
#
memory 32 gb

molecule  {
-4 1
  P        2.5698702     0.0721044    -0.3005014
  P       -0.1833470    -1.1435920     0.2927960
  P       -2.7088530     0.4754690    -0.2006980
  O        1.9534540     1.6068400    -0.1842610
  O        1.2509400    -0.8782220    -0.5450080
  O        3.2679280     0.0927970    -1.6978490
  O        3.3289310    -0.2934220     0.9022790
  O       -0.9881700     0.1612780    -0.2225170
  O        0.0932830    -1.0798150     1.7822090
  O       -0.7150640    -2.4305380    -0.3003910
  O       -3.2327710    -0.2685190     1.0414150
  O       -2.7128520     2.0086770    -0.0959300
  O       -3.2113930    -0.0752120    -1.5473660
  C        1.4338299     1.9223615     1.1221656
  H        1.0169430     1.1016800     1.6278780
  H        2.2027140     2.4392170     1.7103290
  H        0.6160650     2.6819120     0.9264900
units angstrom
no_reorient  #important for SAPT in psi4, default
symmetry c1  #important for SAPT in psi4, default
}

set PROPERTIES_ORIGIN ["COM"]
properties('MP2/aug-cc-pvtz', properties = ['dipole'])
--------------------------------------------------------------------------

    Molecular point group: c1
  Charge       = -4
  Multiplicity = 1
  Basis Set: AUG-CC-PVTZ
    Blend: AUG-CC-PVTZ
  Basis Set: (AUG-CC-PVTZ AUX)
    Blend: AUG-CC-PVTZ-JKFIT

    Orbital Energies [Eh]
    ---------------------

    Doubly Occupied:

       1A    -79.572146     2A    -79.529149     3A    -79.480617
       4A    -20.089637     5A    -20.042971     6A    -20.011064
       7A    -19.994615     8A    -19.991235     9A    -19.953474
      10A    -19.947046    11A    -19.924347    12A    -19.919742
      13A    -19.918254    14A    -10.814189    15A     -7.086469
      16A     -7.042196    17A     -6.994128    18A     -4.985314
      19A     -4.984536    20A     -4.983541    21A     -4.941467
      22A     -4.940064    23A     -4.939159    24A     -4.893597
      25A     -4.891392    26A     -4.891247    27A     -0.906680
      28A     -0.850320    29A     -0.812576    30A     -0.786658
      31A     -0.748637    32A     -0.735063    33A     -0.715051
      34A     -0.702189    35A     -0.663986    36A     -0.659779
      37A     -0.466929    38A     -0.297365    39A     -0.239272
      40A     -0.184856    41A     -0.171679    42A     -0.143835
      43A     -0.127980    44A     -0.101385    45A     -0.083648
      46A     -0.069184    47A     -0.052483    48A     -0.046799
      49A     -0.033629    50A     -0.016307    51A     -0.008643
      52A     -0.003098    53A      0.007726    54A      0.014556
      55A      0.019773    56A      0.038724    57A      0.044739
      58A      0.056070    59A      0.069419    60A      0.074763
      61A      0.090542    62A      0.099241    63A      0.101472
      64A      0.102900    65A      0.111570    66A      0.122936
      67A      0.143761    68A      0.149630    69A      0.171443

  @DF-RHF Final Energy: -1810.68079461705975

   => Energetics <=

    Nuclear Repulsion Energy =           1464.6154907983097928
    One-Electron Energy =               -5504.6518475998718714
    Two-Electron Energy =                2229.3555621845021051
    Total Energy =                      -1810.6807946170597461
  Basis Set: (AUG-CC-PVTZ AUX)
    Blend: AUG-CC-PVTZ-RI
    Molecular point group: c1

    Geometry (in Angstrom), charge = -4, multiplicity = 1:

       Center              X                  Y                   Z               Mass
    ------------   -----------------  -----------------  -----------------  -----------------
         P            2.586140013983     0.100523837634    -0.290925689264    30.973761998420
         P           -0.167077186017    -1.115172562366     0.302371710736    30.973761998420
         P           -2.692583186017     0.503888437634    -0.191122289264    30.973761998420
         O            1.969723813983     1.635259437634    -0.174685289264    15.994914619570
         O            1.267209813983    -0.849802562366    -0.535432289264    15.994914619570
         O            3.284197813983     0.121216437634    -1.688273289264    15.994914619570
         O            3.345200813983    -0.265002562366     0.911854710736    15.994914619570
         O           -0.971900186017     0.189697437634    -0.212941289264    15.994914619570
         O            0.109552813983    -1.051395562366     1.791784710736    15.994914619570
         O           -0.698794186017    -2.402118562366    -0.290815289264    15.994914619570
         O           -3.216501186017    -0.240099562366     1.050990710736    15.994914619570
         O           -2.696582186017     2.037096437634    -0.086354289264    15.994914619570
         O           -3.195123186017    -0.046792562366    -1.537790289264    15.994914619570
         C            1.450099713983     1.950780937634     1.131741310736    12.000000000000
         H            1.033212813983     1.130099437634     1.637453710736     1.007825032230
         H            2.218983813983     2.467636437634     1.719904710736     1.007825032230
         H            0.632334813983     2.710331437634     0.936065710736     1.007825032230

  Basis Set: AUG-CC-PVTZ
    Blend: AUG-CC-PVTZ
  Basis Set: (AUG-CC-PVTZ AUX)
    Blend: AUG-CC-PVTZ-JKFIT
	 Reference Energy          =   -1810.6807946170597461 [Eh]
	 Singles Energy            =      -0.0000000000000000 [Eh]
	 Same-Spin Energy          =      -0.9134176840519657 [Eh]
	 Opposite-Spin Energy      =      -2.5268836323988011 [Eh]
	 Correlation Energy        =      -3.4403013164507668 [Eh]
	 Total Energy              =   -1814.1210959335105599 [Eh]

	 ================> DF-SCS-MP2 Energies <==================
	-----------------------------------------------------------
	 SCS Same-Spin Scale       =       0.3333333333333333 [-]
	 SCS Opposite-Spin Scale   =       1.2000000000000000 [-]
	 SCS Same-Spin Energy      =      -0.3044725613506552 [Eh]
	 SCS Opposite-Spin Energy  =      -3.0322603588785610 [Eh]
	 SCS Correlation Energy    =      -3.3367329202292164 [Eh]
	 SCS Total Energy          =   -1814.0175275372889701 [Eh]
	-----------------------------------------------------------

  Dipole Moment: [D]
     X:     9.0525      Y:     2.1397      Z:     2.3636     Total:     9.5975

*** Psi4 exiting successfully. Buy a developer a beer!
