                               Psi4 1.3.2 release

  ==> Input File <==

--------------------------------------------------------------------------
#psi4
#
memory 32 gb

molecule  {
-4 1
  P        2.5828670     0.0826120    -0.3559070
  P       -0.1833470    -1.1435920     0.2927960
  P       -2.7088530     0.4754690    -0.2006980
  O        1.9403732     1.5591087    -0.1753008
  O        1.2509400    -0.8782220    -0.5450080
  O        3.2679280     0.0927970    -1.6978490
  O        3.3289310    -0.2934220     0.9022790
  O       -0.9881700     0.1612780    -0.2225170
  O        0.0932830    -1.0798150     1.7822090
  O       -0.7150640    -2.4305380    -0.3003910
  O       -3.2327710    -0.2685190     1.0414150
  O       -2.7128520     2.0086770    -0.0959300
  O       -3.2113930    -0.0752120    -1.5473660
  C        1.4216660     1.9681570     1.1052990
  H        1.0267083     1.0800321     1.5981626
  H        2.2027140     2.4392170     1.7103290
  H        0.6160650     2.6819120     0.9264900
units angstrom
no_reorient  #important for SAPT in psi4, default
symmetry c1  #important for SAPT in psi4, default
}

set PROPERTIES_ORIGIN ["COM"]
properties('MP2/aug-cc-pvtz', properties = ['dipole'])
--------------------------------------------------------------------------

    Molecular point group: c1
  Charge       = -4
  Multiplicity = 1
  Basis Set: AUG-CC-PVTZ
    Blend: AUG-CC-PVTZ
  Basis Set: (AUG-CC-PVTZ AUX)
    Blend: AUG-CC-PVTZ-JKFIT

    Orbital Energies [Eh]
    ---------------------

    Doubly Occupied:

       1A    -79.568201     2A    -79.525705     3A    -79.479617
       4A    -20.084155     5A    -20.034187     6A    -20.000995
       7A    -19.999823     8A    -19.992315     9A    -19.949344
      10A    -19.944061    11A    -19.923919    12A    -19.918959
      13A    -19.917112    14A    -10.814558    15A     -7.082611
      16A     -7.038624    17A     -6.993119    18A     -4.981695
      19A     -4.980581    20A     -4.979802    21A     -4.937883
      22A     -4.936529    23A     -4.935602    24A     -4.892576
      25A     -4.890400    26A     -4.890246    27A     -0.909232
      28A     -0.844278    29A     -0.805324    30A     -0.776479
      31A     -0.755692    32A     -0.741033    33A     -0.713021
      34A     -0.698646    35A     -0.663352    36A     -0.658795
      37A     -0.472336    38A     -0.292422    39A     -0.236028
      40A     -0.185960    41A     -0.168717    42A     -0.153438
      43A     -0.124710    44A     -0.098450    45A     -0.082095
      46A     -0.063872    47A     -0.052214    48A     -0.040760
      49A     -0.031823    50A     -0.015252    51A     -0.007582
      52A      0.000794    53A      0.009011    54A      0.015775
      55A      0.022110    56A      0.038516    57A      0.048176
      58A      0.055829    59A      0.068821    60A      0.072328
      61A      0.092135    62A      0.100841    63A      0.102702
      64A      0.104270    65A      0.114872    66A      0.126137
      67A      0.144712    68A      0.150814    69A      0.172236

  @DF-RHF Final Energy: -1810.68917793722994

   => Energetics <=

    Nuclear Repulsion Energy =           1465.1156737030678414
    One-Electron Energy =               -5505.9216024721545182
    Two-Electron Energy =                2230.1167508318567343
    Total Energy =                      -1810.6891779372299425
  Basis Set: (AUG-CC-PVTZ AUX)
    Blend: AUG-CC-PVTZ-RI
    Molecular point group: c1

    Geometry (in Angstrom), charge = -4, multiplicity = 1:

       Center              X                  Y                   Z               Mass
    ------------   -----------------  -----------------  -----------------  -----------------
         P            2.598923265175     0.110696489599    -0.339592989852    30.973761998420
         P           -0.167290734825    -1.115507510401     0.309110010148    30.973761998420
         P           -2.692796734825     0.503553489599    -0.184383989852    30.973761998420
         O            1.956429465175     1.587193189599    -0.158986789852    15.994914619570
         O            1.266996265175    -0.850137510401    -0.528693989852    15.994914619570
         O            3.283984265175     0.120881489599    -1.681534989852    15.994914619570
         O            3.344987265175    -0.265337510401     0.918593010148    15.994914619570
         O           -0.972113734825     0.189362489599    -0.206202989852    15.994914619570
         O            0.109339265175    -1.051730510401     1.798523010148    15.994914619570
         O           -0.699007734825    -2.402453510401    -0.284076989852    15.994914619570
         O           -3.216714734825    -0.240434510401     1.057729010148    15.994914619570
         O           -2.696795734825     2.036761489599    -0.079615989852    15.994914619570
         O           -3.195336734825    -0.047127510401    -1.531051989852    15.994914619570
         C            1.437722265175     1.996241489599     1.121613010148    12.000000000000
         H            1.042764565175     1.108116589599     1.614476610148     1.007825032230
         H            2.218770265175     2.467301489599     1.726643010148     1.007825032230
         H            0.632121265175     2.709996489599     0.942804010148     1.007825032230

  Basis Set: AUG-CC-PVTZ
    Blend: AUG-CC-PVTZ
  Basis Set: (AUG-CC-PVTZ AUX)
    Blend: AUG-CC-PVTZ-JKFIT
	 Reference Energy          =   -1810.6891779372299425 [Eh]
	 Singles Energy            =      -0.0000000000000000 [Eh]
	 Same-Spin Energy          =      -0.9126746408345635 [Eh]
	 Opposite-Spin Energy      =      -2.5245952117301664 [Eh]
	 Correlation Energy        =      -3.4372698525647301 [Eh]
	 Total Energy              =   -1814.1264477897946108 [Eh]

	 ================> DF-SCS-MP2 Energies <==================
	-----------------------------------------------------------
	 SCS Same-Spin Scale       =       0.3333333333333333 [-]
	 SCS Opposite-Spin Scale   =       1.2000000000000000 [-]
	 SCS Same-Spin Energy      =      -0.3042248802781878 [Eh]
	 SCS Opposite-Spin Energy  =      -3.0295142540761995 [Eh]
	 SCS Correlation Energy    =      -3.3337391343543872 [Eh]
	 SCS Total Energy          =   -1814.0229170715842884 [Eh]
	-----------------------------------------------------------

  Dipole Moment: [D]
     X:     9.2425      Y:     2.5386      Z:     1.6346     Total:     9.7232

*** Psi4 exiting successfully. Buy a developer a beer!
