                               Psi4 1.3.2 release

  ==> Input File <==

--------------------------------------------------------------------------
#psi4
#
memory 32 gb

molecule  {
-4 1
  P        2.5828670     0.0826120    -0.3559070
  P       -0.1833470    -1.1435920     0.2927960
  P       -2.7088530     0.4754690    -0.2006980
  O        1.9534540     1.6068400    -0.1842610
  O        1.1703722    -0.9363425    -0.5564466
  O        3.2679280     0.0927970    -1.6978490
  O        3.3289310    -0.2934220     0.9022790
  O       -0.9881700     0.1612780    -0.2225170
  O        0.0932830    -1.0798150     1.7822090
  O       -0.7150640    -2.4305380    -0.3003910
  O       -3.2327710    -0.2685190     1.0414150
  O       -2.7128520     2.0086770    -0.0959300
  O       -3.2113930    -0.0752120    -1.5473660
  C        1.4216660     1.9681570     1.1052990
  H        1.0169430     1.1016800     1.6278780
  H        2.2027140     2.4392170     1.7103290
  H        0.6160650     2.6819120     0.9264900
units angstrom
no_reorient  #important for SAPT in psi4, default
symmetry c1  #important for SAPT in psi4, default
}

set PROPERTIES_ORIGIN ["COM"]
properties('MP2/aug-cc-pvtz', properties = ['dipole'])
--------------------------------------------------------------------------

    Molecular point group: c1
  Charge       = -4
  Multiplicity = 1
  Basis Set: AUG-CC-PVTZ
    Blend: AUG-CC-PVTZ
  Basis Set: (AUG-CC-PVTZ AUX)
    Blend: AUG-CC-PVTZ-JKFIT

    Orbital Energies [Eh]
    ---------------------

    Doubly Occupied:

       1A    -79.588514     2A    -79.511432     3A    -79.475777
       4A    -20.094810     5A    -20.037617     6A    -20.014604
       7A    -20.014443     8A    -19.985322     9A    -19.943342
      10A    -19.931171    11A    -19.920930    12A    -19.915654
      13A    -19.913592    14A    -10.815643    15A     -7.101188
      16A     -7.025864    17A     -6.989262    18A     -5.000013
      19A     -4.999086    20A     -4.998295    21A     -4.925225
      22A     -4.923760    23A     -4.922855    24A     -4.888687
      25A     -4.886578    26A     -4.886419    27A     -0.906177
      28A     -0.846798    29A     -0.810175    30A     -0.777493
      31A     -0.767794    32A     -0.733239    33A     -0.707733
      34A     -0.689803    35A     -0.660201    36A     -0.655344
      37A     -0.471675    38A     -0.290030    39A     -0.235475
      40A     -0.184923    41A     -0.166245    42A     -0.153827
      43A     -0.130898    44A     -0.095332    45A     -0.082589
      46A     -0.063511    47A     -0.055874    48A     -0.043811
      49A     -0.031065    50A     -0.012696    51A     -0.008775
      52A     -0.000033    53A      0.005004    54A      0.017699
      55A      0.025914    56A      0.029181    57A      0.044588
      58A      0.052844    59A      0.058712    60A      0.075995
      61A      0.098837    62A      0.104590    63A      0.106720
      64A      0.108343    65A      0.123921    66A      0.134078
      67A      0.148429    68A      0.154791    69A      0.175492

  @DF-RHF Final Energy: -1810.67588546273055

   => Energetics <=

    Nuclear Repulsion Energy =           1462.3609200268165296
    One-Electron Energy =               -5500.4206960094506940
    Two-Electron Energy =                2227.3838905199036162
    Total Energy =                      -1810.6758854627305482
  Basis Set: (AUG-CC-PVTZ AUX)
    Blend: AUG-CC-PVTZ-RI
    Molecular point group: c1

    Geometry (in Angstrom), charge = -4, multiplicity = 1:

       Center              X                  Y                   Z               Mass
    ------------   -----------------  -----------------  -----------------  -----------------
         P            2.602989391679     0.111235348705    -0.338486846218    30.973761998420
         P           -0.163224608321    -1.114968651295     0.310216153782    30.973761998420
         P           -2.688730608321     0.504092348705    -0.183277846218    30.973761998420
         O            1.973576391679     1.635463348705    -0.166840846218    15.994914619570
         O            1.190494591679    -0.907719151295    -0.539026446218    15.994914619570
         O            3.288050391679     0.121420348705    -1.680428846218    15.994914619570
         O            3.349053391679    -0.264798651295     0.919699153782    15.994914619570
         O           -0.968047608321     0.189901348705    -0.205096846218    15.994914619570
         O            0.113405391679    -1.051191651295     1.799629153782    15.994914619570
         O           -0.694941608321    -2.401914651295    -0.282970846218    15.994914619570
         O           -3.212648608321    -0.239895651295     1.058835153782    15.994914619570
         O           -2.692729608321     2.037300348705    -0.078509846218    15.994914619570
         O           -3.191270608321    -0.046588651295    -1.529945846218    15.994914619570
         C            1.441788391679     1.996780348705     1.122719153782    12.000000000000
         H            1.037065391679     1.130303348705     1.645298153782     1.007825032230
         H            2.222836391679     2.467840348705     1.727749153782     1.007825032230
         H            0.636187391679     2.710535348705     0.943910153782     1.007825032230

  Basis Set: AUG-CC-PVTZ
    Blend: AUG-CC-PVTZ
  Basis Set: (AUG-CC-PVTZ AUX)
    Blend: AUG-CC-PVTZ-JKFIT
	 Reference Energy          =   -1810.6758854627305482 [Eh]
	 Singles Energy            =      -0.0000000000000000 [Eh]
	 Same-Spin Energy          =      -0.9135853907396172 [Eh]
	 Opposite-Spin Energy      =      -2.5272530253991699 [Eh]
	 Correlation Energy        =      -3.4408384161387868 [Eh]
	 Total Energy              =   -1814.1167238788693794 [Eh]

	 ================> DF-SCS-MP2 Energies <==================
	-----------------------------------------------------------
	 SCS Same-Spin Scale       =       0.3333333333333333 [-]
	 SCS Opposite-Spin Scale   =       1.2000000000000000 [-]
	 SCS Same-Spin Energy      =      -0.3045284635798724 [Eh]
	 SCS Opposite-Spin Energy  =      -3.0327036304790038 [Eh]
	 SCS Correlation Energy    =      -3.3372320940588764 [Eh]
	 SCS Total Energy          =   -1814.0131175567894388 [Eh]
	-----------------------------------------------------------

  Dipole Moment: [D]
     X:    10.2356      Y:     2.7581      Z:     1.5063     Total:    10.7071

*** Psi4 exiting successfully. Buy a developer a beer!
