                               Psi4 1.3.2 release

  ==> Input File <==

--------------------------------------------------------------------------
#psi4
#
memory 32 gb

molecule  {
-4 1
  P        2.5828670     0.0826120    -0.3559070
  P       -0.1833470    -1.1435920     0.2927960
  P       -2.7088530     0.4754690    -0.2006980
  O        1.9534540     1.6068400    -0.1842610
  O        1.2509400    -0.8782220    -0.5450080
  O        3.2679280     0.0927970    -1.6978490
  O        3.3289310    -0.2934220     0.9022790
  O       -0.9881700     0.1612780    -0.2225170
  O        0.0932830    -1.0798150     1.7822090
  O       -0.7150640    -2.4305380    -0.3003910
  O       -3.2327710    -0.2685190     1.0414150
  O       -2.7128520     2.0086770    -0.0959300
  O       -3.2113930    -0.0752120    -1.5473660
  C        1.4216660     1.9681570     1.1052990
  H        0.9934488     1.0957980     1.5985451
  H        2.2074105     2.4652656     1.6827793
  H        0.6160650     2.6819120     0.9264900
units angstrom
no_reorient  #important for SAPT in psi4, default
symmetry c1  #important for SAPT in psi4, default
}

set PROPERTIES_ORIGIN ["COM"]
properties('MP2/aug-cc-pvtz', properties = ['dipole'])
--------------------------------------------------------------------------

    Molecular point group: c1
  Charge       = -4
  Multiplicity = 1
  Basis Set: AUG-CC-PVTZ
    Blend: AUG-CC-PVTZ
  Basis Set: (AUG-CC-PVTZ AUX)
    Blend: AUG-CC-PVTZ-JKFIT

    Orbital Energies [Eh]
    ---------------------

    Doubly Occupied:

       1A    -79.572251     2A    -79.527129     3A    -79.479981
       4A    -20.084472     5A    -20.038321     6A    -20.002549
       7A    -20.002316     8A    -19.993245     9A    -19.950472
      10A    -19.945386    11A    -19.924000    12A    -19.919302
      13A    -19.917500    14A    -10.811372    15A     -7.086076
      16A     -7.040071    17A     -6.993487    18A     -4.985020
      19A     -4.984085    20A     -4.983263    21A     -4.939345
      22A     -4.937960    23A     -4.937033    24A     -4.892950
      25A     -4.890761    26A     -4.890612    27A     -0.901563
      28A     -0.845651    29A     -0.806633    30A     -0.778034
      31A     -0.757345    32A     -0.742228    33A     -0.713743
      34A     -0.699869    35A     -0.663544    36A     -0.659168
      37A     -0.466306    38A     -0.293477    39A     -0.233455
      40A     -0.183399    41A     -0.167586    42A     -0.148502
      43A     -0.125174    44A     -0.099040    45A     -0.083115
      46A     -0.065114    47A     -0.051632    48A     -0.043849
      49A     -0.031120    50A     -0.016265    51A     -0.005758
      52A     -0.000137    53A      0.009595    54A      0.014927
      55A      0.021420    56A      0.037584    57A      0.047227
      58A      0.053845    59A      0.067072    60A      0.070865
      61A      0.090907    62A      0.100371    63A      0.102186
      64A      0.103776    65A      0.113743    66A      0.125062
      67A      0.144395    68A      0.150356    69A      0.171960

  @DF-RHF Final Energy: -1810.68844857319732

   => Energetics <=

    Nuclear Repulsion Energy =           1463.0370889904111209
    One-Electron Energy =               -5501.6803253183215929
    Two-Electron Energy =                2227.9547877547129247
    Total Energy =                      -1810.6884485731975474
  Basis Set: (AUG-CC-PVTZ AUX)
    Blend: AUG-CC-PVTZ-RI
    Molecular point group: c1

    Geometry (in Angstrom), charge = -4, multiplicity = 1:

       Center              X                  Y                   Z               Mass
    ------------   -----------------  -----------------  -----------------  -----------------
         P            2.598249715804     0.107689329876    -0.338955806947    30.973761998420
         P           -0.167964284196    -1.118514670124     0.309747193053    30.973761998420
         P           -2.693470284196     0.500546329876    -0.183746806947    30.973761998420
         O            1.968836715804     1.631917329876    -0.167309806947    15.994914619570
         O            1.266322715804    -0.853144670124    -0.528056806947    15.994914619570
         O            3.283310715804     0.117874329876    -1.680897806947    15.994914619570
         O            3.344313715804    -0.268344670124     0.919230193053    15.994914619570
         O           -0.972787284196     0.186355329876    -0.205565806947    15.994914619570
         O            0.108665715804    -1.054737670124     1.799160193053    15.994914619570
         O           -0.699681284196    -2.405460670124    -0.283439806947    15.994914619570
         O           -3.217388284196    -0.243441670124     1.058366193053    15.994914619570
         O           -2.697469284196     2.033754329876    -0.078978806947    15.994914619570
         O           -3.196010284196    -0.050134670124    -1.530414806947    15.994914619570
         C            1.437048715804     1.993234329876     1.122250193053    12.000000000000
         H            1.008831515804     1.120875329876     1.615496293053     1.007825032230
         H            2.222793215804     2.490342929876     1.699730493053     1.007825032230
         H            0.631447715804     2.706989329876     0.943441193053     1.007825032230

  Basis Set: AUG-CC-PVTZ
    Blend: AUG-CC-PVTZ
  Basis Set: (AUG-CC-PVTZ AUX)
    Blend: AUG-CC-PVTZ-JKFIT
	 Reference Energy          =   -1810.6884485731973200 [Eh]
	 Singles Energy            =      -0.0000000000000000 [Eh]
	 Same-Spin Energy          =      -0.9130636791364171 [Eh]
	 Opposite-Spin Energy      =      -2.5258731004654926 [Eh]
	 Correlation Energy        =      -3.4389367796019097 [Eh]
	 Total Energy              =   -1814.1273853527991378 [Eh]

	 ================> DF-SCS-MP2 Energies <==================
	-----------------------------------------------------------
	 SCS Same-Spin Scale       =       0.3333333333333333 [-]
	 SCS Opposite-Spin Scale   =       1.2000000000000000 [-]
	 SCS Same-Spin Energy      =      -0.3043545597121390 [Eh]
	 SCS Opposite-Spin Energy  =      -3.0310477205585911 [Eh]
	 SCS Correlation Energy    =      -3.3354022802707299 [Eh]
	 SCS Total Energy          =   -1814.0238508534680477 [Eh]
	-----------------------------------------------------------

  Dipole Moment: [D]
     X:     9.2341      Y:     2.3457      Z:     1.6016     Total:     9.6610

*** Psi4 exiting successfully. Buy a developer a beer!
