                               Psi4 1.3.2 release

  ==> Input File <==

--------------------------------------------------------------------------
#psi4
#
memory 32 gb

molecule  {
-4 1
  P        2.5890788     0.0885631    -0.3835356
  P       -0.1833470    -1.1435920     0.2927960
  P       -2.7088530     0.4754690    -0.2006980
  O        1.9534540     1.6068400    -0.1842610
  O        1.2509400    -0.8782220    -0.5450080
  O        3.2679280     0.0927970    -1.6978490
  O        3.3289310    -0.2934220     0.9022790
  O       -0.9881700     0.1612780    -0.2225170
  O        0.0932830    -1.0798150     1.7822090
  O       -0.7150640    -2.4305380    -0.3003910
  O       -3.2327710    -0.2685190     1.0414150
  O       -2.7128520     2.0086770    -0.0959300
  O       -3.2113930    -0.0752120    -1.5473660
  C        1.4158261     1.9908931     1.0962752
  H        1.0169430     1.1016800     1.6278780
  H        2.2027140     2.4392170     1.7103290
  H        0.6160650     2.6819120     0.9264900
units angstrom
no_reorient  #important for SAPT in psi4, default
symmetry c1  #important for SAPT in psi4, default
}

set PROPERTIES_ORIGIN ["COM"]
properties('MP2/aug-cc-pvtz', properties = ['dipole'])
--------------------------------------------------------------------------

    Molecular point group: c1
  Charge       = -4
  Multiplicity = 1
  Basis Set: AUG-CC-PVTZ
    Blend: AUG-CC-PVTZ
  Basis Set: (AUG-CC-PVTZ AUX)
    Blend: AUG-CC-PVTZ-JKFIT

    Orbital Energies [Eh]
    ---------------------

    Doubly Occupied:

       1A    -79.572546     2A    -79.525782     3A    -79.479466
       4A    -20.083962     5A    -20.035983     6A    -20.008242
       7A    -19.998826     8A    -19.992136     9A    -19.948470
      10A    -19.944339    11A    -19.923689    12A    -19.918924
      13A    -19.916929    14A    -10.810918    15A     -7.086487
      16A     -7.038664    17A     -6.992968    18A     -4.985423
      19A     -4.984549    20A     -4.983640    21A     -4.937945
      22A     -4.936563    23A     -4.935622    24A     -4.892425
      25A     -4.890248    26A     -4.890096    27A     -0.900660
      28A     -0.843624    29A     -0.809837    30A     -0.780272
      31A     -0.754025    32A     -0.740718    33A     -0.712759
      34A     -0.698326    35A     -0.663169    36A     -0.658682
      37A     -0.467281    38A     -0.292139    39A     -0.232808
      40A     -0.183870    41A     -0.160311    42A     -0.153197
      43A     -0.125386    44A     -0.098412    45A     -0.083839
      46A     -0.063301    47A     -0.053690    48A     -0.040422
      49A     -0.030295    50A     -0.016163    51A     -0.006208
      52A      0.000943    53A      0.010073    54A      0.014527
      55A      0.021877    56A      0.031923    57A      0.048032
      58A      0.058487    59A      0.068890    60A      0.070868
      61A      0.091716    62A      0.101060    63A      0.102851
      64A      0.104476    65A      0.115189    66A      0.126487
      67A      0.144907    68A      0.150943    69A      0.172381

  @DF-RHF Final Energy: -1810.68669684665542

   => Energetics <=

    Nuclear Repulsion Energy =           1462.1165556569767432
    One-Electron Energy =               -5499.9092988652364511
    Two-Electron Energy =                2227.1060463616045126
    Total Energy =                      -1810.6866968466551953
  Basis Set: (AUG-CC-PVTZ AUX)
    Blend: AUG-CC-PVTZ-RI
    Molecular point group: c1

    Geometry (in Angstrom), charge = -4, multiplicity = 1:

       Center              X                  Y                   Z               Mass
    ------------   -----------------  -----------------  -----------------  -----------------
         P            2.603934184635     0.112009796484    -0.363199785095    30.973761998420
         P           -0.168491615365    -1.120145303516     0.313131814905    30.973761998420
         P           -2.693997615365     0.498915696484    -0.180362185095    30.973761998420
         O            1.968309384635     1.630286696484    -0.163925185095    15.994914619570
         O            1.265795384635    -0.854775303516    -0.524672185095    15.994914619570
         O            3.282783384635     0.116243696484    -1.677513185095    15.994914619570
         O            3.343786384635    -0.269975303516     0.922614814905    15.994914619570
         O           -0.973314615365     0.184724696484    -0.202181185095    15.994914619570
         O            0.108138384635    -1.056368303516     1.802544814905    15.994914619570
         O           -0.700208615365    -2.407091303516    -0.280055185095    15.994914619570
         O           -3.217915615365    -0.245072303516     1.061750814905    15.994914619570
         O           -2.697996615365     2.032123696484    -0.075594185095    15.994914619570
         O           -3.196537615365    -0.051765303516    -1.527030185095    15.994914619570
         C            1.430681484635     2.014339796484     1.116611014905    12.000000000000
         H            1.031798384635     1.125126696484     1.648213814905     1.007825032230
         H            2.217569384635     2.462663696484     1.730664814905     1.007825032230
         H            0.630920384635     2.705358696484     0.946825814905     1.007825032230

  Basis Set: AUG-CC-PVTZ
    Blend: AUG-CC-PVTZ
  Basis Set: (AUG-CC-PVTZ AUX)
    Blend: AUG-CC-PVTZ-JKFIT
	 Reference Energy          =   -1810.6866968466554226 [Eh]
	 Singles Energy            =      -0.0000000000000000 [Eh]
	 Same-Spin Energy          =      -0.9128987344276522 [Eh]
	 Opposite-Spin Energy      =      -2.5254510882845489 [Eh]
	 Correlation Energy        =      -3.4383498227122011 [Eh]
	 Total Energy              =   -1814.1250466693675207 [Eh]

	 ================> DF-SCS-MP2 Energies <==================
	-----------------------------------------------------------
	 SCS Same-Spin Scale       =       0.3333333333333333 [-]
	 SCS Opposite-Spin Scale   =       1.2000000000000000 [-]
	 SCS Same-Spin Energy      =      -0.3042995781425507 [Eh]
	 SCS Opposite-Spin Energy  =      -3.0305413059414588 [Eh]
	 SCS Correlation Energy    =      -3.3348408840840094 [Eh]
	 SCS Total Energy          =   -1814.0215377307395102 [Eh]
	-----------------------------------------------------------

  Dipole Moment: [D]
     X:     9.3420      Y:     2.4407      Z:     1.2318     Total:     9.7338

*** Psi4 exiting successfully. Buy a developer a beer!
