                               Psi4 1.3.2 release

  ==> Input File <==

--------------------------------------------------------------------------
#psi4
#
memory 32 gb

molecule  {
-4 1
  P        2.5828670     0.0826120    -0.3559070
  P       -0.1833470    -1.1435920     0.2927960
  P       -2.7088530     0.4754690    -0.2006980
  O        1.9534540     1.6068400    -0.1842610
  O        1.4214736    -0.8466701    -0.6446211
  O        3.2679280     0.0927970    -1.6978490
  O        3.3289310    -0.2934220     0.9022790
  O       -0.9881700     0.1612780    -0.2225170
  O        0.0932830    -1.0798150     1.7822090
  O       -0.7150640    -2.4305380    -0.3003910
  O       -3.2327710    -0.2685190     1.0414150
  O       -2.7128520     2.0086770    -0.0959300
  O       -3.2113930    -0.0752120    -1.5473660
  C        1.4216660     1.9681570     1.1052990
  H        1.0169430     1.1016800     1.6278780
  H        2.2027140     2.4392170     1.7103290
  H        0.6160650     2.6819120     0.9264900
units angstrom
no_reorient  #important for SAPT in psi4, default
symmetry c1  #important for SAPT in psi4, default
}

set PROPERTIES_ORIGIN ["COM"]
properties('MP2/aug-cc-pvtz', properties = ['dipole'])
--------------------------------------------------------------------------

    Molecular point group: c1
  Charge       = -4
  Multiplicity = 1
  Basis Set: AUG-CC-PVTZ
    Blend: AUG-CC-PVTZ
  Basis Set: (AUG-CC-PVTZ AUX)
    Blend: AUG-CC-PVTZ-JKFIT

    Orbital Energies [Eh]
    ---------------------

    Doubly Occupied:

       1A    -79.554532     2A    -79.537155     3A    -79.489197
       4A    -20.074158     5A    -20.029582     6A    -20.010728
       7A    -19.985201     8A    -19.972677     9A    -19.971908
      10A    -19.968478    11A    -19.931037    12A    -19.926913
      13A    -19.926116    14A    -10.807476    15A     -7.066161
      16A     -7.055136    17A     -7.002760    18A     -4.965293
      19A     -4.963697    20A     -4.962759    21A     -4.954014
      22A     -4.953317    23A     -4.952026    24A     -4.902312
      25A     -4.899932    26A     -4.899797    27A     -0.897528
      28A     -0.842483    29A     -0.817873    30A     -0.768467
      31A     -0.754236    32A     -0.734135    33A     -0.726062
      34A     -0.718999    35A     -0.670965    36A     -0.667308
      37A     -0.460780    38A     -0.276805    39A     -0.235035
      40A     -0.180132    41A     -0.160472    42A     -0.140818
      43A     -0.125503    44A     -0.101202    45A     -0.077939
      46A     -0.070522    47A     -0.054820    48A     -0.047855
      49A     -0.036717    50A     -0.015643    51A     -0.007403
      52A      0.003198    53A      0.007414    54A      0.017931
      55A      0.025795    56A      0.033600    57A      0.046901
      58A      0.065425    59A      0.067436    60A      0.077423
      61A      0.086921    62A      0.092225    63A      0.094947
      64A      0.097480    65A      0.101065    66A      0.107732
      67A      0.135983    68A      0.141295    69A      0.164302

  @DF-RHF Final Energy: -1810.66946901460074

   => Energetics <=

    Nuclear Repulsion Energy =           1460.5072390206569253
    One-Electron Energy =               -5496.3834257904518381
    Two-Electron Energy =                2225.2067177551944042
    Total Energy =                      -1810.6694690146005087
  Basis Set: (AUG-CC-PVTZ AUX)
    Blend: AUG-CC-PVTZ-RI
    Molecular point group: c1

    Geometry (in Angstrom), charge = -4, multiplicity = 1:

       Center              X                  Y                   Z               Mass
    ------------   -----------------  -----------------  -----------------  -----------------
         P            2.587997093069     0.105881354670    -0.333222286029    30.973761998420
         P           -0.178216906931    -1.120322645330     0.315480713971    30.973761998420
         P           -2.703722906931     0.498738354670    -0.178013286029    30.973761998420
         O            1.958584093069     1.630109354670    -0.161576286029    15.994914619570
         O            1.426603693069    -0.823400745330    -0.621936386029    15.994914619570
         O            3.273058093069     0.116066354670    -1.675164286029    15.994914619570
         O            3.334061093069    -0.270152645330     0.924963713971    15.994914619570
         O           -0.983039906931     0.184547354670    -0.199832286029    15.994914619570
         O            0.098413093069    -1.056545645330     1.804893713971    15.994914619570
         O           -0.709933906931    -2.407268645330    -0.277706286029    15.994914619570
         O           -3.227640906931    -0.245249645330     1.064099713971    15.994914619570
         O           -2.707721906931     2.031946354670    -0.073245286029    15.994914619570
         O           -3.206262906931    -0.051942645330    -1.524681286029    15.994914619570
         C            1.426796093069     1.991426354670     1.127983713971    12.000000000000
         H            1.022073093069     1.124949354670     1.650562713971     1.007825032230
         H            2.207844093069     2.462486354670     1.733013713971     1.007825032230
         H            0.621195093069     2.705181354670     0.949174713971     1.007825032230

  Basis Set: AUG-CC-PVTZ
    Blend: AUG-CC-PVTZ
  Basis Set: (AUG-CC-PVTZ AUX)
    Blend: AUG-CC-PVTZ-JKFIT
	 Reference Energy          =   -1810.6694690146007360 [Eh]
	 Singles Energy            =      -0.0000000000000000 [Eh]
	 Same-Spin Energy          =      -0.9138068502662628 [Eh]
	 Opposite-Spin Energy      =      -2.5274754392232142 [Eh]
	 Correlation Energy        =      -3.4412822894894770 [Eh]
	 Total Energy              =   -1814.1107513040901722 [Eh]

	 ================> DF-SCS-MP2 Energies <==================
	-----------------------------------------------------------
	 SCS Same-Spin Scale       =       0.3333333333333333 [-]
	 SCS Opposite-Spin Scale   =       1.2000000000000000 [-]
	 SCS Same-Spin Energy      =      -0.3046022834220876 [Eh]
	 SCS Opposite-Spin Energy  =      -3.0329705270678571 [Eh]
	 SCS Correlation Energy    =      -3.3375728104899447 [Eh]
	 SCS Total Energy          =   -1814.0070418250907096 [Eh]
	-----------------------------------------------------------

  Dipole Moment: [D]
     X:     7.1885      Y:     1.6632      Z:     2.1455     Total:     7.6840

*** Psi4 exiting successfully. Buy a developer a beer!
