                               Psi4 1.4a3.dev225

  ==> Input File <==

--------------------------------------------------------------------------
#psi4
#
memory 32 gb

molecule  {
-4 1
  P       -2.5202440    -0.2449420     0.3712220
  P        0.3565170    -0.5960480    -0.3589090
  P        3.1750170     0.3881900     0.1554910
  O       -2.7927880     1.3311510    -0.1150520
  O       -0.9169740    -0.0836090     0.6422800
  O       -3.1856250    -0.4605710     1.7148300
  O       -2.8507450    -1.1694890    -0.7786080
  O        1.4898640     0.0841660     0.5723090
  O        0.2127210     0.0849480    -1.7048820
  O        0.4027150    -2.1095660    -0.2874290
  O        3.5374515    -0.6980315    -0.8970717
  O        3.1643710     1.8286230    -0.3742880
  O        3.8338960     0.2099350     1.5311200
  C       -4.1398760     1.5889580    -0.5252390
  H       -4.4292020     0.9309370    -1.3496150
  H       -4.8386320     1.4471050     0.3059850
  H       -4.1840730     2.6280350    -0.8559160
units angstrom
no_reorient  #important for SAPT in psi4, default
symmetry c1  #important for SAPT in psi4, default
}

set PROPERTIES_ORIGIN ["COM"]
properties('MP2/aug-cc-pvtz', properties = ['dipole'])
--------------------------------------------------------------------------

    Molecular point group: c1
  Charge       = -4
  Multiplicity = 1
  Basis Set: AUG-CC-PVTZ
    Blend: AUG-CC-PVTZ
  Basis Set: (AUG-CC-PVTZ AUX)
    Blend: AUG-CC-PVTZ-JKFIT

    Orbital Energies [Eh]
    ---------------------

    Doubly Occupied:

       1A    -79.580966     2A    -79.517637     3A    -79.479103
       4A    -20.119322     5A    -20.042143     6A    -20.015257
       7A    -20.005177     8A    -19.985723     9A    -19.937042
      10A    -19.935468    11A    -19.923746    12A    -19.918868
      13A    -19.914299    14A    -10.883571    15A     -7.095241
      16A     -7.030701    17A     -6.992248    18A     -4.994387
      19A     -4.993078    20A     -4.992170    21A     -4.930100
      22A     -4.928529    23A     -4.927371    24A     -4.891688
      25A     -4.889567    26A     -4.889332    27A     -0.931514
      28A     -0.853847    29A     -0.807336    30A     -0.777886
      31A     -0.761421    32A     -0.736008    33A     -0.706006
      34A     -0.687139    35A     -0.663220    36A     -0.653287
      37A     -0.528388    38A     -0.308894    39A     -0.252622
      40A     -0.220894    41A     -0.196881    42A     -0.165680
      43A     -0.140579    44A     -0.108542    45A     -0.094737
      46A     -0.079574    47A     -0.063380    48A     -0.052174
      49A     -0.035140    50A     -0.025622    51A     -0.012875
      52A     -0.009910    53A      0.009308    54A      0.011623
      55A      0.023672    56A      0.034196    57A      0.047891
      58A      0.054316    59A      0.061919    60A      0.080905
      61A      0.096966    62A      0.103614    63A      0.107760
      64A      0.108469    65A      0.124720    66A      0.134917
      67A      0.148433    68A      0.154054    69A      0.174036

  @DF-RHF Final Energy: -1810.67391390730313

   => Energetics <=

    Nuclear Repulsion Energy =           1424.7631562552649029
    One-Electron Energy =               -5424.4551584363825896
    Two-Electron Energy =                2189.0180882738145556
    Total Energy =                      -1810.6739139073029037
  Basis Set: (AUG-CC-PVTZ AUX)
    Blend: AUG-CC-PVTZ-RI
    Molecular point group: c1

    Geometry (in Angstrom), charge = -4, multiplicity = 1:

       Center              X                  Y                   Z               Mass
    ------------   -----------------  -----------------  -----------------  -----------------
         P           -2.573963913648    -0.223940127740     0.364390810599    30.973761998420
         P            0.302797086352    -0.575046127740    -0.365740189401    30.973761998420
         P            3.121297086352     0.409191872260     0.148659810599    30.973761998420
         O           -2.846507913648     1.352152872260    -0.121883189401    15.994914619570
         O           -0.970693913648    -0.062607127740     0.635448810599    15.994914619570
         O           -3.239344913648    -0.439569127740     1.707998810599    15.994914619570
         O           -2.904464913648    -1.148487127740    -0.785439189401    15.994914619570
         O            1.436144086352     0.105167872260     0.565477810599    15.994914619570
         O            0.159001086352     0.105949872260    -1.711713189401    15.994914619570
         O            0.348995086352    -2.088564127740    -0.294260189401    15.994914619570
         O            3.483731586352    -0.677029627740    -0.903902889401    15.994914619570
         O            3.110651086352     1.849624872260    -0.381119189401    15.994914619570
         O            3.780176086352     0.230936872260     1.524288810599    15.994914619570
         C           -4.193595913648     1.609959872260    -0.532070189401    12.000000000000
         H           -4.482921913648     0.951938872260    -1.356446189401     1.007825032230
         H           -4.892351913648     1.468106872260     0.299153810599     1.007825032230
         H           -4.237792913648     2.649036872260    -0.862747189401     1.007825032230

  Basis Set: AUG-CC-PVTZ
    Blend: AUG-CC-PVTZ
  Basis Set: (AUG-CC-PVTZ AUX)
    Blend: AUG-CC-PVTZ-JKFIT
	 Reference Energy          =   -1810.6739139073031311 [Eh]
	 Singles Energy            =      -0.0000000000000000 [Eh]
	 Same-Spin Energy          =      -0.9127482917277059 [Eh]
	 Opposite-Spin Energy      =      -2.5261967245854802 [Eh]
	 Correlation Energy        =      -3.4389450163131858 [Eh]
	 Total Energy              =   -1814.1128589236163862 [Eh]

	 ================> DF-SCS-MP2 Energies <==================
	-----------------------------------------------------------
	 SCS Same-Spin Scale       =       0.3333333333333333 [-]
	 SCS Opposite-Spin Scale   =       1.2000000000000000 [-]
	 SCS Same-Spin Energy      =      -0.3042494305759019 [Eh]
	 SCS Opposite-Spin Energy  =      -3.0314360695025759 [Eh]
	 SCS Correlation Energy    =      -3.3356855000784780 [Eh]
	 SCS Total Energy          =   -1814.0095994073815291 [Eh]
	-----------------------------------------------------------

  Dipole Moment: [D]
     X:   -15.0428      Y:     2.8067      Z:     0.0967     Total:    15.3027

*** Psi4 exiting successfully. Buy a developer a beer!
