                               Psi4 1.3.2 release

  ==> Input File <==

--------------------------------------------------------------------------
#psi4
#
memory 32 gb

molecule  {
-4 1
  P        2.5713597     0.0933732    -0.3317352
  P       -0.1750573    -1.1237311     0.3127640
  P       -2.7088530     0.4754690    -0.2006980
  O        1.9534540     1.6068400    -0.1842610
  O        1.2509400    -0.8782220    -0.5450080
  O        3.2679280     0.0927970    -1.6978490
  O        3.3289310    -0.2934220     0.9022790
  O       -0.9881700     0.1612780    -0.2225170
  O        0.0932830    -1.0798150     1.7822090
  O       -0.7150640    -2.4305380    -0.3003910
  O       -3.2327710    -0.2685190     1.0414150
  O       -2.7128520     2.0086770    -0.0959300
  O       -3.2113930    -0.0752120    -1.5473660
  C        1.4216660     1.9681570     1.1052990
  H        1.0169430     1.1016800     1.6278780
  H        2.2027140     2.4392170     1.7103290
  H        0.6160650     2.6819120     0.9264900
units angstrom
no_reorient  #important for SAPT in psi4, default
symmetry c1  #important for SAPT in psi4, default
}

set PROPERTIES_ORIGIN ["COM"]
properties('MP2/aug-cc-pvtz', properties = ['dipole'])
--------------------------------------------------------------------------

    Molecular point group: c1
  Charge       = -4
  Multiplicity = 1
  Basis Set: AUG-CC-PVTZ
    Blend: AUG-CC-PVTZ
  Basis Set: (AUG-CC-PVTZ AUX)
    Blend: AUG-CC-PVTZ-JKFIT

    Orbital Energies [Eh]
    ---------------------

    Doubly Occupied:

       1A    -79.572946     2A    -79.527098     3A    -79.480827
       4A    -20.091710     5A    -20.039967     6A    -20.005471
       7A    -19.997020     8A    -19.994547     9A    -19.955363
      10A    -19.939750    11A    -19.924883    12A    -19.919430
      13A    -19.918171    14A    -10.816723    15A     -7.086794
      16A     -7.040170    17A     -6.994319    18A     -4.985765
      19A     -4.984792    20A     -4.983918    21A     -4.939417
      22A     -4.938082    23A     -4.937108    24A     -4.893797
      25A     -4.891581    26A     -4.891430    27A     -0.909023
      28A     -0.848609    29A     -0.807325    30A     -0.779515
      31A     -0.752347    32A     -0.743731    33A     -0.717661
      34A     -0.690893    35A     -0.664232    36A     -0.659546
      37A     -0.472836    38A     -0.294433    39A     -0.239825
      40A     -0.187740    41A     -0.168803    42A     -0.153992
      43A     -0.127277    44A     -0.099815    45A     -0.081962
      46A     -0.066175    47A     -0.051946    48A     -0.046803
      49A     -0.034807    50A     -0.015782    51A     -0.009783
      52A     -0.001874    53A      0.008628    54A      0.015516
      55A      0.021346    56A      0.039381    57A      0.046529
      58A      0.053426    59A      0.068807    60A      0.072541
      61A      0.090332    62A      0.099297    63A      0.101384
      64A      0.103080    65A      0.117650    66A      0.127639
      67A      0.143878    68A      0.149804    69A      0.171464

  @DF-RHF Final Energy: -1810.68597934405398

   => Energetics <=

    Nuclear Repulsion Energy =           1464.0268808567705037
    One-Electron Energy =               -5503.5314876409847784
    Two-Electron Energy =                2228.8186274401600713
    Total Energy =                      -1810.6859793440539761
  Basis Set: (AUG-CC-PVTZ AUX)
    Blend: AUG-CC-PVTZ-RI
    Molecular point group: c1

    Geometry (in Angstrom), charge = -4, multiplicity = 1:

       Center              X                  Y                   Z               Mass
    ------------   -----------------  -----------------  -----------------  -----------------
         P            2.587043715617     0.114985885075    -0.320101423018    30.973761998420
         P           -0.159373284383    -1.102118414925     0.324397776982    30.973761998420
         P           -2.693168984383     0.497081685075    -0.189064223018    30.973761998420
         O            1.969138015617     1.628452685075    -0.172627223018    15.994914619570
         O            1.266624015617    -0.856609314925    -0.533374223018    15.994914619570
         O            3.283612015617     0.114409685075    -1.686215223018    15.994914619570
         O            3.344615015617    -0.271809314925     0.913912776982    15.994914619570
         O           -0.972485984383     0.182890685075    -0.210883223018    15.994914619570
         O            0.108967015617    -1.058202314925     1.793842776982    15.994914619570
         O           -0.699379984383    -2.408925314925    -0.288757223018    15.994914619570
         O           -3.217086984383    -0.246906314925     1.053048776982    15.994914619570
         O           -2.697167984383     2.030289685075    -0.084296223018    15.994914619570
         O           -3.195708984383    -0.053599314925    -1.535732223018    15.994914619570
         C            1.437350015617     1.989769685075     1.116932776982    12.000000000000
         H            1.032627015617     1.123292685075     1.639511776982     1.007825032230
         H            2.218398015617     2.460829685075     1.721962776982     1.007825032230
         H            0.631749015617     2.703524685075     0.938123776982     1.007825032230

  Basis Set: AUG-CC-PVTZ
    Blend: AUG-CC-PVTZ
  Basis Set: (AUG-CC-PVTZ AUX)
    Blend: AUG-CC-PVTZ-JKFIT
	 Reference Energy          =   -1810.6859793440539761 [Eh]
	 Singles Energy            =      -0.0000000000000000 [Eh]
	 Same-Spin Energy          =      -0.9133107727857366 [Eh]
	 Opposite-Spin Energy      =      -2.5263629004256325 [Eh]
	 Correlation Energy        =      -3.4396736732113693 [Eh]
	 Total Energy              =   -1814.1256530172654493 [Eh]

	 ================> DF-SCS-MP2 Energies <==================
	-----------------------------------------------------------
	 SCS Same-Spin Scale       =       0.3333333333333333 [-]
	 SCS Opposite-Spin Scale   =       1.2000000000000000 [-]
	 SCS Same-Spin Energy      =      -0.3044369242619122 [Eh]
	 SCS Opposite-Spin Energy  =      -3.0316354805107588 [Eh]
	 SCS Correlation Energy    =      -3.3360724047726711 [Eh]
	 SCS Total Energy          =   -1814.0220517488266978 [Eh]
	-----------------------------------------------------------

  Dipole Moment: [D]
     X:     9.1742      Y:     2.7453      Z:     2.1973     Total:     9.8250

*** Psi4 exiting successfully. Buy a developer a beer!
