                               Psi4 1.3.2 release

  ==> Input File <==

--------------------------------------------------------------------------
#psi4
#
memory 32 gb

molecule  {
-4 1
  P        2.5828670     0.0826120    -0.3559070
  P       -0.1833470    -1.1435920     0.2927960
  P       -2.7088530     0.4754690    -0.2006980
  O        1.8775287     1.7907058    -0.1635555
  O        1.2509400    -0.8782220    -0.5450080
  O        3.2679280     0.0927970    -1.6978490
  O        3.3289310    -0.2934220     0.9022790
  O       -0.9881700     0.1612780    -0.2225170
  O        0.0932830    -1.0798150     1.7822090
  O       -0.7150640    -2.4305380    -0.3003910
  O       -3.2327710    -0.2685190     1.0414150
  O       -2.7128520     2.0086770    -0.0959300
  O       -3.2113930    -0.0752120    -1.5473660
  C        1.4216660     1.9681570     1.1052990
  H        1.0169430     1.1016800     1.6278780
  H        2.2027140     2.4392170     1.7103290
  H        0.6160650     2.6819120     0.9264900
units angstrom
no_reorient  #important for SAPT in psi4, default
symmetry c1  #important for SAPT in psi4, default
}

set PROPERTIES_ORIGIN ["COM"]
properties('MP2/aug-cc-pvtz', properties = ['dipole'])
--------------------------------------------------------------------------

    Molecular point group: c1
  Charge       = -4
  Multiplicity = 1
  Basis Set: AUG-CC-PVTZ
    Blend: AUG-CC-PVTZ
  Basis Set: (AUG-CC-PVTZ AUX)
    Blend: AUG-CC-PVTZ-JKFIT

    Orbital Energies [Eh]
    ---------------------

    Doubly Occupied:

       1A    -79.593588     2A    -79.530943     3A    -79.479420
       4A    -20.076769     5A    -20.053280     6A    -20.020514
       7A    -20.018147     8A    -19.993969     9A    -19.952482
      10A    -19.949345    11A    -19.922211    12A    -19.919080
      13A    -19.917077    14A    -10.788954    15A     -7.105850
      16A     -7.043946    17A     -6.992929    18A     -5.004522
      19A     -5.003664    20A     -5.002778    21A     -4.943305
      22A     -4.941754    23A     -4.940842    24A     -4.892406
      25A     -4.890178    26A     -4.890053    27A     -0.890649
      28A     -0.854822    29A     -0.817728    30A     -0.785559
      31A     -0.771174    32A     -0.745312    33A     -0.714221
      34A     -0.702872    35A     -0.662293    36A     -0.658854
      37A     -0.433385    38A     -0.300796    39A     -0.230460
      40A     -0.182340    41A     -0.161001    42A     -0.136223
      43A     -0.132748    44A     -0.102435    45A     -0.092319
      46A     -0.068473    47A     -0.057796    48A     -0.046903
      49A     -0.032140    50A     -0.019707    51A     -0.008093
      52A      0.001974    53A      0.008647    54A      0.016938
      55A      0.032220    56A      0.036616    57A      0.045885
      58A      0.049823    59A      0.054887    60A      0.066148
      61A      0.087604    62A      0.100046    63A      0.102289
      64A      0.104066    65A      0.111633    66A      0.123140
      67A      0.145304    68A      0.150499    69A      0.172736

  @DF-RHF Final Energy: -1810.66102544543764

   => Energetics <=

    Nuclear Repulsion Energy =           1457.0167194833468329
    One-Electron Energy =               -5489.2237718069582115
    Two-Electron Energy =                2221.5460268781739614
    Total Energy =                      -1810.6610254454376445
  Basis Set: (AUG-CC-PVTZ AUX)
    Blend: AUG-CC-PVTZ-RI
    Molecular point group: c1

    Geometry (in Angstrom), charge = -4, multiplicity = 1:

       Center              X                  Y                   Z               Mass
    ------------   -----------------  -----------------  -----------------  -----------------
         P            2.602712205864     0.096787277650    -0.340406046771    30.973761998420
         P           -0.163501794136    -1.129416722350     0.308296953229    30.973761998420
         P           -2.689007794136     0.489644277650    -0.185197046771    30.973761998420
         O            1.897373905864     1.804881077650    -0.148054546771    15.994914619570
         O            1.270785205864    -0.864046722350    -0.529507046771    15.994914619570
         O            3.287773205864     0.106972277650    -1.682348046771    15.994914619570
         O            3.348776205864    -0.279246722350     0.917779953229    15.994914619570
         O           -0.968324794136     0.175453277650    -0.207016046771    15.994914619570
         O            0.113128205864    -1.065639722350     1.797709953229    15.994914619570
         O           -0.695218794136    -2.416362722350    -0.284890046771    15.994914619570
         O           -3.212925794136    -0.254343722350     1.056915953229    15.994914619570
         O           -2.693006794136     2.022852277650    -0.080429046771    15.994914619570
         O           -3.191547794136    -0.061036722350    -1.531865046771    15.994914619570
         C            1.441511205864     1.982332277650     1.120799953229    12.000000000000
         H            1.036788205864     1.115855277650     1.643378953229     1.007825032230
         H            2.222559205864     2.453392277650     1.725829953229     1.007825032230
         H            0.635910205864     2.696087277650     0.941990953229     1.007825032230

  Basis Set: AUG-CC-PVTZ
    Blend: AUG-CC-PVTZ
  Basis Set: (AUG-CC-PVTZ AUX)
    Blend: AUG-CC-PVTZ-JKFIT
	 Reference Energy          =   -1810.6610254454376445 [Eh]
	 Singles Energy            =      -0.0000000000000000 [Eh]
	 Same-Spin Energy          =      -0.9154091438688391 [Eh]
	 Opposite-Spin Energy      =      -2.5314797476554398 [Eh]
	 Correlation Energy        =      -3.4468888915242788 [Eh]
	 Total Energy              =   -1814.1079143369618123 [Eh]

	 ================> DF-SCS-MP2 Energies <==================
	-----------------------------------------------------------
	 SCS Same-Spin Scale       =       0.3333333333333333 [-]
	 SCS Opposite-Spin Scale   =       1.2000000000000000 [-]
	 SCS Same-Spin Energy      =      -0.3051363812896130 [Eh]
	 SCS Opposite-Spin Energy  =      -3.0377756971865275 [Eh]
	 SCS Correlation Energy    =      -3.3429120784761404 [Eh]
	 SCS Total Energy          =   -1814.0039375239136916 [Eh]
	-----------------------------------------------------------

  Dipole Moment: [D]
     X:     9.6104      Y:     1.3194      Z:     1.2008     Total:     9.7746

*** Psi4 exiting successfully. Buy a developer a beer!
