                               Psi4 1.3.2 release

  ==> Input File <==

--------------------------------------------------------------------------
#psi4
#
memory 32 gb

molecule  {
-4 1
  P        2.5828670     0.0826120    -0.3559070
  P       -0.1833470    -1.1435920     0.2927960
  P       -2.7088530     0.4754690    -0.2006980
  O        1.9534540     1.6068400    -0.1842610
  O        1.2509400    -0.8782220    -0.5450080
  O        3.2679280     0.0927970    -1.6978490
  O        3.3289310    -0.2934220     0.9022790
  O       -0.9881700     0.1612780    -0.2225170
  O        0.0932830    -1.0798150     1.7822090
  O       -0.7150640    -2.4305380    -0.3003910
  O       -3.2327710    -0.2685190     1.0414150
  O       -2.7128520     2.0086770    -0.0959300
  O       -3.2113930    -0.0752120    -1.5473660
  C        1.4216660     1.9681570     1.1052990
  H        0.9818956     1.0932552     1.5836510
  H        2.2094001     2.4780647     1.6687384
  H        0.6160650     2.6819120     0.9264900
units angstrom
no_reorient  #important for SAPT in psi4, default
symmetry c1  #important for SAPT in psi4, default
}

set PROPERTIES_ORIGIN ["COM"]
properties('MP2/aug-cc-pvtz', properties = ['dipole'])
--------------------------------------------------------------------------

    Molecular point group: c1
  Charge       = -4
  Multiplicity = 1
  Basis Set: AUG-CC-PVTZ
    Blend: AUG-CC-PVTZ
  Basis Set: (AUG-CC-PVTZ AUX)
    Blend: AUG-CC-PVTZ-JKFIT

    Orbital Energies [Eh]
    ---------------------

    Doubly Occupied:

       1A    -79.572103     2A    -79.527235     3A    -79.480050
       4A    -20.083888     5A    -20.038335     6A    -20.002409
       7A    -20.002204     8A    -19.993394     9A    -19.950650
      10A    -19.945455    11A    -19.924050    12A    -19.919359
      13A    -19.917568    14A    -10.811224    15A     -7.085929
      16A     -7.040182    17A     -6.993558    18A     -4.984871
      19A     -4.983940    20A     -4.983117    21A     -4.939454
      22A     -4.938071    23A     -4.937145    24A     -4.893021
      25A     -4.890830    26A     -4.890681    27A     -0.901393
      28A     -0.845655    29A     -0.806634    30A     -0.778040
      31A     -0.757215    32A     -0.742316    33A     -0.713856
      34A     -0.699993    35A     -0.663599    36A     -0.659232
      37A     -0.466111    38A     -0.293323    39A     -0.232942
      40A     -0.183148    41A     -0.169300    42A     -0.148368
      43A     -0.124778    44A     -0.099095    45A     -0.083241
      46A     -0.065157    47A     -0.051520    48A     -0.043752
      49A     -0.030678    50A     -0.016323    51A     -0.005249
      52A     -0.000256    53A      0.009563    54A      0.015012
      55A      0.021336    56A      0.037688    57A      0.047140
      58A      0.054015    59A      0.067099    60A      0.070848
      61A      0.090830    62A      0.100298    63A      0.102108
      64A      0.103704    65A      0.113648    66A      0.124951
      67A      0.144328    68A      0.150279    69A      0.171903

  @DF-RHF Final Energy: -1810.68782777063643

   => Energetics <=

    Nuclear Repulsion Energy =           1463.0955675150505613
    One-Electron Energy =               -5501.7964986164970469
    Two-Electron Energy =                2228.0131033308098267
    Total Energy =                      -1810.6878277706364315
  Basis Set: (AUG-CC-PVTZ AUX)
    Blend: AUG-CC-PVTZ-RI
    Molecular point group: c1

    Geometry (in Angstrom), charge = -4, multiplicity = 1:

       Center              X                  Y                   Z               Mass
    ------------   -----------------  -----------------  -----------------  -----------------
         P            2.598285694359     0.107650745363    -0.338846952596    30.973761998420
         P           -0.167928305641    -1.118553254637     0.309856047404    30.973761998420
         P           -2.693434305641     0.500507745363    -0.183637952596    30.973761998420
         O            1.968872694359     1.631878745363    -0.167200952596    15.994914619570
         O            1.266358694359    -0.853183254637    -0.527947952596    15.994914619570
         O            3.283346694359     0.117835745363    -1.680788952596    15.994914619570
         O            3.344349694359    -0.268383254637     0.919339047404    15.994914619570
         O           -0.972751305641     0.186316745363    -0.205456952596    15.994914619570
         O            0.108701694359    -1.054776254637     1.799269047404    15.994914619570
         O           -0.699645305641    -2.405499254637    -0.283330952596    15.994914619570
         O           -3.217352305641    -0.243480254637     1.058475047404    15.994914619570
         O           -2.697433305641     2.033715745363    -0.078869952596    15.994914619570
         O           -3.195974305641    -0.050173254637    -1.530305952596    15.994914619570
         C            1.437084694359     1.993195745363     1.122359047404    12.000000000000
         H            0.997314294359     1.118293945363     1.600711047404     1.007825032230
         H            2.224818794359     2.503103445363     1.685798447404     1.007825032230
         H            0.631483694359     2.706950745363     0.943550047404     1.007825032230

  Basis Set: AUG-CC-PVTZ
    Blend: AUG-CC-PVTZ
  Basis Set: (AUG-CC-PVTZ AUX)
    Blend: AUG-CC-PVTZ-JKFIT
	 Reference Energy          =   -1810.6878277706364315 [Eh]
	 Singles Energy            =      -0.0000000000000000 [Eh]
	 Same-Spin Energy          =      -0.9131063162177258 [Eh]
	 Opposite-Spin Energy      =      -2.5259467230771593 [Eh]
	 Correlation Energy        =      -3.4390530392948850 [Eh]
	 Total Energy              =   -1814.1268808099312082 [Eh]

	 ================> DF-SCS-MP2 Energies <==================
	-----------------------------------------------------------
	 SCS Same-Spin Scale       =       0.3333333333333333 [-]
	 SCS Opposite-Spin Scale   =       1.2000000000000000 [-]
	 SCS Same-Spin Energy      =      -0.3043687720725752 [Eh]
	 SCS Opposite-Spin Energy  =      -3.0311360676925911 [Eh]
	 SCS Correlation Energy    =      -3.3355048397651665 [Eh]
	 SCS Total Energy          =   -1814.0233326104016669 [Eh]
	-----------------------------------------------------------

  Dipole Moment: [D]
     X:     9.2225      Y:     2.3492      Z:     1.5975     Total:     9.6501

*** Psi4 exiting successfully. Buy a developer a beer!
