                               Psi4 1.3.2 release

  ==> Input File <==

--------------------------------------------------------------------------
#psi4
#
memory 32 gb

molecule  {
-4 1
  P        2.5828670     0.0826120    -0.3559070
  P       -0.1833470    -1.1435920     0.2927960
  P       -2.7088530     0.4754690    -0.2006980
  O        1.9534540     1.6068400    -0.1842610
  O        1.2650525    -0.8753529    -0.5194248
  O        3.2679280     0.0927970    -1.6978490
  O        3.3289310    -0.2934220     0.9022790
  O       -0.9881700     0.1612780    -0.2225170
  O        0.1187879    -1.0750220     1.7770316
  O       -0.7150640    -2.4305380    -0.3003910
  O       -3.2327710    -0.2685190     1.0414150
  O       -2.7128520     2.0086770    -0.0959300
  O       -3.2113930    -0.0752120    -1.5473660
  C        1.4216660     1.9681570     1.1052990
  H        1.0169430     1.1016800     1.6278780
  H        2.2027140     2.4392170     1.7103290
  H        0.6160650     2.6819120     0.9264900
units angstrom
no_reorient  #important for SAPT in psi4, default
symmetry c1  #important for SAPT in psi4, default
}

set PROPERTIES_ORIGIN ["COM"]
properties('MP2/aug-cc-pvtz', properties = ['dipole'])
--------------------------------------------------------------------------

    Molecular point group: c1
  Charge       = -4
  Multiplicity = 1
  Basis Set: AUG-CC-PVTZ
    Blend: AUG-CC-PVTZ
  Basis Set: (AUG-CC-PVTZ AUX)
    Blend: AUG-CC-PVTZ-JKFIT

    Orbital Energies [Eh]
    ---------------------

    Doubly Occupied:

       1A    -79.569933     2A    -79.528369     3A    -79.480849
       4A    -20.083971     5A    -20.036563     6A    -20.001484
       7A    -19.999432     8A    -19.994730     9A    -19.949278
      10A    -19.947722    11A    -19.924643    12A    -19.920059
      13A    -19.918441    14A    -10.810414    15A     -7.083928
      16A     -7.041196    17A     -6.994360    18A     -4.982911
      19A     -4.981963    20A     -4.981108    21A     -4.940520
      22A     -4.939094    23A     -4.938120    24A     -4.893827
      25A     -4.891627    26A     -4.891481    27A     -0.901424
      28A     -0.846691    29A     -0.806616    30A     -0.778163
      31A     -0.755507    32A     -0.742736    33A     -0.714536
      34A     -0.700933    35A     -0.664264    36A     -0.660033
      37A     -0.465550    38A     -0.296011    39A     -0.234086
      40A     -0.184733    41A     -0.163398    42A     -0.147826
      43A     -0.124598    44A     -0.099135    45A     -0.083558
      46A     -0.065576    47A     -0.051395    48A     -0.044225
      49A     -0.031602    50A     -0.017199    51A     -0.005940
      52A      0.000287    53A      0.009660    54A      0.015462
      55A      0.021117    56A      0.038058    57A      0.046494
      58A      0.055993    59A      0.067776    60A      0.071867
      61A      0.089980    62A      0.099746    63A      0.101579
      64A      0.103073    65A      0.113013    66A      0.124135
      67A      0.143543    68A      0.149507    69A      0.171174

  @DF-RHF Final Energy: -1810.69063424851265

   => Energetics <=

    Nuclear Repulsion Energy =           1463.6209472235284466
    One-Electron Energy =               -5502.8445682288211174
    Two-Electron Energy =                2228.5329867567797919
    Total Energy =                      -1810.6906342485126515
  Basis Set: (AUG-CC-PVTZ AUX)
    Blend: AUG-CC-PVTZ-RI
    Molecular point group: c1

    Geometry (in Angstrom), charge = -4, multiplicity = 1:

       Center              X                  Y                   Z               Mass
    ------------   -----------------  -----------------  -----------------  -----------------
         P            2.595813595738     0.107307722724    -0.340388152837    30.973761998420
         P           -0.170400404262    -1.118896277276     0.308314847163    30.973761998420
         P           -2.695906404262     0.500164722724    -0.185179152837    30.973761998420
         O            1.966400595738     1.631535722724    -0.168742152837    15.994914619570
         O            1.277999095738    -0.850657177276    -0.503905952837    15.994914619570
         O            3.280874595738     0.117492722724    -1.682330152837    15.994914619570
         O            3.341877595738    -0.268726277276     0.917797847163    15.994914619570
         O           -0.975223404262     0.185973722724    -0.206998152837    15.994914619570
         O            0.131734495738    -1.050326277276     1.792550447163    15.994914619570
         O           -0.702117404262    -2.405842277276    -0.284872152837    15.994914619570
         O           -3.219824404262    -0.243823277276     1.056933847163    15.994914619570
         O           -2.699905404262     2.033372722724    -0.080411152837    15.994914619570
         O           -3.198446404262    -0.050516277276    -1.531847152837    15.994914619570
         C            1.434612595738     1.992852722724     1.120817847163    12.000000000000
         H            1.029889595738     1.126375722724     1.643396847163     1.007825032230
         H            2.215660595738     2.463912722724     1.725847847163     1.007825032230
         H            0.629011595738     2.706607722724     0.942008847163     1.007825032230

  Basis Set: AUG-CC-PVTZ
    Blend: AUG-CC-PVTZ
  Basis Set: (AUG-CC-PVTZ AUX)
    Blend: AUG-CC-PVTZ-JKFIT
	 Reference Energy          =   -1810.6906342485126515 [Eh]
	 Singles Energy            =      -0.0000000000000000 [Eh]
	 Same-Spin Energy          =      -0.9128039468862569 [Eh]
	 Opposite-Spin Energy      =      -2.5251446007426641 [Eh]
	 Correlation Energy        =      -3.4379485476289209 [Eh]
	 Total Energy              =   -1814.1285827961414725 [Eh]

	 ================> DF-SCS-MP2 Energies <==================
	-----------------------------------------------------------
	 SCS Same-Spin Scale       =       0.3333333333333333 [-]
	 SCS Opposite-Spin Scale   =       1.2000000000000000 [-]
	 SCS Same-Spin Energy      =      -0.3042679822954190 [Eh]
	 SCS Opposite-Spin Energy  =      -3.0301735208911968 [Eh]
	 SCS Correlation Energy    =      -3.3344415031866159 [Eh]
	 SCS Total Energy          =   -1814.0250757516992053 [Eh]
	-----------------------------------------------------------

  Dipole Moment: [D]
     X:     9.0670      Y:     2.2695      Z:     1.5722     Total:     9.4780

*** Psi4 exiting successfully. Buy a developer a beer!
