                               Psi4 1.3.2 release

  ==> Input File <==

--------------------------------------------------------------------------
#psi4
#
memory 32 gb

molecule  {
-4 1
  P        2.5828670     0.0826120    -0.3559070
  P       -0.1833470    -1.1435920     0.2927960
  P       -2.7088530     0.4754690    -0.2006980
  O        1.9534540     1.6068400    -0.1842610
  O        1.2509400    -0.8782220    -0.5450080
  O        3.2679280     0.0927970    -1.6978490
  O        3.3289310    -0.2934220     0.9022790
  O       -0.9869043     0.1676201    -0.2086894
  O        0.0932830    -1.0798150     1.7822090
  O       -0.7150640    -2.4305380    -0.3003910
  O       -3.2327710    -0.2685190     1.0414150
  O       -2.7128520     2.0086770    -0.0959300
  O       -3.2238927    -0.0714824    -1.5441596
  C        1.4216660     1.9681570     1.1052990
  H        1.0169430     1.1016800     1.6278780
  H        2.2027140     2.4392170     1.7103290
  H        0.6160650     2.6819120     0.9264900
units angstrom
no_reorient  #important for SAPT in psi4, default
symmetry c1  #important for SAPT in psi4, default
}

set PROPERTIES_ORIGIN ["COM"]
properties('MP2/aug-cc-pvtz', properties = ['dipole'])
--------------------------------------------------------------------------

    Molecular point group: c1
  Charge       = -4
  Multiplicity = 1
  Basis Set: AUG-CC-PVTZ
    Blend: AUG-CC-PVTZ
  Basis Set: (AUG-CC-PVTZ AUX)
    Blend: AUG-CC-PVTZ-JKFIT

    Orbital Energies [Eh]
    ---------------------

    Doubly Occupied:

       1A    -79.572742     2A    -79.527266     3A    -79.479859
       4A    -20.085700     5A    -20.038712     6A    -20.002956
       7A    -20.002728     8A    -19.993738     9A    -19.949626
      10A    -19.946159    11A    -19.923282    12A    -19.919922
      13A    -19.916605    14A    -10.811588    15A     -7.086563
      16A     -7.040205    17A     -6.993357    18A     -4.985513
      19A     -4.984570    20A     -4.983749    21A     -4.939474
      22A     -4.938098    23A     -4.937164    24A     -4.892810
      25A     -4.890628    26A     -4.890490    27A     -0.902038
      28A     -0.845923    29A     -0.806920    30A     -0.778299
      31A     -0.757756    32A     -0.742173    33A     -0.713754
      34A     -0.699943    35A     -0.663147    36A     -0.658842
      37A     -0.466739    38A     -0.294080    39A     -0.234810
      40A     -0.184416    41A     -0.164018    42A     -0.148813
      43A     -0.126057    44A     -0.099019    45A     -0.083073
      46A     -0.065177    47A     -0.052061    48A     -0.044232
      49A     -0.032148    50A     -0.016254    51A     -0.006854
      52A      0.000165    53A      0.009529    54A      0.014683
      55A      0.021484    56A      0.037204    57A      0.047311
      58A      0.053403    59A      0.066833    60A      0.070688
      61A      0.090550    62A      0.100609    63A      0.102530
      64A      0.104060    65A      0.113619    66A      0.125052
      67A      0.144829    68A      0.150317    69A      0.172348

  @DF-RHF Final Energy: -1810.68914389358292

   => Energetics <=

    Nuclear Repulsion Energy =           1462.7909956641594817
    One-Electron Energy =               -5501.1706039780101491
    Two-Electron Energy =                2227.6904644202672898
    Total Energy =                      -1810.6891438935831502
  Basis Set: (AUG-CC-PVTZ AUX)
    Blend: AUG-CC-PVTZ-RI
    Molecular point group: c1

    Geometry (in Angstrom), charge = -4, multiplicity = 1:

       Center              X                  Y                   Z               Mass
    ------------   -----------------  -----------------  -----------------  -----------------
         P            2.598849737208     0.107163854778    -0.340186835630    30.973761998420
         P           -0.167364262792    -1.119040145222     0.308516164370    30.973761998420
         P           -2.692870262792     0.500020854778    -0.184977835630    30.973761998420
         O            1.969436737208     1.631391854778    -0.168540835630    15.994914619570
         O            1.266922737208    -0.853670145222    -0.529287835630    15.994914619570
         O            3.283910737208     0.117348854778    -1.682128835630    15.994914619570
         O            3.344913737208    -0.268870145222     0.917999164370    15.994914619570
         O           -0.970921562792     0.192171954778    -0.192969235630    15.994914619570
         O            0.109265737208    -1.055263145222     1.797929164370    15.994914619570
         O           -0.699081262792    -2.405986145222    -0.284670835630    15.994914619570
         O           -3.216788262792    -0.243967145222     1.057135164370    15.994914619570
         O           -2.696869262792     2.033228854778    -0.080209835630    15.994914619570
         O           -3.207909962792    -0.046930545222    -1.528439435630    15.994914619570
         C            1.437648737208     1.992708854778     1.121019164370    12.000000000000
         H            1.032925737208     1.126231854778     1.643598164370     1.007825032230
         H            2.218696737208     2.463768854778     1.726049164370     1.007825032230
         H            0.632047737208     2.706463854778     0.942210164370     1.007825032230

  Basis Set: AUG-CC-PVTZ
    Blend: AUG-CC-PVTZ
  Basis Set: (AUG-CC-PVTZ AUX)
    Blend: AUG-CC-PVTZ-JKFIT
	 Reference Energy          =   -1810.6891438935829228 [Eh]
	 Singles Energy            =      -0.0000000000000000 [Eh]
	 Same-Spin Energy          =      -0.9129868071189117 [Eh]
	 Opposite-Spin Energy      =      -2.5257227260643136 [Eh]
	 Correlation Energy        =      -3.4387095331832254 [Eh]
	 Total Energy              =   -1814.1278534267662508 [Eh]

	 ================> DF-SCS-MP2 Energies <==================
	-----------------------------------------------------------
	 SCS Same-Spin Scale       =       0.3333333333333333 [-]
	 SCS Opposite-Spin Scale   =       1.2000000000000000 [-]
	 SCS Same-Spin Energy      =      -0.3043289357063039 [Eh]
	 SCS Opposite-Spin Energy  =      -3.0308672712771760 [Eh]
	 SCS Correlation Energy    =      -3.3351962069834800 [Eh]
	 SCS Total Energy          =   -1814.0243401005664055 [Eh]
	-----------------------------------------------------------

  Dipole Moment: [D]
     X:     9.2881      Y:     2.3134      Z:     1.5798     Total:     9.7014

*** Psi4 exiting successfully. Buy a developer a beer!
