                               Psi4 1.3.2 release

  ==> Input File <==

--------------------------------------------------------------------------
#psi4
#
memory 32 gb

molecule  {
-4 1
  P        2.5828670     0.0826120    -0.3559070
  P       -0.1833470    -1.1435920     0.2927960
  P       -2.7088530     0.4754690    -0.2006980
  O        1.9534540     1.6068400    -0.1842610
  O        1.2509400    -0.8782220    -0.5450080
  O        3.2679280     0.0927970    -1.6978490
  O        3.3289310    -0.2934220     0.9022790
  O       -0.7914383     0.1253555    -0.2250116
  O        0.0932830    -1.0798150     1.7822090
  O       -0.7150640    -2.4305380    -0.3003910
  O       -3.2327710    -0.2685190     1.0414150
  O       -2.7128520     2.0086770    -0.0959300
  O       -3.2113930    -0.0752120    -1.5473660
  C        1.4216660     1.9681570     1.1052990
  H        1.0169430     1.1016800     1.6278780
  H        2.2027140     2.4392170     1.7103290
  H        0.6160650     2.6819120     0.9264900
units angstrom
no_reorient  #important for SAPT in psi4, default
symmetry c1  #important for SAPT in psi4, default
}

set PROPERTIES_ORIGIN ["COM"]
properties('MP2/aug-cc-pvtz', properties = ['dipole'])
--------------------------------------------------------------------------

    Molecular point group: c1
  Charge       = -4
  Multiplicity = 1
  Basis Set: AUG-CC-PVTZ
    Blend: AUG-CC-PVTZ
  Basis Set: (AUG-CC-PVTZ AUX)
    Blend: AUG-CC-PVTZ-JKFIT

    Orbital Energies [Eh]
    ---------------------

    Doubly Occupied:

       1A    -79.560238     2A    -79.504834     3A    -79.495509
       4A    -20.076431     5A    -20.012974     6A    -19.992637
       7A    -19.992482     8A    -19.980473     9A    -19.945052
      10A    -19.940897    11A    -19.938861    12A    -19.934136
      13A    -19.933402    14A    -10.804971    15A     -7.073986
      16A     -7.017792    17A     -7.012537    18A     -4.972954
      19A     -4.971933    20A     -4.971275    21A     -4.917223
      22A     -4.914598    23A     -4.914471    24A     -4.911830
      25A     -4.910537    26A     -4.909197    27A     -0.891754
      28A     -0.841818    29A     -0.800160    30A     -0.767865
      31A     -0.747613    32A     -0.744767    33A     -0.714145
      34A     -0.686974    35A     -0.681859    36A     -0.677647
      37A     -0.459418    38A     -0.276569    39A     -0.219398
      40A     -0.168709    41A     -0.154318    42A     -0.140591
      43A     -0.119706    44A     -0.098597    45A     -0.072703
      46A     -0.066834    47A     -0.046407    48A     -0.035233
      49A     -0.025446    50A     -0.013402    51A     -0.006558
      52A      0.004890    53A      0.006062    54A      0.021638
      55A      0.025645    56A      0.045659    57A      0.053805
      58A      0.063622    59A      0.077460    60A      0.080625
      61A      0.085227    62A      0.085399    63A      0.095031
      64A      0.108809    65A      0.121220    66A      0.125518
      67A      0.127634    68A      0.143337    69A      0.152890

  @DF-RHF Final Energy: -1810.66708646027473

   => Energetics <=

    Nuclear Repulsion Energy =           1464.4089011758842389
    One-Electron Energy =               -5504.8614726043924748
    Two-Electron Energy =                2229.7854849682335043
    Total Energy =                      -1810.6670864602747315
  Basis Set: (AUG-CC-PVTZ AUX)
    Blend: AUG-CC-PVTZ-RI
    Molecular point group: c1

    Geometry (in Angstrom), charge = -4, multiplicity = 1:

       Center              X                  Y                   Z               Mass
    ------------   -----------------  -----------------  -----------------  -----------------
         P            2.586432905302     0.109909991520    -0.339020858050    30.973761998420
         P           -0.179781094698    -1.116294008480     0.309682141950    30.973761998420
         P           -2.705287094698     0.502766991520    -0.183811858050    30.973761998420
         O            1.957019905302     1.634137991520    -0.167374858050    15.994914619570
         O            1.254505905302    -0.850924008480    -0.528121858050    15.994914619570
         O            3.271493905302     0.120094991520    -1.680962858050    15.994914619570
         O            3.332496905302    -0.266124008480     0.919165141950    15.994914619570
         O           -0.787872394698     0.152653491520    -0.208125458050    15.994914619570
         O            0.096848905302    -1.052517008480     1.799095141950    15.994914619570
         O           -0.711498094698    -2.403240008480    -0.283504858050    15.994914619570
         O           -3.229205094698    -0.241221008480     1.058301141950    15.994914619570
         O           -2.709286094698     2.035974991520    -0.079043858050    15.994914619570
         O           -3.207827094698    -0.047914008480    -1.530479858050    15.994914619570
         C            1.425231905302     1.995454991520     1.122185141950    12.000000000000
         H            1.020508905302     1.128977991520     1.644764141950     1.007825032230
         H            2.206279905302     2.466514991520     1.727215141950     1.007825032230
         H            0.619630905302     2.709209991520     0.943376141950     1.007825032230

  Basis Set: AUG-CC-PVTZ
    Blend: AUG-CC-PVTZ
  Basis Set: (AUG-CC-PVTZ AUX)
    Blend: AUG-CC-PVTZ-JKFIT
	 Reference Energy          =   -1810.6670864602747315 [Eh]
	 Singles Energy            =      -0.0000000000000000 [Eh]
	 Same-Spin Energy          =      -0.9138444463564257 [Eh]
	 Opposite-Spin Energy      =      -2.5273375499307824 [Eh]
	 Correlation Energy        =      -3.4411819962872081 [Eh]
	 Total Energy              =   -1814.1082684565619729 [Eh]

	 ================> DF-SCS-MP2 Energies <==================
	-----------------------------------------------------------
	 SCS Same-Spin Scale       =       0.3333333333333333 [-]
	 SCS Opposite-Spin Scale   =       1.2000000000000000 [-]
	 SCS Same-Spin Energy      =      -0.3046148154521419 [Eh]
	 SCS Opposite-Spin Energy  =      -3.0328050599169387 [Eh]
	 SCS Correlation Energy    =      -3.3374198753690805 [Eh]
	 SCS Total Energy          =   -1814.0045063356437822 [Eh]
	-----------------------------------------------------------

  Dipole Moment: [D]
     X:     7.1739      Y:     3.0246      Z:     1.3407     Total:     7.9000

*** Psi4 exiting successfully. Buy a developer a beer!
