                               Psi4 1.4a3.dev225

  ==> Input File <==

--------------------------------------------------------------------------
#psi4
#
memory 32 gb

molecule  {
-4 1
  P       -2.5202440    -0.2449420     0.3712220
  P        0.3565170    -0.5960480    -0.3589090
  P        3.1750170     0.3881900     0.1554910
  O       -2.7927880     1.3311510    -0.1150520
  O       -0.9169740    -0.0836090     0.6422800
  O       -3.1944103    -0.4634180     1.7325702
  O       -2.8507450    -1.1694890    -0.7786080
  O        1.4898640     0.0841660     0.5723090
  O        0.2127210     0.0849480    -1.7048820
  O        0.4027150    -2.1095660    -0.2874290
  O        3.5327910    -0.6840640    -0.8835370
  O        3.1643710     1.8286230    -0.3742880
  O        3.8338960     0.2099350     1.5311200
  C       -4.1398760     1.5889580    -0.5252390
  H       -4.4292020     0.9309370    -1.3496150
  H       -4.8386320     1.4471050     0.3059850
  H       -4.1840730     2.6280350    -0.8559160
units angstrom
no_reorient  #important for SAPT in psi4, default
symmetry c1  #important for SAPT in psi4, default
}

set PROPERTIES_ORIGIN ["COM"]
properties('MP2/aug-cc-pvtz', properties = ['dipole'])
--------------------------------------------------------------------------

    Molecular point group: c1
  Charge       = -4
  Multiplicity = 1
  Basis Set: AUG-CC-PVTZ
    Blend: AUG-CC-PVTZ
  Basis Set: (AUG-CC-PVTZ AUX)
    Blend: AUG-CC-PVTZ-JKFIT

    Orbital Energies [Eh]
    ---------------------

    Doubly Occupied:

       1A    -79.584531     2A    -79.517972     3A    -79.475762
       4A    -20.120591     5A    -20.043344     6A    -20.016025
       7A    -20.006935     8A    -19.984805     9A    -19.937540
      10A    -19.935948    11A    -19.922230    12A    -19.917343
      13A    -19.913519    14A    -10.884008    15A     -7.098118
      16A     -7.031039    17A     -6.989521    18A     -4.997329
      19A     -4.995989    20A     -4.994960    21A     -4.930448
      22A     -4.928853    23A     -4.927711    24A     -4.888918
      25A     -4.886806    26A     -4.886678    27A     -0.931945
      28A     -0.853898    29A     -0.804957    30A     -0.777532
      31A     -0.759255    32A     -0.736954    33A     -0.706425
      34A     -0.687622    35A     -0.662257    36A     -0.657578
      37A     -0.528950    38A     -0.310002    39A     -0.252783
      40A     -0.221426    41A     -0.197176    42A     -0.165620
      43A     -0.140430    44A     -0.108217    45A     -0.094323
      46A     -0.079178    47A     -0.063264    48A     -0.052249
      49A     -0.035507    50A     -0.024977    51A     -0.012947
      52A     -0.009983    53A      0.010560    54A      0.011943
      55A      0.022690    56A      0.034841    57A      0.047636
      58A      0.054268    59A      0.062007    60A      0.080624
      61A      0.096921    62A      0.103055    63A      0.106707
      64A      0.107707    65A      0.124211    66A      0.134736
      67A      0.147659    68A      0.153984    69A      0.174240

  @DF-RHF Final Energy: -1810.67410904741382

   => Energetics <=

    Nuclear Repulsion Energy =           1424.6403670868460267
    One-Electron Energy =               -5424.1917703332519523
    Two-Electron Energy =                2188.8772941989923311
    Total Energy =                      -1810.6741090474138218
  Basis Set: (AUG-CC-PVTZ AUX)
    Blend: AUG-CC-PVTZ-RI
    Molecular point group: c1

    Geometry (in Angstrom), charge = -4, multiplicity = 1:

       Center              X                  Y                   Z               Mass
    ------------   -----------------  -----------------  -----------------  -----------------
         P           -2.573161116656    -0.224604090015     0.362523506634    30.973761998420
         P            0.303599883344    -0.575710090015    -0.367607493366    30.973761998420
         P            3.122099883344     0.408527909985     0.146792506634    30.973761998420
         O           -2.845705116656     1.351488909985    -0.123750493366    15.994914619570
         O           -0.969891116656    -0.063271090015     0.633581506634    15.994914619570
         O           -3.247327416656    -0.443080090015     1.723871706634    15.994914619570
         O           -2.903662116656    -1.149151090015    -0.787306493366    15.994914619570
         O            1.436946883344     0.104503909985     0.563610506634    15.994914619570
         O            0.159803883344     0.105285909985    -1.713580493366    15.994914619570
         O            0.349797883344    -2.089228090015    -0.296127493366    15.994914619570
         O            3.479873883344    -0.663726090015    -0.892235493366    15.994914619570
         O            3.111453883344     1.848960909985    -0.382986493366    15.994914619570
         O            3.780978883344     0.230272909985     1.522421506634    15.994914619570
         C           -4.192793116656     1.609295909985    -0.533937493366    12.000000000000
         H           -4.482119116656     0.951274909985    -1.358313493366     1.007825032230
         H           -4.891549116656     1.467442909985     0.297286506634     1.007825032230
         H           -4.236990116656     2.648372909985    -0.864614493366     1.007825032230

  Basis Set: AUG-CC-PVTZ
    Blend: AUG-CC-PVTZ
  Basis Set: (AUG-CC-PVTZ AUX)
    Blend: AUG-CC-PVTZ-JKFIT
	 Reference Energy          =   -1810.6741090474138218 [Eh]
	 Singles Energy            =      -0.0000000000000000 [Eh]
	 Same-Spin Energy          =      -0.9127579510808310 [Eh]
	 Opposite-Spin Energy      =      -2.5262076884976090 [Eh]
	 Correlation Energy        =      -3.4389656395784400 [Eh]
	 Total Energy              =   -1814.1130746869921495 [Eh]

	 ================> DF-SCS-MP2 Energies <==================
	-----------------------------------------------------------
	 SCS Same-Spin Scale       =       0.3333333333333333 [-]
	 SCS Opposite-Spin Scale   =       1.2000000000000000 [-]
	 SCS Same-Spin Energy      =      -0.3042526503602770 [Eh]
	 SCS Opposite-Spin Energy  =      -3.0314492261971306 [Eh]
	 SCS Correlation Energy    =      -3.3357018765574078 [Eh]
	 SCS Total Energy          =   -1814.0098109239711448 [Eh]
	-----------------------------------------------------------

  Dipole Moment: [D]
     X:   -14.9033      Y:     2.7329      Z:    -0.1163     Total:    15.1523

*** Psi4 exiting successfully. Buy a developer a beer!
