                               Psi4 1.4a3.dev225

  ==> Input File <==

--------------------------------------------------------------------------
#psi4
#
memory 32 gb

molecule  {
-4 1
  P       -2.5202440    -0.2449420     0.3712220
  P        0.3565170    -0.5960480    -0.3589090
  P        3.1750170     0.3881900     0.1554910
  O       -2.7927880     1.3311510    -0.1150520
  O       -0.9169740    -0.0836090     0.6422800
  O       -3.1856250    -0.4605710     1.7148300
  O       -2.8507450    -1.1694890    -0.7786080
  O        1.4898640     0.0841660     0.5723090
  O        0.2127210     0.0849480    -1.7048820
  O        0.4027150    -2.1095660    -0.2874290
  O        3.5327910    -0.6840640    -0.8835370
  O        3.1643710     1.8286230    -0.3742880
  O        3.8338960     0.2099350     1.5311200
  C       -4.1586959     1.5925598    -0.5309696
  H       -4.4292020     0.9309370    -1.3496150
  H       -4.8386320     1.4471050     0.3059850
  H       -4.1840730     2.6280350    -0.8559160
units angstrom
no_reorient  #important for SAPT in psi4, default
symmetry c1  #important for SAPT in psi4, default
}

set PROPERTIES_ORIGIN ["COM"]
properties('MP2/aug-cc-pvtz', properties = ['dipole'])
--------------------------------------------------------------------------

    Molecular point group: c1
  Charge       = -4
  Multiplicity = 1
  Basis Set: AUG-CC-PVTZ
    Blend: AUG-CC-PVTZ
  Basis Set: (AUG-CC-PVTZ AUX)
    Blend: AUG-CC-PVTZ-JKFIT

    Orbital Energies [Eh]
    ---------------------

    Doubly Occupied:

       1A    -79.579840     2A    -79.516894     3A    -79.475268
       4A    -20.118002     5A    -20.041310     6A    -20.014440
       7A    -20.004407     8A    -19.984022     9A    -19.936656
      10A    -19.934927    11A    -19.921821    12A    -19.916887
      13A    -19.913047    14A    -10.882753    15A     -7.094104
      16A     -7.029956    17A     -6.989024    18A     -4.993232
      19A     -4.991955    20A     -4.991049    21A     -4.929357
      22A     -4.927778    23A     -4.926636    24A     -4.888419
      25A     -4.886313    26A     -4.886184    27A     -0.925451
      28A     -0.851812    29A     -0.806212    30A     -0.777468
      31A     -0.760648    32A     -0.736227    33A     -0.705684
      34A     -0.686674    35A     -0.661824    36A     -0.657109
      37A     -0.531084    38A     -0.306261    39A     -0.251309
      40A     -0.221744    41A     -0.194468    42A     -0.162606
      43A     -0.140167    44A     -0.108827    45A     -0.094290
      46A     -0.079075    47A     -0.063015    48A     -0.051391
      49A     -0.034888    50A     -0.025754    51A     -0.012176
      52A     -0.009453    53A      0.009964    54A      0.012078
      55A      0.023226    56A      0.034971    57A      0.048774
      58A      0.055030    59A      0.062661    60A      0.081531
      61A      0.097692    62A      0.103528    63A      0.107272
      64A      0.108388    65A      0.125137    66A      0.135554
      67A      0.148166    68A      0.154550    69A      0.174686

  @DF-RHF Final Energy: -1810.67399646729359

   => Energetics <=

    Nuclear Repulsion Energy =           1425.1302303722868601
    One-Electron Energy =               -5425.3150728871059982
    Two-Electron Energy =                2189.5108460475253196
    Total Energy =                      -1810.6739964672938186
  Basis Set: (AUG-CC-PVTZ AUX)
    Blend: AUG-CC-PVTZ-RI
    Molecular point group: c1

    Geometry (in Angstrom), charge = -4, multiplicity = 1:

       Center              X                  Y                   Z               Mass
    ------------   -----------------  -----------------  -----------------  -----------------
         P           -2.572842637309    -0.224935411928     0.363839401377    30.973761998420
         P            0.303918362691    -0.576041411928    -0.366291598623    30.973761998420
         P            3.122418362691     0.408196588072     0.148108401377    30.973761998420
         O           -2.845386637309     1.351157588072    -0.122434598623    15.994914619570
         O           -0.969572637309    -0.063602411928     0.634897401377    15.994914619570
         O           -3.238223637309    -0.440564411928     1.707447401377    15.994914619570
         O           -2.903343637309    -1.149482411928    -0.785990598623    15.994914619570
         O            1.437265362691     0.104172588072     0.564926401377    15.994914619570
         O            0.160122362691     0.104954588072    -1.712264598623    15.994914619570
         O            0.350116362691    -2.089559411928    -0.294811598623    15.994914619570
         O            3.480192362691    -0.664057411928    -0.890919598623    15.994914619570
         O            3.111772362691     1.848629588072    -0.381670598623    15.994914619570
         O            3.781297362691     0.229941588072     1.523737401377    15.994914619570
         C           -4.211294537309     1.612566388072    -0.538352198623    12.000000000000
         H           -4.481800637309     0.950943588072    -1.356997598623     1.007825032230
         H           -4.891230637309     1.467111588072     0.298602401377     1.007825032230
         H           -4.236671637309     2.648041588072    -0.863298598623     1.007825032230

  Basis Set: AUG-CC-PVTZ
    Blend: AUG-CC-PVTZ
  Basis Set: (AUG-CC-PVTZ AUX)
    Blend: AUG-CC-PVTZ-JKFIT
	 Reference Energy          =   -1810.6739964672935912 [Eh]
	 Singles Energy            =      -0.0000000000000000 [Eh]
	 Same-Spin Energy          =      -0.9124288523628681 [Eh]
	 Opposite-Spin Energy      =      -2.5255751561466591 [Eh]
	 Correlation Energy        =      -3.4380040085095271 [Eh]
	 Total Energy              =   -1814.1120004758031428 [Eh]

	 ================> DF-SCS-MP2 Energies <==================
	-----------------------------------------------------------
	 SCS Same-Spin Scale       =       0.3333333333333333 [-]
	 SCS Opposite-Spin Scale   =       1.2000000000000000 [-]
	 SCS Same-Spin Energy      =      -0.3041429507876227 [Eh]
	 SCS Opposite-Spin Energy  =      -3.0306901873759906 [Eh]
	 SCS Correlation Energy    =      -3.3348331381636132 [Eh]
	 SCS Total Energy          =   -1814.0088296054570947 [Eh]
	-----------------------------------------------------------

  Dipole Moment: [D]
     X:   -15.0626      Y:     2.7540      Z:    -0.0214     Total:    15.3123

*** Psi4 exiting successfully. Buy a developer a beer!
