                               Psi4 1.3.2 release

  ==> Input File <==

--------------------------------------------------------------------------
#psi4
#
memory 32 gb

molecule  {
-4 1
  P        2.5828670     0.0826120    -0.3559070
  P       -0.1833470    -1.1435920     0.2927960
  P       -2.7088530     0.4754690    -0.2006980
  O        1.9534540     1.6068400    -0.1842610
  O        1.2509400    -0.8782220    -0.5450080
  O        3.2679280     0.0927970    -1.6978490
  O        3.3289310    -0.2934220     0.9022790
  O       -0.9838945     0.1867850    -0.1672071
  O        0.0932830    -1.0798150     1.7822090
  O       -0.7150640    -2.4305380    -0.3003910
  O       -3.2327710    -0.2685190     1.0414150
  O       -2.7128520     2.0086770    -0.0959300
  O       -3.2611525    -0.0600449    -1.5339275
  C        1.4216660     1.9681570     1.1052990
  H        1.0169430     1.1016800     1.6278780
  H        2.2027140     2.4392170     1.7103290
  H        0.6160650     2.6819120     0.9264900
units angstrom
no_reorient  #important for SAPT in psi4, default
symmetry c1  #important for SAPT in psi4, default
}

set PROPERTIES_ORIGIN ["COM"]
properties('MP2/aug-cc-pvtz', properties = ['dipole'])
--------------------------------------------------------------------------

    Molecular point group: c1
  Charge       = -4
  Multiplicity = 1
  Basis Set: AUG-CC-PVTZ
    Blend: AUG-CC-PVTZ
  Basis Set: (AUG-CC-PVTZ AUX)
    Blend: AUG-CC-PVTZ-JKFIT

    Orbital Energies [Eh]
    ---------------------

    Doubly Occupied:

       1A    -79.573343     2A    -79.528437     3A    -79.479793
       4A    -20.085878     5A    -20.040037     6A    -20.003345
       7A    -20.003305     8A    -19.995962     9A    -19.948978
      10A    -19.948265    11A    -19.921976    12A    -19.921341
      13A    -19.914268    14A    -10.811270    15A     -7.087162
      16A     -7.041375    17A     -6.993286    18A     -4.986110
      19A     -4.985174    20A     -4.984343    21A     -4.940618
      22A     -4.939274    23A     -4.938333    24A     -4.892713
      25A     -4.890554    26A     -4.890425    27A     -0.902399
      28A     -0.846681    29A     -0.807643    30A     -0.779099
      31A     -0.758222    32A     -0.742617    33A     -0.714514
      34A     -0.700732    35A     -0.662388    36A     -0.657866
      37A     -0.466532    38A     -0.294846    39A     -0.235257
      40A     -0.185353    41A     -0.164063    42A     -0.148912
      43A     -0.126333    44A     -0.099342    45A     -0.083808
      46A     -0.065688    47A     -0.052426    48A     -0.044751
      49A     -0.032820    50A     -0.016574    51A     -0.007429
      52A      0.000228    53A      0.008994    54A      0.014436
      55A      0.021164    56A      0.036617    57A      0.047054
      58A      0.053050    59A      0.066243    60A      0.069991
      61A      0.088906    62A      0.100012    63A      0.103966
      64A      0.104757    65A      0.112737    66A      0.124411
      67A      0.145520    68A      0.150512    69A      0.173297

  @DF-RHF Final Energy: -1810.68861831702066

   => Energetics <=

    Nuclear Repulsion Energy =           1462.3658694158302751
    One-Electron Energy =               -5500.2690486240826431
    Two-Electron Energy =                2227.2145608912314856
    Total Energy =                      -1810.6886183170208824
  Basis Set: (AUG-CC-PVTZ AUX)
    Blend: AUG-CC-PVTZ-RI
    Molecular point group: c1

    Geometry (in Angstrom), charge = -4, multiplicity = 1:

       Center              X                  Y                   Z               Mass
    ------------   -----------------  -----------------  -----------------  -----------------
         P            2.600894672948     0.105336703201    -0.343274503509    30.973761998420
         P           -0.165319327052    -1.120867296799     0.305428496491    30.973761998420
         P           -2.690825327052     0.498193703201    -0.188065503509    30.973761998420
         O            1.971481672948     1.629564703201    -0.171628503509    15.994914619570
         O            1.268967672948    -0.855497296799    -0.532375503509    15.994914619570
         O            3.285955672948     0.115521703201    -1.685216503509    15.994914619570
         O            3.346958672948    -0.270697296799     0.914911496491    15.994914619570
         O           -0.965866827052     0.209509703201    -0.154574603509    15.994914619570
         O            0.111310672948    -1.057090296799     1.794841496491    15.994914619570
         O           -0.697036327052    -2.407813296799    -0.287758503509    15.994914619570
         O           -3.214743327052    -0.245794296799     1.054047496491    15.994914619570
         O           -2.694824327052     2.031401703201    -0.083297503509    15.994914619570
         O           -3.243124827052    -0.037320196799    -1.521295003509    15.994914619570
         C            1.439693672948     1.990881703201     1.117931496491    12.000000000000
         H            1.034970672948     1.124404703201     1.640510496491     1.007825032230
         H            2.220741672948     2.461941703201     1.722961496491     1.007825032230
         H            0.634092672948     2.704636703201     0.939122496491     1.007825032230

  Basis Set: AUG-CC-PVTZ
    Blend: AUG-CC-PVTZ
  Basis Set: (AUG-CC-PVTZ AUX)
    Blend: AUG-CC-PVTZ-JKFIT
	 Reference Energy          =   -1810.6886183170206550 [Eh]
	 Singles Energy            =      -0.0000000000000000 [Eh]
	 Same-Spin Energy          =      -0.9130012084074404 [Eh]
	 Opposite-Spin Energy      =      -2.5257533501347238 [Eh]
	 Correlation Energy        =      -3.4387545585421639 [Eh]
	 Total Energy              =   -1814.1273728755627417 [Eh]

	 ================> DF-SCS-MP2 Energies <==================
	-----------------------------------------------------------
	 SCS Same-Spin Scale       =       0.3333333333333333 [-]
	 SCS Opposite-Spin Scale   =       1.2000000000000000 [-]
	 SCS Same-Spin Energy      =      -0.3043337361358134 [Eh]
	 SCS Opposite-Spin Energy  =      -3.0309040201616684 [Eh]
	 SCS Correlation Energy    =      -3.3352377562974818 [Eh]
	 SCS Total Energy          =   -1814.0238560733180293 [Eh]
	-----------------------------------------------------------

  Dipole Moment: [D]
     X:     9.3900      Y:     2.2351      Z:     1.4945     Total:     9.7673

*** Psi4 exiting successfully. Buy a developer a beer!
