                               Psi4 1.3.2 release

  ==> Input File <==

--------------------------------------------------------------------------
#psi4
#
memory 32 gb

molecule  {
-4 1
  P        2.5828670     0.0826120    -0.3559070
  P       -0.1833470    -1.1435920     0.2927960
  P       -2.7088530     0.4754690    -0.2006980
  O        1.9534540     1.6068400    -0.1842610
  O        1.2509400    -0.8782220    -0.5450080
  O        3.2902809     0.0852437    -1.6862375
  O        3.3507450    -0.2971414     0.8879562
  O       -0.9881700     0.1612780    -0.2225170
  O        0.0932830    -1.0798150     1.7822090
  O       -0.7150640    -2.4305380    -0.3003910
  O       -3.2327710    -0.2685190     1.0414150
  O       -2.7128520     2.0086770    -0.0959300
  O       -3.2113930    -0.0752120    -1.5473660
  C        1.4216660     1.9681570     1.1052990
  H        1.0169430     1.1016800     1.6278780
  H        2.2027140     2.4392170     1.7103290
  H        0.6160650     2.6819120     0.9264900
units angstrom
no_reorient  #important for SAPT in psi4, default
symmetry c1  #important for SAPT in psi4, default
}

set PROPERTIES_ORIGIN ["COM"]
properties('MP2/aug-cc-pvtz', properties = ['dipole'])
--------------------------------------------------------------------------

    Molecular point group: c1
  Charge       = -4
  Multiplicity = 1
  Basis Set: AUG-CC-PVTZ
    Blend: AUG-CC-PVTZ
  Basis Set: (AUG-CC-PVTZ AUX)
    Blend: AUG-CC-PVTZ-JKFIT

    Orbital Energies [Eh]
    ---------------------

    Doubly Occupied:

       1A    -79.572462     2A    -79.527849     3A    -79.480377
       4A    -20.087136     5A    -20.040058     6A    -20.001236
       7A    -20.001030     8A    -19.993725     9A    -19.951031
      10A    -19.945992    11A    -19.924410    12A    -19.919674
      13A    -19.917862    14A    -10.812850    15A     -7.086285
      16A     -7.040788    17A     -6.993884    18A     -4.985226
      19A     -4.984221    20A     -4.983521    21A     -4.940073
      22A     -4.938669    23A     -4.937742    24A     -4.893348
      25A     -4.891157    26A     -4.891007    27A     -0.902600
      28A     -0.846789    29A     -0.807014    30A     -0.778839
      31A     -0.755266    32A     -0.742878    33A     -0.714199
      34A     -0.700428    35A     -0.663939    36A     -0.659536
      37A     -0.467932    38A     -0.294850    39A     -0.235449
      40A     -0.184847    41A     -0.164803    42A     -0.149666
      43A     -0.126019    44A     -0.099535    45A     -0.082992
      46A     -0.065748    47A     -0.051946    48A     -0.044753
      49A     -0.032439    50A     -0.016656    51A     -0.007585
      52A     -0.000400    53A      0.009098    54A      0.014834
      55A      0.020933    56A      0.037283    57A      0.046717
      58A      0.054531    59A      0.067402    60A      0.071529
      61A      0.090313    62A      0.099949    63A      0.101728
      64A      0.103354    65A      0.113193    66A      0.124527
      67A      0.143994    68A      0.149962    69A      0.171582

  @DF-RHF Final Energy: -1810.68975730171587

   => Energetics <=

    Nuclear Repulsion Energy =           1462.3324396261057245
    One-Electron Energy =               -5500.2088103662199501
    Two-Electron Energy =                2227.1866134383981262
    Total Energy =                      -1810.6897573017158720
  Basis Set: (AUG-CC-PVTZ AUX)
    Blend: AUG-CC-PVTZ-RI
    Molecular point group: c1

    Geometry (in Angstrom), charge = -4, multiplicity = 1:

       Center              X                  Y                   Z               Mass
    ------------   -----------------  -----------------  -----------------  -----------------
         P            2.595541962595     0.108438246790    -0.339007919727    30.973761998420
         P           -0.170672037405    -1.117765753210     0.309695080273    30.973761998420
         P           -2.696178037405     0.501295246790    -0.183798919727    30.973761998420
         O            1.966128962595     1.632666246790    -0.167361919727    15.994914619570
         O            1.263614962595    -0.852395753210    -0.528108919727    15.994914619570
         O            3.302955862595     0.111069946790    -1.669338419727    15.994914619570
         O            3.363419962595    -0.271315153210     0.904855280273    15.994914619570
         O           -0.975495037405     0.187104246790    -0.205617919727    15.994914619570
         O            0.105957962595    -1.053988753210     1.799108080273    15.994914619570
         O           -0.702389037405    -2.404711753210    -0.283491919727    15.994914619570
         O           -3.220096037405    -0.242692753210     1.058314080273    15.994914619570
         O           -2.700177037405     2.034503246790    -0.079030919727    15.994914619570
         O           -3.198718037405    -0.049385753210    -1.530466919727    15.994914619570
         C            1.434340962595     1.993983246790     1.122198080273    12.000000000000
         H            1.029617962595     1.127506246790     1.644777080273     1.007825032230
         H            2.215388962595     2.465043246790     1.727228080273     1.007825032230
         H            0.628739962595     2.707738246790     0.943389080273     1.007825032230

  Basis Set: AUG-CC-PVTZ
    Blend: AUG-CC-PVTZ
  Basis Set: (AUG-CC-PVTZ AUX)
    Blend: AUG-CC-PVTZ-JKFIT
	 Reference Energy          =   -1810.6897573017158720 [Eh]
	 Singles Energy            =      -0.0000000000000000 [Eh]
	 Same-Spin Energy          =      -0.9128855486542898 [Eh]
	 Opposite-Spin Energy      =      -2.5255442675208282 [Eh]
	 Correlation Energy        =      -3.4384298161751179 [Eh]
	 Total Energy              =   -1814.1281871178910023 [Eh]

	 ================> DF-SCS-MP2 Energies <==================
	-----------------------------------------------------------
	 SCS Same-Spin Scale       =       0.3333333333333333 [-]
	 SCS Opposite-Spin Scale   =       1.2000000000000000 [-]
	 SCS Same-Spin Energy      =      -0.3042951828847633 [Eh]
	 SCS Opposite-Spin Energy  =      -3.0306531210249936 [Eh]
	 SCS Correlation Energy    =      -3.3349483039097567 [Eh]
	 SCS Total Energy          =   -1814.0247056056257406 [Eh]
	-----------------------------------------------------------

  Dipole Moment: [D]
     X:     9.1143      Y:     2.3677      Z:     1.6228     Total:     9.5556

*** Psi4 exiting successfully. Buy a developer a beer!
