                               Psi4 1.4a3.dev225

  ==> Input File <==

--------------------------------------------------------------------------
#psi4
#
memory 32 gb

molecule  {
-4 1
  P       -2.5202440    -0.2449420     0.3712220
  P        0.3565170    -0.5960480    -0.3589090
  P        3.1750170     0.3881900     0.1554910
  O       -2.7927880     1.3311510    -0.1150520
  O       -0.9169740    -0.0836090     0.6422800
  O       -3.1636618    -0.4534534     1.6704796
  O       -2.8507450    -1.1694890    -0.7786080
  O        1.4898640     0.0841660     0.5723090
  O        0.2127210     0.0849480    -1.7048820
  O        0.4027150    -2.1095660    -0.2874290
  O        3.5327910    -0.6840640    -0.8835370
  O        3.1643710     1.8286230    -0.3742880
  O        3.8338960     0.2099350     1.5311200
  C       -4.1398760     1.5889580    -0.5252390
  H       -4.4292020     0.9309370    -1.3496150
  H       -4.8386320     1.4471050     0.3059850
  H       -4.1840730     2.6280350    -0.8559160
units angstrom
no_reorient  #important for SAPT in psi4, default
symmetry c1  #important for SAPT in psi4, default
}

set PROPERTIES_ORIGIN ["COM"]
properties('MP2/aug-cc-pvtz', properties = ['dipole'])
--------------------------------------------------------------------------

    Molecular point group: c1
  Charge       = -4
  Multiplicity = 1
  Basis Set: AUG-CC-PVTZ
    Blend: AUG-CC-PVTZ
  Basis Set: (AUG-CC-PVTZ AUX)
    Blend: AUG-CC-PVTZ-JKFIT

    Orbital Energies [Eh]
    ---------------------

    Doubly Occupied:

       1A    -79.570464     2A    -79.515316     3A    -79.474647
       4A    -20.115432     5A    -20.037924     6A    -20.012484
       7A    -20.000133     8A    -19.982967     9A    -19.935444
      10A    -19.933502    11A    -19.921353    12A    -19.916321
      13A    -19.912448    14A    -10.881946    15A     -7.086875
      16A     -7.028375    17A     -6.988400    18A     -4.985785
      19A     -4.984707    20A     -4.983927    21A     -4.927760
      22A     -4.926212    23A     -4.925072    24A     -4.887790
      25A     -4.885694    26A     -4.885564    27A     -0.930287
      28A     -0.853753    29A     -0.814810    30A     -0.779351
      31A     -0.762244    32A     -0.735244    33A     -0.704692
      34A     -0.685371    35A     -0.661311    36A     -0.656520
      37A     -0.526423    38A     -0.304984    39A     -0.250872
      40A     -0.219021    41A     -0.194548    42A     -0.164512
      43A     -0.139188    44A     -0.108749    45A     -0.093982
      46A     -0.080088    47A     -0.062553    48A     -0.050639
      49A     -0.034394    50A     -0.026333    51A     -0.011990
      52A     -0.008958    53A      0.006701    54A      0.010362
      55A      0.023754    56A      0.032810    57A      0.050224
      58A      0.056017    59A      0.062755    60A      0.082686
      61A      0.098707    62A      0.104108    63A      0.108003
      64A      0.109298    65A      0.126390    66A      0.136649
      67A      0.148805    68A      0.155282    69A      0.175233

  @DF-RHF Final Energy: -1810.67576085711175

   => Energetics <=

    Nuclear Repulsion Energy =           1428.2507431394722062
    One-Electron Energy =               -5431.6938489961021332
    Two-Electron Energy =                2192.7673449995177180
    Total Energy =                      -1810.6757608571119817
  Basis Set: (AUG-CC-PVTZ AUX)
    Blend: AUG-CC-PVTZ-RI
    Molecular point group: c1

    Geometry (in Angstrom), charge = -4, multiplicity = 1:

       Center              X                  Y                   Z               Mass
    ------------   -----------------  -----------------  -----------------  -----------------
         P           -2.574996991302    -0.225199037947     0.366230697498    30.973761998420
         P            0.301764008698    -0.576305037947    -0.363900302502    30.973761998420
         P            3.120264008698     0.407932962053     0.150499697498    30.973761998420
         O           -2.847540991302     1.350893962053    -0.120043302502    15.994914619570
         O           -0.971726991302    -0.063866037947     0.637288697498    15.994914619570
         O           -3.218414791302    -0.433710437947     1.665488297498    15.994914619570
         O           -2.905497991302    -1.149746037947    -0.783599302502    15.994914619570
         O            1.435111008698     0.103908962053     0.567317697498    15.994914619570
         O            0.157968008698     0.104690962053    -1.709873302502    15.994914619570
         O            0.347962008698    -2.089823037947    -0.292420302502    15.994914619570
         O            3.478038008698    -0.664321037947    -0.888528302502    15.994914619570
         O            3.109618008698     1.848365962053    -0.379279302502    15.994914619570
         O            3.779143008698     0.229677962053     1.526128697498    15.994914619570
         C           -4.194628991302     1.608700962053    -0.530230302502    12.000000000000
         H           -4.483954991302     0.950679962053    -1.354606302502     1.007825032230
         H           -4.893384991302     1.466847962053     0.300993697498     1.007825032230
         H           -4.238825991302     2.647777962053    -0.860907302502     1.007825032230

  Basis Set: AUG-CC-PVTZ
    Blend: AUG-CC-PVTZ
  Basis Set: (AUG-CC-PVTZ AUX)
    Blend: AUG-CC-PVTZ-JKFIT
	 Reference Energy          =   -1810.6757608571117544 [Eh]
	 Singles Energy            =      -0.0000000000000000 [Eh]
	 Same-Spin Energy          =      -0.9114458381683839 [Eh]
	 Opposite-Spin Energy      =      -2.5228360116012638 [Eh]
	 Correlation Energy        =      -3.4342818497696479 [Eh]
	 Total Energy              =   -1814.1100427068813588 [Eh]

	 ================> DF-SCS-MP2 Energies <==================
	-----------------------------------------------------------
	 SCS Same-Spin Scale       =       0.3333333333333333 [-]
	 SCS Opposite-Spin Scale   =       1.2000000000000000 [-]
	 SCS Same-Spin Energy      =      -0.3038152793894613 [Eh]
	 SCS Opposite-Spin Energy  =      -3.0274032139215166 [Eh]
	 SCS Correlation Energy    =      -3.3312184933109776 [Eh]
	 SCS Total Energy          =   -1814.0069793504226254 [Eh]
	-----------------------------------------------------------

  Dipole Moment: [D]
     X:   -15.1753      Y:     2.6676      Z:     0.3076     Total:    15.4110

*** Psi4 exiting successfully. Buy a developer a beer!
