                               Psi4 1.3.2 release

  ==> Input File <==

--------------------------------------------------------------------------
#psi4
#
memory 32 gb

molecule  {
-4 1
  P        2.5828670     0.0826120    -0.3559070
  P       -0.1833470    -1.1435920     0.2927960
  P       -2.7088530     0.4754690    -0.2006980
  O        1.9534540     1.6068400    -0.1842610
  O        1.2509400    -0.8782220    -0.5450080
  O        3.2679280     0.0927970    -1.6978490
  O        3.3289310    -0.2934220     0.9022790
  O       -0.9881700     0.1612780    -0.2225170
  O        0.1167522    -1.0046056     1.7725142
  O       -0.7154327    -2.3952455    -0.3713367
  O       -3.2327710    -0.2685190     1.0414150
  O       -2.7128520     2.0086770    -0.0959300
  O       -3.2113930    -0.0752120    -1.5473660
  C        1.4216660     1.9681570     1.1052990
  H        1.0169430     1.1016800     1.6278780
  H        2.2027140     2.4392170     1.7103290
  H        0.6160650     2.6819120     0.9264900
units angstrom
no_reorient  #important for SAPT in psi4, default
symmetry c1  #important for SAPT in psi4, default
}

set PROPERTIES_ORIGIN ["COM"]
properties('MP2/aug-cc-pvtz', properties = ['dipole'])
--------------------------------------------------------------------------

    Molecular point group: c1
  Charge       = -4
  Multiplicity = 1
  Basis Set: AUG-CC-PVTZ
    Blend: AUG-CC-PVTZ
  Basis Set: (AUG-CC-PVTZ AUX)
    Blend: AUG-CC-PVTZ-JKFIT

    Orbital Energies [Eh]
    ---------------------

    Doubly Occupied:

       1A    -79.570085     2A    -79.527838     3A    -79.478161
       4A    -20.083057     5A    -20.034198     6A    -20.001006
       7A    -20.000610     8A    -19.987286     9A    -19.955243
      10A    -19.950157    11A    -19.922246    12A    -19.917494
      13A    -19.916943    14A    -10.808381    15A     -7.083918
      16A     -7.040777    17A     -6.991628    18A     -4.982866
      19A     -4.981911    20A     -4.981125    21A     -4.940096
      22A     -4.938844    23A     -4.937580    24A     -4.891062
      25A     -4.888930    26A     -4.888784    27A     -0.899376
      28A     -0.843902    29A     -0.804673    30A     -0.775338
      31A     -0.755771    32A     -0.741704    33A     -0.711115
      34A     -0.706774    35A     -0.662021    36A     -0.657990
      37A     -0.463920    38A     -0.291069    39A     -0.231593
      40A     -0.181471    41A     -0.161545    42A     -0.146130
      43A     -0.124916    44A     -0.098604    45A     -0.081173
      46A     -0.063567    47A     -0.051192    48A     -0.042124
      49A     -0.031258    50A     -0.014159    51A     -0.004318
      52A      0.001014    53A      0.010711    54A      0.015958
      55A      0.023403    56A      0.038921    57A      0.047318
      58A      0.055283    59A      0.067274    60A      0.071543
      61A      0.091757    62A      0.099930    63A      0.104001
      64A      0.105254    65A      0.111242    66A      0.120723
      67A      0.145791    68A      0.152120    69A      0.173219

  @DF-RHF Final Energy: -1810.68627529750120

   => Energetics <=

    Nuclear Repulsion Energy =           1464.6226533588544498
    One-Electron Energy =               -5504.9969272640892086
    Two-Electron Energy =                2229.6879986077337890
    Total Energy =                      -1810.6862752975011972
  Basis Set: (AUG-CC-PVTZ AUX)
    Blend: AUG-CC-PVTZ-RI
    Molecular point group: c1

    Geometry (in Angstrom), charge = -4, multiplicity = 1:

       Center              X                  Y                   Z               Mass
    ------------   -----------------  -----------------  -----------------  -----------------
         P            2.596799756297     0.101167553889    -0.334355066987    30.973761998420
         P           -0.169414243703    -1.125036446111     0.314347933013    30.973761998420
         P           -2.694920243703     0.494024553889    -0.179146066987    30.973761998420
         O            1.967386756297     1.625395553889    -0.162709066987    15.994914619570
         O            1.264872756297    -0.859666446111    -0.523456066987    15.994914619570
         O            3.281860756297     0.111352553889    -1.676297066987    15.994914619570
         O            3.342863756297    -0.274866446111     0.923830933013    15.994914619570
         O           -0.974237243703     0.179833553889    -0.200965066987    15.994914619570
         O            0.130684956297    -0.986050046111     1.794066133013    15.994914619570
         O           -0.701499943703    -2.376689946111    -0.349784766987    15.994914619570
         O           -3.218838243703    -0.249963446111     1.062966933013    15.994914619570
         O           -2.698919243703     2.027232553889    -0.074378066987    15.994914619570
         O           -3.197460243703    -0.056656446111    -1.525814066987    15.994914619570
         C            1.435598756297     1.986712553889     1.126850933013    12.000000000000
         H            1.030875756297     1.120235553889     1.649429933013     1.007825032230
         H            2.216646756297     2.457772553889     1.731880933013     1.007825032230
         H            0.629997756297     2.700467553889     0.948041933013     1.007825032230

  Basis Set: AUG-CC-PVTZ
    Blend: AUG-CC-PVTZ
  Basis Set: (AUG-CC-PVTZ AUX)
    Blend: AUG-CC-PVTZ-JKFIT
	 Reference Energy          =   -1810.6862752975011972 [Eh]
	 Singles Energy            =      -0.0000000000000000 [Eh]
	 Same-Spin Energy          =      -0.9134044934573479 [Eh]
	 Opposite-Spin Energy      =      -2.5264160200690848 [Eh]
	 Correlation Energy        =      -3.4398205135264326 [Eh]
	 Total Energy              =   -1814.1260958110276533 [Eh]

	 ================> DF-SCS-MP2 Energies <==================
	-----------------------------------------------------------
	 SCS Same-Spin Scale       =       0.3333333333333333 [-]
	 SCS Opposite-Spin Scale   =       1.2000000000000000 [-]
	 SCS Same-Spin Energy      =      -0.3044681644857826 [Eh]
	 SCS Opposite-Spin Energy  =      -3.0316992240829017 [Eh]
	 SCS Correlation Energy    =      -3.3361673885686844 [Eh]
	 SCS Total Energy          =   -1814.0224426860697804 [Eh]
	-----------------------------------------------------------

  Dipole Moment: [D]
     X:     9.1996      Y:     2.0051      Z:     1.7941     Total:     9.5850

*** Psi4 exiting successfully. Buy a developer a beer!
