                               Psi4 1.3.2 release

  ==> Input File <==

--------------------------------------------------------------------------
#psi4
#
memory 32 gb

molecule  {
-4 1
  P        2.5828670     0.0826120    -0.3559070
  P       -0.1833470    -1.1435920     0.2927960
  P       -2.7088530     0.4754690    -0.2006980
  O        1.9534540     1.6068400    -0.1842610
  O        1.2660326    -0.8865736    -0.6000733
  O        3.2301922     0.0611639    -1.7163226
  O        3.3289310    -0.2934220     0.9022790
  O       -0.9881700     0.1612780    -0.2225170
  O        0.0932830    -1.0798150     1.7822090
  O       -0.7150640    -2.4305380    -0.3003910
  O       -3.2327710    -0.2685190     1.0414150
  O       -2.7128520     2.0086770    -0.0959300
  O       -3.2113930    -0.0752120    -1.5473660
  C        1.4216660     1.9681570     1.1052990
  H        1.0169430     1.1016800     1.6278780
  H        2.2027140     2.4392170     1.7103290
  H        0.6160650     2.6819120     0.9264900
units angstrom
no_reorient  #important for SAPT in psi4, default
symmetry c1  #important for SAPT in psi4, default
}

set PROPERTIES_ORIGIN ["COM"]
properties('MP2/aug-cc-pvtz', properties = ['dipole'])
--------------------------------------------------------------------------

    Molecular point group: c1
  Charge       = -4
  Multiplicity = 1
  Basis Set: AUG-CC-PVTZ
    Blend: AUG-CC-PVTZ
  Basis Set: (AUG-CC-PVTZ AUX)
    Blend: AUG-CC-PVTZ-JKFIT

    Orbital Energies [Eh]
    ---------------------

    Doubly Occupied:

       1A    -79.569036     2A    -79.529445     3A    -79.480547
       4A    -20.086672     5A    -20.035226     6A    -20.004920
       7A    -19.997095     8A    -19.994362     9A    -19.954719
      10A    -19.945907    11A    -19.924468    12A    -19.919571
      13A    -19.918085    14A    -10.812676    15A     -7.083164
      16A     -7.042083    17A     -6.994054    18A     -4.982033
      19A     -4.981224    20A     -4.980296    21A     -4.941235
      22A     -4.939957    23A     -4.939050    24A     -4.893525
      25A     -4.891320    26A     -4.891170    27A     -0.900780
      28A     -0.840258    29A     -0.806858    30A     -0.774302
      31A     -0.756652    32A     -0.742131    33A     -0.714726
      34A     -0.701211    35A     -0.663987    36A     -0.659598
      37A     -0.467544    38A     -0.284573    39A     -0.235163
      40A     -0.182103    41A     -0.163899    42A     -0.148655
      43A     -0.125494    44A     -0.099185    45A     -0.078679
      46A     -0.063840    47A     -0.050968    48A     -0.043979
      49A     -0.033343    50A     -0.014842    51A     -0.004869
      52A      0.000201    53A      0.010223    54A      0.015772
      55A      0.021805    56A      0.039675    57A      0.047061
      58A      0.053119    59A      0.066833    60A      0.072530
      61A      0.091302    62A      0.099418    63A      0.101776
      64A      0.103187    65A      0.112272    66A      0.123526
      67A      0.143866    68A      0.149857    69A      0.171531

  @DF-RHF Final Energy: -1810.68409506234775

   => Energetics <=

    Nuclear Repulsion Energy =           1461.7192874199035941
    One-Electron Energy =               -5499.0757213605920697
    Two-Electron Energy =                2226.6723388783407245
    Total Energy =                      -1810.6840950623477511
  Basis Set: (AUG-CC-PVTZ AUX)
    Blend: AUG-CC-PVTZ-RI
    Molecular point group: c1

    Geometry (in Angstrom), charge = -4, multiplicity = 1:

       Center              X                  Y                   Z               Mass
    ------------   -----------------  -----------------  -----------------  -----------------
         P            2.599530936649     0.110152529855    -0.334779076204    30.973761998420
         P           -0.166683063351    -1.116051470145     0.313923923796    30.973761998420
         P           -2.692189063351     0.503009529855    -0.179570076204    30.973761998420
         O            1.970117936649     1.634380529855    -0.163133076204    15.994914619570
         O            1.282696536649    -0.859033070145    -0.578945376204    15.994914619570
         O            3.246856136649     0.088704429855    -1.695194676204    15.994914619570
         O            3.345594936649    -0.265881470145     0.923406923796    15.994914619570
         O           -0.971506063351     0.188818529855    -0.201389076204    15.994914619570
         O            0.109946936649    -1.052274470145     1.803336923796    15.994914619570
         O           -0.698400063351    -2.402997470145    -0.279263076204    15.994914619570
         O           -3.216107063351    -0.240978470145     1.062542923796    15.994914619570
         O           -2.696188063351     2.036217529855    -0.074802076204    15.994914619570
         O           -3.194729063351    -0.047671470145    -1.526238076204    15.994914619570
         C            1.438329936649     1.995697529855     1.126426923796    12.000000000000
         H            1.033606936649     1.129220529855     1.649005923796     1.007825032230
         H            2.219377936649     2.466757529855     1.731456923796     1.007825032230
         H            0.632728936649     2.709452529855     0.947617923796     1.007825032230

  Basis Set: AUG-CC-PVTZ
    Blend: AUG-CC-PVTZ
  Basis Set: (AUG-CC-PVTZ AUX)
    Blend: AUG-CC-PVTZ-JKFIT
	 Reference Energy          =   -1810.6840950623477511 [Eh]
	 Singles Energy            =      -0.0000000000000000 [Eh]
	 Same-Spin Energy          =      -0.9136486057101106 [Eh]
	 Opposite-Spin Energy      =      -2.5274492301892928 [Eh]
	 Correlation Energy        =      -3.4410978358994035 [Eh]
	 Total Energy              =   -1814.1251928982471782 [Eh]

	 ================> DF-SCS-MP2 Energies <==================
	-----------------------------------------------------------
	 SCS Same-Spin Scale       =       0.3333333333333333 [-]
	 SCS Opposite-Spin Scale   =       1.2000000000000000 [-]
	 SCS Same-Spin Energy      =      -0.3045495352367035 [Eh]
	 SCS Opposite-Spin Energy  =      -3.0329390762271511 [Eh]
	 SCS Correlation Energy    =      -3.3374886114638547 [Eh]
	 SCS Total Energy          =   -1814.0215836738116195 [Eh]
	-----------------------------------------------------------

  Dipole Moment: [D]
     X:     9.1313      Y:     2.3713      Z:     1.8151     Total:     9.6072

*** Psi4 exiting successfully. Buy a developer a beer!
