                               Psi4 1.4a3.dev225

  ==> Input File <==

--------------------------------------------------------------------------
#psi4
#
memory 32 gb

molecule  {
-4 1
  P       -2.5202440    -0.2449420     0.3712220
  P        0.3565170    -0.5960480    -0.3589090
  P        3.1750170     0.3881900     0.1554910
  O       -2.7927880     1.3311510    -0.1150520
  O       -0.9169740    -0.0836090     0.6422800
  O       -3.1856250    -0.4605710     1.7148300
  O       -2.8507450    -1.1694890    -0.7786080
  O        1.5038829     0.0925799     0.5838276
  O        0.2127210     0.0849480    -1.7048820
  O        0.4027150    -2.1095660    -0.2874290
  O        3.5327910    -0.6840640    -0.8835370
  O        3.1643710     1.8286230    -0.3742880
  O        3.8338960     0.2099350     1.5311200
  C       -4.1398760     1.5889580    -0.5252390
  H       -4.4292020     0.9309370    -1.3496150
  H       -4.8386320     1.4471050     0.3059850
  H       -4.1840730     2.6280350    -0.8559160
units angstrom
no_reorient  #important for SAPT in psi4, default
symmetry c1  #important for SAPT in psi4, default
}

set PROPERTIES_ORIGIN ["COM"]
properties('MP2/aug-cc-pvtz', properties = ['dipole'])
--------------------------------------------------------------------------

    Molecular point group: c1
  Charge       = -4
  Multiplicity = 1
  Basis Set: AUG-CC-PVTZ
    Blend: AUG-CC-PVTZ
  Basis Set: (AUG-CC-PVTZ AUX)
    Blend: AUG-CC-PVTZ-JKFIT

    Orbital Energies [Eh]
    ---------------------

    Doubly Occupied:

       1A    -79.581832     2A    -79.520702     3A    -79.472891
       4A    -20.119867     5A    -20.043538     6A    -20.015873
       7A    -20.005935     8A    -19.984916     9A    -19.939207
      10A    -19.937445    11A    -19.919569    12A    -19.915181
      13A    -19.912119    14A    -10.884001    15A     -7.096094
      16A     -7.033381    17A     -6.986790    18A     -4.995240
      19A     -4.993937    20A     -4.993019    21A     -4.932787
      22A     -4.931148    23A     -4.930074    24A     -4.886178
      25A     -4.884104    26A     -4.883979    27A     -0.932108
      28A     -0.854155    29A     -0.806587    30A     -0.777841
      31A     -0.762132    32A     -0.736701    33A     -0.704791
      34A     -0.688897    35A     -0.660131    36A     -0.655995
      37A     -0.528844    38A     -0.309541    39A     -0.252742
      40A     -0.221356    41A     -0.196464    42A     -0.165434
      43A     -0.140501    44A     -0.108987    45A     -0.094539
      46A     -0.079925    47A     -0.063112    48A     -0.052029
      49A     -0.035122    50A     -0.026098    51A     -0.012460
      52A     -0.010033    53A      0.008704    54A      0.011606
      55A      0.023934    56A      0.033515    57A      0.047137
      58A      0.054753    59A      0.061143    60A      0.080094
      61A      0.096917    62A      0.104626    63A      0.107718
      64A      0.109479    65A      0.123418    66A      0.134015
      67A      0.149519    68A      0.155655    69A      0.176083

  @DF-RHF Final Energy: -1810.67450340378764

   => Energetics <=

    Nuclear Repulsion Energy =           1425.1848923274612844
    One-Electron Energy =               -5425.3227648383817723
    Two-Electron Energy =                2189.4633691071330759
    Total Energy =                      -1810.6745034037876394
  Basis Set: (AUG-CC-PVTZ AUX)
    Blend: AUG-CC-PVTZ-RI
    Molecular point group: c1

    Geometry (in Angstrom), charge = -4, multiplicity = 1:

       Center              X                  Y                   Z               Mass
    ------------   -----------------  -----------------  -----------------  -----------------
         P           -2.574522667711    -0.225276435033     0.362894974435    30.973761998420
         P            0.302238332289    -0.576382435033    -0.367236025565    30.973761998420
         P            3.120738332289     0.407855564967     0.147163974435    30.973761998420
         O           -2.847066667711     1.350816564967    -0.123379025565    15.994914619570
         O           -0.971252667711    -0.063943435033     0.633952974435    15.994914619570
         O           -3.239903667711    -0.440905435033     1.706502974435    15.994914619570
         O           -2.905023667711    -1.149823435033    -0.786935025565    15.994914619570
         O            1.449604232289     0.112245464967     0.575500574435    15.994914619570
         O            0.158442332289     0.104613564967    -1.713209025565    15.994914619570
         O            0.348436332289    -2.089900435033    -0.295756025565    15.994914619570
         O            3.478512332289    -0.664398435033    -0.891864025565    15.994914619570
         O            3.110092332289     1.848288564967    -0.382615025565    15.994914619570
         O            3.779617332289     0.229600564967     1.522792974435    15.994914619570
         C           -4.194154667711     1.608623564967    -0.533566025565    12.000000000000
         H           -4.483480667711     0.950602564967    -1.357942025565     1.007825032230
         H           -4.892910667711     1.466770564967     0.297657974435     1.007825032230
         H           -4.238351667711     2.647700564967    -0.864243025565     1.007825032230

  Basis Set: AUG-CC-PVTZ
    Blend: AUG-CC-PVTZ
  Basis Set: (AUG-CC-PVTZ AUX)
    Blend: AUG-CC-PVTZ-JKFIT
	 Reference Energy          =   -1810.6745034037876394 [Eh]
	 Singles Energy            =      -0.0000000000000000 [Eh]
	 Same-Spin Energy          =      -0.9125384190777315 [Eh]
	 Opposite-Spin Energy      =      -2.5256703250856636 [Eh]
	 Correlation Energy        =      -3.4382087441633953 [Eh]
	 Total Energy              =   -1814.1127121479510151 [Eh]

	 ================> DF-SCS-MP2 Energies <==================
	-----------------------------------------------------------
	 SCS Same-Spin Scale       =       0.3333333333333333 [-]
	 SCS Opposite-Spin Scale   =       1.2000000000000000 [-]
	 SCS Same-Spin Energy      =      -0.3041794730259105 [Eh]
	 SCS Opposite-Spin Energy  =      -3.0308043901027961 [Eh]
	 SCS Correlation Energy    =      -3.3349838631287065 [Eh]
	 SCS Total Energy          =   -1814.0094872669162669 [Eh]
	-----------------------------------------------------------

  Dipole Moment: [D]
     X:   -15.1950      Y:     2.6421      Z:    -0.0495     Total:    15.4231

*** Psi4 exiting successfully. Buy a developer a beer!
