                               Psi4 1.3.2 release

  ==> Input File <==

--------------------------------------------------------------------------
#psi4
#
memory 32 gb

molecule  {
-4 1
  P        2.5828670     0.0826120    -0.3559070
  P       -0.1833470    -1.1435920     0.2927960
  P       -2.7088530     0.4754690    -0.2006980
  O        1.9534540     1.6068400    -0.1842610
  O        1.2509400    -0.8782220    -0.5450080
  O        3.2679280     0.0927970    -1.6978490
  O        3.3289310    -0.2934220     0.9022790
  O       -0.9881700     0.1612780    -0.2225170
  O        0.0932830    -1.0798150     1.7822090
  O       -0.7150640    -2.4305380    -0.3003910
  O       -3.2327710    -0.2685190     1.0414150
  O       -2.7031916     2.0067628    -0.0709817
  O       -3.2072307    -0.1002034    -1.5384318
  C        1.4216660     1.9681570     1.1052990
  H        1.0169430     1.1016800     1.6278780
  H        2.2027140     2.4392170     1.7103290
  H        0.6160650     2.6819120     0.9264900
units angstrom
no_reorient  #important for SAPT in psi4, default
symmetry c1  #important for SAPT in psi4, default
}

set PROPERTIES_ORIGIN ["COM"]
properties('MP2/aug-cc-pvtz', properties = ['dipole'])
--------------------------------------------------------------------------

    Molecular point group: c1
  Charge       = -4
  Multiplicity = 1
  Basis Set: AUG-CC-PVTZ
    Blend: AUG-CC-PVTZ
  Basis Set: (AUG-CC-PVTZ AUX)
    Blend: AUG-CC-PVTZ-JKFIT

    Orbital Energies [Eh]
    ---------------------

    Doubly Occupied:

       1A    -79.572240     2A    -79.526170     3A    -79.479858
       4A    -20.085351     5A    -20.037810     6A    -20.002537
       7A    -20.002316     8A    -19.991762     9A    -19.949424
      10A    -19.944473    11A    -19.925486    12A    -19.920791
      13A    -19.915120    14A    -10.811329    15A     -7.086062
      16A     -7.039100    17A     -6.993373    18A     -4.985012
      19A     -4.984066    20A     -4.983250    21A     -4.938381
      22A     -4.936984    23A     -4.936060    24A     -4.892848
      25A     -4.890643    26A     -4.890493    27A     -0.901600
      28A     -0.845121    29A     -0.806181    30A     -0.777703
      31A     -0.757342    32A     -0.741651    33A     -0.712929
      34A     -0.698874    35A     -0.665317    36A     -0.657791
      37A     -0.466455    38A     -0.293332    39A     -0.234155
      40A     -0.183641    41A     -0.163629    42A     -0.148450
      43A     -0.125612    44A     -0.098422    45A     -0.082447
      46A     -0.064740    47A     -0.051487    48A     -0.043610
      49A     -0.031394    50A     -0.015876    51A     -0.006346
      52A      0.000301    53A      0.009796    54A      0.014910
      55A      0.022334    56A      0.037714    57A      0.047526
      58A      0.053826    59A      0.067458    60A      0.071473
      61A      0.091603    62A      0.099935    63A      0.102199
      64A      0.104864    65A      0.114360    66A      0.125720
      67A      0.144478    68A      0.150670    69A      0.171959

  @DF-RHF Final Energy: -1810.68830002806590

   => Energetics <=

    Nuclear Repulsion Energy =           1463.2874889672464178
    One-Electron Energy =               -5502.2237474302028204
    Two-Electron Energy =                2228.2479584348902790
    Total Energy =                      -1810.6883000280658962
  Basis Set: (AUG-CC-PVTZ AUX)
    Blend: AUG-CC-PVTZ-RI
    Molecular point group: c1

    Geometry (in Angstrom), charge = -4, multiplicity = 1:

       Center              X                  Y                   Z               Mass
    ------------   -----------------  -----------------  -----------------  -----------------
         P            2.597353698044     0.109371627109    -0.341192794749    30.973761998420
         P           -0.168860301956    -1.116832372891     0.307510205251    30.973761998420
         P           -2.694366301956     0.502228627109    -0.185983794749    30.973761998420
         O            1.967940698044     1.633599627109    -0.169546794749    15.994914619570
         O            1.265426698044    -0.851462372891    -0.530293794749    15.994914619570
         O            3.282414698044     0.119556627109    -1.683134794749    15.994914619570
         O            3.343417698044    -0.266662372891     0.916993205251    15.994914619570
         O           -0.973683301956     0.188037627109    -0.207802794749    15.994914619570
         O            0.107769698044    -1.053055372891     1.796923205251    15.994914619570
         O           -0.700577301956    -2.403778372891    -0.285676794749    15.994914619570
         O           -3.218284301956    -0.241759372891     1.056129205251    15.994914619570
         O           -2.688704901956     2.033522427109    -0.056267494749    15.994914619570
         O           -3.192744001956    -0.073443772891    -1.523717594749    15.994914619570
         C            1.436152698044     1.994916627109     1.120013205251    12.000000000000
         H            1.031429698044     1.128439627109     1.642592205251     1.007825032230
         H            2.217200698044     2.465976627109     1.725043205251     1.007825032230
         H            0.630551698044     2.708671627109     0.941204205251     1.007825032230

  Basis Set: AUG-CC-PVTZ
    Blend: AUG-CC-PVTZ
  Basis Set: (AUG-CC-PVTZ AUX)
    Blend: AUG-CC-PVTZ-JKFIT
	 Reference Energy          =   -1810.6883000280658962 [Eh]
	 Singles Energy            =      -0.0000000000000000 [Eh]
	 Same-Spin Energy          =      -0.9130702667970945 [Eh]
	 Opposite-Spin Energy      =      -2.5258750726193813 [Eh]
	 Correlation Energy        =      -3.4389453394164757 [Eh]
	 Total Energy              =   -1814.1272453674823737 [Eh]

	 ================> DF-SCS-MP2 Energies <==================
	-----------------------------------------------------------
	 SCS Same-Spin Scale       =       0.3333333333333333 [-]
	 SCS Opposite-Spin Scale   =       1.2000000000000000 [-]
	 SCS Same-Spin Energy      =      -0.3043567555990315 [Eh]
	 SCS Opposite-Spin Energy  =      -3.0310500871432575 [Eh]
	 SCS Correlation Energy    =      -3.3354068427422892 [Eh]
	 SCS Total Energy          =   -1814.0237068708081551 [Eh]
	-----------------------------------------------------------

  Dipole Moment: [D]
     X:     9.2064      Y:     2.4145      Z:     1.5132     Total:     9.6373

*** Psi4 exiting successfully. Buy a developer a beer!
