                               Psi4 1.3.2 release

  ==> Input File <==

--------------------------------------------------------------------------
#psi4
#
memory 32 gb

molecule  {
-4 1
  P        2.5828670     0.0826120    -0.3559070
  P       -0.1833470    -1.1435920     0.2927960
  P       -2.7088530     0.4754690    -0.2006980
  O        1.9534540     1.6068400    -0.1842610
  O        1.2509400    -0.8782220    -0.5450080
  O        3.2679280     0.0927970    -1.6978490
  O        3.3289310    -0.2934220     0.9022790
  O       -0.9829355     0.1912861    -0.2204675
  O        0.0932830    -1.0798150     1.7822090
  O       -0.7150640    -2.4305380    -0.3003910
  O       -3.2327710    -0.2685190     1.0414150
  O       -2.6860308     2.0085135    -0.0959466
  O       -3.2113930    -0.0752120    -1.5473660
  C        1.4216660     1.9681570     1.1052990
  H        1.0169430     1.1016800     1.6278780
  H        2.2027140     2.4392170     1.7103290
  H        0.6160650     2.6819120     0.9264900
units angstrom
no_reorient  #important for SAPT in psi4, default
symmetry c1  #important for SAPT in psi4, default
}

set PROPERTIES_ORIGIN ["COM"]
properties('MP2/aug-cc-pvtz', properties = ['dipole'])
--------------------------------------------------------------------------

    Molecular point group: c1
  Charge       = -4
  Multiplicity = 1
  Basis Set: AUG-CC-PVTZ
    Blend: AUG-CC-PVTZ
  Basis Set: (AUG-CC-PVTZ AUX)
    Blend: AUG-CC-PVTZ-JKFIT

    Orbital Energies [Eh]
    ---------------------

    Doubly Occupied:

       1A    -79.572333     2A    -79.528785     3A    -79.478516
       4A    -20.084867     5A    -20.038502     6A    -20.002636
       7A    -20.002319     8A    -19.991978     9A    -19.950899
      10A    -19.947727    11A    -19.921552    12A    -19.919779
      13A    -19.918196    14A    -10.810690    15A     -7.086149
      16A     -7.041430    17A     -6.992106    18A     -4.985096
      19A     -4.984159    20A     -4.983337    21A     -4.940726
      22A     -4.939215    23A     -4.938416    24A     -4.891564
      25A     -4.889367    26A     -4.889260    27A     -0.901294
      28A     -0.844344    29A     -0.804359    30A     -0.776822
      31A     -0.757400    32A     -0.742448    33A     -0.711141
      34A     -0.701003    35A     -0.662687    36A     -0.659467
      37A     -0.465833    38A     -0.293148    39A     -0.232483
      40A     -0.181527    41A     -0.162358    42A     -0.147771
      43A     -0.125852    44A     -0.098938    45A     -0.082558
      46A     -0.064604    47A     -0.050715    48A     -0.043123
      49A     -0.030338    50A     -0.015155    51A     -0.006084
      52A      0.000153    53A      0.009783    54A      0.015145
      55A      0.021581    56A      0.037993    57A      0.048582
      58A      0.053793    59A      0.066634    60A      0.070846
      61A      0.090246    62A      0.100784    63A      0.103549
      64A      0.105353    65A      0.112948    66A      0.124021
      67A      0.145265    68A      0.150630    69A      0.172077

  @DF-RHF Final Energy: -1810.68640978940289

   => Energetics <=

    Nuclear Repulsion Energy =           1462.7177423542029828
    One-Electron Energy =               -5501.0849544831762614
    Two-Electron Energy =                2227.6808023395706186
    Total Energy =                      -1810.6864097894026600
  Basis Set: (AUG-CC-PVTZ AUX)
    Blend: AUG-CC-PVTZ-RI
    Molecular point group: c1

    Geometry (in Angstrom), charge = -4, multiplicity = 1:

       Center              X                  Y                   Z               Mass
    ------------   -----------------  -----------------  -----------------  -----------------
         P            2.596265075756     0.105983290985    -0.339291177658    30.973761998420
         P           -0.169948924244    -1.120220709015     0.309411822342    30.973761998420
         P           -2.695454924244     0.498840290985    -0.184082177658    30.973761998420
         O            1.966852075756     1.630211290985    -0.167645177658    15.994914619570
         O            1.264338075756    -0.854850709015    -0.528392177658    15.994914619570
         O            3.281326075756     0.116168290985    -1.681233177658    15.994914619570
         O            3.342329075756    -0.270050709015     0.918894822342    15.994914619570
         O           -0.969537424244     0.214657390985    -0.203851677658    15.994914619570
         O            0.106681075756    -1.056443709015     1.798824822342    15.994914619570
         O           -0.701665924244    -2.407166709015    -0.283775177658    15.994914619570
         O           -3.219372924244    -0.245147709015     1.058030822342    15.994914619570
         O           -2.672632724244     2.031884790985    -0.079330777658    15.994914619570
         O           -3.197994924244    -0.051840709015    -1.530750177658    15.994914619570
         C            1.435064075756     1.991528290985     1.121914822342    12.000000000000
         H            1.030341075756     1.125051290985     1.644493822342     1.007825032230
         H            2.216112075756     2.462588290985     1.726944822342     1.007825032230
         H            0.629463075756     2.705283290985     0.943105822342     1.007825032230

  Basis Set: AUG-CC-PVTZ
    Blend: AUG-CC-PVTZ
  Basis Set: (AUG-CC-PVTZ AUX)
    Blend: AUG-CC-PVTZ-JKFIT
	 Reference Energy          =   -1810.6864097894028873 [Eh]
	 Singles Energy            =      -0.0000000000000000 [Eh]
	 Same-Spin Energy          =      -0.9134244314899531 [Eh]
	 Opposite-Spin Energy      =      -2.5267924689974475 [Eh]
	 Correlation Energy        =      -3.4402169004874006 [Eh]
	 Total Energy              =   -1814.1266266898903723 [Eh]

	 ================> DF-SCS-MP2 Energies <==================
	-----------------------------------------------------------
	 SCS Same-Spin Scale       =       0.3333333333333333 [-]
	 SCS Opposite-Spin Scale   =       1.2000000000000000 [-]
	 SCS Same-Spin Energy      =      -0.3044748104966510 [Eh]
	 SCS Opposite-Spin Energy  =      -3.0321509627969370 [Eh]
	 SCS Correlation Energy    =      -3.3366257732935880 [Eh]
	 SCS Total Energy          =   -1814.0230355626965775 [Eh]
	-----------------------------------------------------------

  Dipole Moment: [D]
     X:     9.2453      Y:     2.2244      Z:     1.6208     Total:     9.6463

*** Psi4 exiting successfully. Buy a developer a beer!
