                               Psi4 1.3.2 release

  ==> Input File <==

--------------------------------------------------------------------------
#psi4
#
memory 32 gb

molecule  {
-4 1
  P        2.5828670     0.0826120    -0.3559070
  P       -0.1833470    -1.1435920     0.2927960
  P       -2.7088530     0.4754690    -0.2006980
  O        1.9534540     1.6068400    -0.1842610
  O        1.2509400    -0.8782220    -0.5450080
  O        3.2679280     0.0927970    -1.6978490
  O        3.3289310    -0.2934220     0.9022790
  O       -0.9881700     0.1612780    -0.2225170
  O        0.0932830    -1.0798150     1.7822090
  O       -0.7150640    -2.4305380    -0.3003910
  O       -3.2187610    -0.2517618     1.0570707
  O       -2.7128520     2.0086770    -0.0959300
  O       -3.1971548    -0.0563409    -1.5601281
  C        1.4216660     1.9681570     1.1052990
  H        1.0169430     1.1016800     1.6278780
  H        2.2027140     2.4392170     1.7103290
  H        0.6160650     2.6819120     0.9264900
units angstrom
no_reorient  #important for SAPT in psi4, default
symmetry c1  #important for SAPT in psi4, default
}

set PROPERTIES_ORIGIN ["COM"]
properties('MP2/aug-cc-pvtz', properties = ['dipole'])
--------------------------------------------------------------------------

    Molecular point group: c1
  Charge       = -4
  Multiplicity = 1
  Basis Set: AUG-CC-PVTZ
    Blend: AUG-CC-PVTZ
  Basis Set: (AUG-CC-PVTZ AUX)
    Blend: AUG-CC-PVTZ-JKFIT

    Orbital Energies [Eh]
    ---------------------

    Doubly Occupied:

       1A    -79.572248     2A    -79.526559     3A    -79.479916
       4A    -20.085245     5A    -20.037957     6A    -20.002555
       7A    -20.002267     8A    -19.991886     9A    -19.949719
      10A    -19.945351    11A    -19.921701    12A    -19.920797
      13A    -19.918985    14A    -10.811233    15A     -7.086068
      16A     -7.039496    17A     -6.993429    18A     -4.985018
      19A     -4.984073    20A     -4.983256    21A     -4.938777
      22A     -4.937379    23A     -4.936462    24A     -4.892906
      25A     -4.890755    26A     -4.890494    27A     -0.901545
      28A     -0.845261    29A     -0.806251    30A     -0.777745
      31A     -0.757330    32A     -0.741926    33A     -0.713073
      34A     -0.699522    35A     -0.661843    36A     -0.661479
      37A     -0.466360    38A     -0.293438    39A     -0.234116
      40A     -0.183564    41A     -0.163550    42A     -0.148347
      43A     -0.125704    44A     -0.098775    45A     -0.082556
      46A     -0.064935    47A     -0.051549    48A     -0.043699
      49A     -0.031603    50A     -0.015747    51A     -0.006373
      52A     -0.000196    53A      0.010138    54A      0.015156
      55A      0.021695    56A      0.037646    57A      0.047632
      58A      0.053808    59A      0.067225    60A      0.071158
      61A      0.091328    62A      0.099918    63A      0.103243
      64A      0.103544    65A      0.113960    66A      0.125277
      67A      0.145126    68A      0.149589    69A      0.171527

  @DF-RHF Final Energy: -1810.68865971464356

   => Energetics <=

    Nuclear Repulsion Energy =           1463.1554132943372224
    One-Electron Energy =               -5501.9420501487484216
    Two-Electron Energy =                2228.0979771397674085
    Total Energy =                      -1810.6886597146435633
  Basis Set: (AUG-CC-PVTZ AUX)
    Blend: AUG-CC-PVTZ-RI
    Molecular point group: c1

    Geometry (in Angstrom), charge = -4, multiplicity = 1:

       Center              X                  Y                   Z               Mass
    ------------   -----------------  -----------------  -----------------  -----------------
         P            2.596492406933     0.105637968507    -0.339342566744    30.973761998420
         P           -0.169721593067    -1.120566031493     0.309360433256    30.973761998420
         P           -2.695227593067     0.498494968507    -0.184133566744    30.973761998420
         O            1.967079406933     1.629865968507    -0.167696566744    15.994914619570
         O            1.264565406933    -0.855196031493    -0.528443566744    15.994914619570
         O            3.281553406933     0.115822968507    -1.681284566744    15.994914619570
         O            3.342556406933    -0.270396031493     0.918843433256    15.994914619570
         O           -0.974544593067     0.184303968507    -0.205952566744    15.994914619570
         O            0.106908406933    -1.056789031493     1.798773433256    15.994914619570
         O           -0.701438593067    -2.407512031493    -0.283826566744    15.994914619570
         O           -3.205135593067    -0.228735831493     1.073635133256    15.994914619570
         O           -2.699226593067     2.031702968507    -0.079365566744    15.994914619570
         O           -3.183529393067    -0.033314931493    -1.543563666744    15.994914619570
         C            1.435291406933     1.991182968507     1.121863433256    12.000000000000
         H            1.030568406933     1.124705968507     1.644442433256     1.007825032230
         H            2.216339406933     2.462242968507     1.726893433256     1.007825032230
         H            0.629690406933     2.704937968507     0.943054433256     1.007825032230

  Basis Set: AUG-CC-PVTZ
    Blend: AUG-CC-PVTZ
  Basis Set: (AUG-CC-PVTZ AUX)
    Blend: AUG-CC-PVTZ-JKFIT
	 Reference Energy          =   -1810.6886597146435633 [Eh]
	 Singles Energy            =      -0.0000000000000000 [Eh]
	 Same-Spin Energy          =      -0.9130481058482423 [Eh]
	 Opposite-Spin Energy      =      -2.5258395423496793 [Eh]
	 Correlation Energy        =      -3.4388876481979214 [Eh]
	 Total Energy              =   -1814.1275473628415966 [Eh]

	 ================> DF-SCS-MP2 Energies <==================
	-----------------------------------------------------------
	 SCS Same-Spin Scale       =       0.3333333333333333 [-]
	 SCS Opposite-Spin Scale   =       1.2000000000000000 [-]
	 SCS Same-Spin Energy      =      -0.3043493686160808 [Eh]
	 SCS Opposite-Spin Energy  =      -3.0310074508196152 [Eh]
	 SCS Correlation Energy    =      -3.3353568194356962 [Eh]
	 SCS Total Energy          =   -1814.0240165340792373 [Eh]
	-----------------------------------------------------------

  Dipole Moment: [D]
     X:     9.1766      Y:     2.2499      Z:     1.5997     Total:     9.5829

*** Psi4 exiting successfully. Buy a developer a beer!
