                               Psi4 1.3.2 release

  ==> Input File <==

--------------------------------------------------------------------------
#psi4
#
memory 32 gb

molecule  {
-4 1
  P        2.5828670     0.0826120    -0.3559070
  P       -0.1833470    -1.1435920     0.2927960
  P       -2.7088530     0.4754690    -0.2006980
  O        1.9534540     1.6068400    -0.1842610
  O        1.2509400    -0.8782220    -0.5450080
  O        3.3588618     0.0941489    -1.8759760
  O        3.3289310    -0.2934220     0.9022790
  O       -0.9881700     0.1612780    -0.2225170
  O        0.0932830    -1.0798150     1.7822090
  O       -0.7150640    -2.4305380    -0.3003910
  O       -3.2327710    -0.2685190     1.0414150
  O       -2.7128520     2.0086770    -0.0959300
  O       -3.2113930    -0.0752120    -1.5473660
  C        1.4216660     1.9681570     1.1052990
  H        1.0169430     1.1016800     1.6278780
  H        2.2027140     2.4392170     1.7103290
  H        0.6160650     2.6819120     0.9264900
units angstrom
no_reorient  #important for SAPT in psi4, default
symmetry c1  #important for SAPT in psi4, default
}

set PROPERTIES_ORIGIN ["COM"]
properties('MP2/aug-cc-pvtz', properties = ['dipole'])
--------------------------------------------------------------------------

    Molecular point group: c1
  Charge       = -4
  Multiplicity = 1
  Basis Set: AUG-CC-PVTZ
    Blend: AUG-CC-PVTZ
  Basis Set: (AUG-CC-PVTZ AUX)
    Blend: AUG-CC-PVTZ-JKFIT

    Orbital Energies [Eh]
    ---------------------

    Doubly Occupied:

       1A    -79.603703     2A    -79.534048     3A    -79.483073
       4A    -20.098681     5A    -20.051842     6A    -20.019847
       7A    -20.012396     8A    -19.998144     9A    -19.956676
      10A    -19.950794    11A    -19.926899    12A    -19.921799
      13A    -19.920508    14A    -10.820577    15A     -7.113312
      16A     -7.046991    17A     -6.996597    18A     -5.012417
      19A     -5.011365    20A     -5.009873    21A     -4.946341
      22A     -4.944810    23A     -4.943884    24A     -4.896077
      25A     -4.893854    26A     -4.893701    27A     -0.908500
      28A     -0.854747    29A     -0.807033    30A     -0.784372
      31A     -0.749242    32A     -0.717984    33A     -0.707861
      34A     -0.705459    35A     -0.666404    36A     -0.661943
      37A     -0.476553    38A     -0.306889    39A     -0.242447
      40A     -0.190390    41A     -0.172708    42A     -0.156627
      43A     -0.130441    44A     -0.102493    45A     -0.084850
      46A     -0.071121    47A     -0.053747    48A     -0.043319
      49A     -0.036706    50A     -0.017443    51A     -0.010288
      52A     -0.003586    53A      0.006505    54A      0.015951
      55A      0.024351    56A      0.037805    57A      0.042124
      58A      0.057832    59A      0.069579    60A      0.074690
      61A      0.086373    62A      0.096737    63A      0.098665
      64A      0.100421    65A      0.108760    66A      0.119901
      67A      0.141238    68A      0.147272    69A      0.169186

  @DF-RHF Final Energy: -1810.65425722849182

   => Energetics <=

    Nuclear Repulsion Energy =           1453.4491858773146760
    One-Electron Energy =               -5481.6589356249960474
    Two-Electron Energy =                2217.5554925191895563
    Total Energy =                      -1810.6542572284920425
  Basis Set: (AUG-CC-PVTZ AUX)
    Blend: AUG-CC-PVTZ-RI
    Molecular point group: c1

    Geometry (in Angstrom), charge = -4, multiplicity = 1:

       Center              X                  Y                   Z               Mass
    ------------   -----------------  -----------------  -----------------  -----------------
         P            2.592749690908     0.107684480491    -0.328534523102    30.973761998420
         P           -0.173464309092    -1.118519519509     0.320168476898    30.973761998420
         P           -2.698970309092     0.500541480491    -0.173325523102    30.973761998420
         O            1.963336690908     1.631912480491    -0.156888523102    15.994914619570
         O            1.260822690908    -0.853149519509    -0.517635523102    15.994914619570
         O            3.368744490908     0.119221380491    -1.848603523102    15.994914619570
         O            3.338813690908    -0.268349519509     0.929651476898    15.994914619570
         O           -0.978287309092     0.186350480491    -0.195144523102    15.994914619570
         O            0.103165690908    -1.054742519509     1.809581476898    15.994914619570
         O           -0.705181309092    -2.405465519509    -0.273018523102    15.994914619570
         O           -3.222888309092    -0.243446519509     1.068787476898    15.994914619570
         O           -2.702969309092     2.033749480491    -0.068557523102    15.994914619570
         O           -3.201510309092    -0.050139519509    -1.519993523102    15.994914619570
         C            1.431548690908     1.993229480491     1.132671476898    12.000000000000
         H            1.026825690908     1.126752480491     1.655250476898     1.007825032230
         H            2.212596690908     2.464289480491     1.737701476898     1.007825032230
         H            0.625947690908     2.706984480491     0.953862476898     1.007825032230

  Basis Set: AUG-CC-PVTZ
    Blend: AUG-CC-PVTZ
  Basis Set: (AUG-CC-PVTZ AUX)
    Blend: AUG-CC-PVTZ-JKFIT
	 Reference Energy          =   -1810.6542572284918151 [Eh]
	 Singles Energy            =      -0.0000000000000000 [Eh]
	 Same-Spin Energy          =      -0.9162135752764274 [Eh]
	 Opposite-Spin Energy      =      -2.5346807773465332 [Eh]
	 Correlation Energy        =      -3.4508943526229605 [Eh]
	 Total Energy              =   -1814.1051515811147965 [Eh]

	 ================> DF-SCS-MP2 Energies <==================
	-----------------------------------------------------------
	 SCS Same-Spin Scale       =       0.3333333333333333 [-]
	 SCS Opposite-Spin Scale   =       1.2000000000000000 [-]
	 SCS Same-Spin Energy      =      -0.3054045250921424 [Eh]
	 SCS Opposite-Spin Energy  =      -3.0416169328158396 [Eh]
	 SCS Correlation Energy    =      -3.3470214579079820 [Eh]
	 SCS Total Energy          =   -1814.0012786863997007 [Eh]
	-----------------------------------------------------------

  Dipole Moment: [D]
     X:     8.3252      Y:     2.3182      Z:     2.8499     Total:     9.0997

*** Psi4 exiting successfully. Buy a developer a beer!
