                               Psi4 1.3.2 release

  ==> Input File <==

--------------------------------------------------------------------------
#psi4
#
memory 32 gb

molecule  {
-4 1
  P        2.5828670     0.0826120    -0.3559070
  P       -0.1833470    -1.1435920     0.2927960
  P       -2.7088530     0.4754690    -0.2006980
  O        1.9534540     1.6068400    -0.1842610
  O        1.2509400    -0.8782220    -0.5450080
  O        3.2679280     0.0927970    -1.6978490
  O        3.3289310    -0.2934220     0.9022790
  O       -0.9881700     0.1612780    -0.2225170
  O        0.0932830    -1.0798150     1.7822090
  O       -0.7150640    -2.4305380    -0.3003910
  O       -3.2283063    -0.2919247     1.0289882
  O       -2.7027305     2.0101630    -0.1207241
  O       -3.2113930    -0.0752120    -1.5473660
  C        1.4216660     1.9681570     1.1052990
  H        1.0169430     1.1016800     1.6278780
  H        2.2027140     2.4392170     1.7103290
  H        0.6160650     2.6819120     0.9264900
units angstrom
no_reorient  #important for SAPT in psi4, default
symmetry c1  #important for SAPT in psi4, default
}

set PROPERTIES_ORIGIN ["COM"]
properties('MP2/aug-cc-pvtz', properties = ['dipole'])
--------------------------------------------------------------------------

    Molecular point group: c1
  Charge       = -4
  Multiplicity = 1
  Basis Set: AUG-CC-PVTZ
    Blend: AUG-CC-PVTZ
  Basis Set: (AUG-CC-PVTZ AUX)
    Blend: AUG-CC-PVTZ-JKFIT

    Orbital Energies [Eh]
    ---------------------

    Doubly Occupied:

       1A    -79.572294     2A    -79.526279     3A    -79.479869
       4A    -20.085468     5A    -20.037876     6A    -20.002629
       7A    -20.002295     8A    -19.991904     9A    -19.949758
      10A    -19.944532    11A    -19.925447    12A    -19.918956
      13A    -19.916941    14A    -10.811668    15A     -7.086115
      16A     -7.039219    17A     -6.993381    18A     -4.985066
      19A     -4.984119    20A     -4.983303    21A     -4.938497
      22A     -4.937102    23A     -4.936182    24A     -4.892860
      25A     -4.890634    26A     -4.890518    27A     -0.901695
      28A     -0.845221    29A     -0.806267    30A     -0.777758
      31A     -0.757382    32A     -0.741761    33A     -0.713027
      34A     -0.699059    35A     -0.665175    36A     -0.657937
      37A     -0.466750    38A     -0.293412    39A     -0.234258
      40A     -0.183707    41A     -0.163820    42A     -0.148649
      43A     -0.125734    44A     -0.098603    45A     -0.082506
      46A     -0.064823    47A     -0.051575    48A     -0.043816
      49A     -0.031425    50A     -0.016079    51A     -0.006418
      52A      0.000608    53A      0.009775    54A      0.014879
      55A      0.021327    56A      0.037695    57A      0.048326
      58A      0.053735    59A      0.067323    60A      0.071201
      61A      0.091183    62A      0.101092    63A      0.102363
      64A      0.103514    65A      0.114446    66A      0.125848
      67A      0.143036    68A      0.151640    69A      0.171916

  @DF-RHF Final Energy: -1810.68836198428494

   => Energetics <=

    Nuclear Repulsion Energy =           1463.2135637324295203
    One-Electron Energy =               -5502.0641322375449818
    Two-Electron Energy =                2228.1622065208307504
    Total Energy =                      -1810.6883619842847111
  Basis Set: (AUG-CC-PVTZ AUX)
    Blend: AUG-CC-PVTZ-RI
    Molecular point group: c1

    Geometry (in Angstrom), charge = -4, multiplicity = 1:

       Center              X                  Y                   Z               Mass
    ------------   -----------------  -----------------  -----------------  -----------------
         P            2.597308112396     0.109073938201    -0.336947484269    30.973761998420
         P           -0.168905887604    -1.117130061799     0.311755515731    30.973761998420
         P           -2.694411887604     0.501930938201    -0.181738484269    30.973761998420
         O            1.967895112396     1.633301938201    -0.165301484269    15.994914619570
         O            1.265381112396    -0.851760061799    -0.526048484269    15.994914619570
         O            3.282369112396     0.119258938201    -1.678889484269    15.994914619570
         O            3.343372112396    -0.266960061799     0.921238515731    15.994914619570
         O           -0.973728887604     0.187739938201    -0.203557484269    15.994914619570
         O            0.107724112396    -1.053353061799     1.801168515731    15.994914619570
         O           -0.700622887604    -2.404076061799    -0.281431484269    15.994914619570
         O           -3.213865187604    -0.265462761799     1.047947715731    15.994914619570
         O           -2.688289387604     2.036624938201    -0.101764584269    15.994914619570
         O           -3.196951887604    -0.048750061799    -1.528406484269    15.994914619570
         C            1.436107112396     1.994618938201     1.124258515731    12.000000000000
         H            1.031384112396     1.128141938201     1.646837515731     1.007825032230
         H            2.217155112396     2.465678938201     1.729288515731     1.007825032230
         H            0.630506112396     2.708373938201     0.945449515731     1.007825032230

  Basis Set: AUG-CC-PVTZ
    Blend: AUG-CC-PVTZ
  Basis Set: (AUG-CC-PVTZ AUX)
    Blend: AUG-CC-PVTZ-JKFIT
	 Reference Energy          =   -1810.6883619842849384 [Eh]
	 Singles Energy            =      -0.0000000000000000 [Eh]
	 Same-Spin Energy          =      -0.9130766319787486 [Eh]
	 Opposite-Spin Energy      =      -2.5258848729566603 [Eh]
	 Correlation Energy        =      -3.4389615049354090 [Eh]
	 Total Energy              =   -1814.1273234892203163 [Eh]

	 ================> DF-SCS-MP2 Energies <==================
	-----------------------------------------------------------
	 SCS Same-Spin Scale       =       0.3333333333333333 [-]
	 SCS Opposite-Spin Scale   =       1.2000000000000000 [-]
	 SCS Same-Spin Energy      =      -0.3043588773262495 [Eh]
	 SCS Opposite-Spin Energy  =      -3.0310618475479925 [Eh]
	 SCS Correlation Energy    =      -3.3354207248742420 [Eh]
	 SCS Total Energy          =   -1814.0237827091591498 [Eh]
	-----------------------------------------------------------

  Dipole Moment: [D]
     X:     9.2099      Y:     2.3977      Z:     1.7054     Total:     9.6685

*** Psi4 exiting successfully. Buy a developer a beer!
