                               Psi4 1.3.2 release

  ==> Input File <==

--------------------------------------------------------------------------
#psi4
#
memory 32 gb

molecule  {
-4 1
  P        2.5828670     0.0826120    -0.3559070
  P       -0.1833470    -1.1435920     0.2927960
  P       -2.7088530     0.4754690    -0.2006980
  O        1.9534540     1.6068400    -0.1842610
  O        1.2509400    -0.8782220    -0.5450080
  O        3.2679280     0.0927970    -1.6978490
  O        3.3289310    -0.2934220     0.9022790
  O       -0.9880954     0.1714219    -0.1961741
  O        0.0809903    -1.0564040     1.7832546
  O       -0.7150640    -2.4305380    -0.3003910
  O       -3.2327710    -0.2685190     1.0414150
  O       -2.7128520     2.0086770    -0.0959300
  O       -3.2113930    -0.0752120    -1.5473660
  C        1.4216660     1.9681570     1.1052990
  H        1.0169430     1.1016800     1.6278780
  H        2.2027140     2.4392170     1.7103290
  H        0.6160650     2.6819120     0.9264900
units angstrom
no_reorient  #important for SAPT in psi4, default
symmetry c1  #important for SAPT in psi4, default
}

set PROPERTIES_ORIGIN ["COM"]
properties('MP2/aug-cc-pvtz', properties = ['dipole'])
--------------------------------------------------------------------------

    Molecular point group: c1
  Charge       = -4
  Multiplicity = 1
  Basis Set: AUG-CC-PVTZ
    Blend: AUG-CC-PVTZ
  Basis Set: (AUG-CC-PVTZ AUX)
    Blend: AUG-CC-PVTZ-JKFIT

    Orbital Energies [Eh]
    ---------------------

    Doubly Occupied:

       1A    -79.572824     2A    -79.527125     3A    -79.479099
       4A    -20.085341     5A    -20.039225     6A    -20.003053
       7A    -20.002788     8A    -19.991540     9A    -19.948809
      10A    -19.947555    11A    -19.922776    12A    -19.919735
      13A    -19.915943    14A    -10.810734    15A     -7.086642
      16A     -7.040058    17A     -6.992601    18A     -4.985588
      19A     -4.984651    20A     -4.983828    21A     -4.939314
      22A     -4.937983    23A     -4.937005    24A     -4.892063
      25A     -4.889882    26A     -4.889733    27A     -0.901823
      28A     -0.845806    29A     -0.806645    30A     -0.778144
      31A     -0.757833    32A     -0.742034    33A     -0.712549
      34A     -0.700606    35A     -0.662728    36A     -0.658466
      37A     -0.466059    38A     -0.294082    39A     -0.234262
      40A     -0.184137    41A     -0.163544    42A     -0.148369
      43A     -0.125949    44A     -0.098637    45A     -0.083035
      46A     -0.064825    47A     -0.051815    48A     -0.044048
      49A     -0.031944    50A     -0.015733    51A     -0.006665
      52A      0.000502    53A      0.009612    54A      0.014722
      55A      0.022010    56A      0.037279    57A      0.047788
      58A      0.053389    59A      0.066714    60A      0.070747
      61A      0.090607    62A      0.100863    63A      0.103514
      64A      0.104697    65A      0.113442    66A      0.124721
      67A      0.145433    68A      0.150986    69A      0.172689

  @DF-RHF Final Energy: -1810.68878082714969

   => Energetics <=

    Nuclear Repulsion Energy =           1463.2747337650666850
    One-Electron Energy =               -5502.1751909145305035
    Two-Electron Energy =                2228.2116763223139060
    Total Energy =                      -1810.6887808271499125
  Basis Set: (AUG-CC-PVTZ AUX)
    Blend: AUG-CC-PVTZ-RI
    Molecular point group: c1

    Geometry (in Angstrom), charge = -4, multiplicity = 1:

       Center              X                  Y                   Z               Mass
    ------------   -----------------  -----------------  -----------------  -----------------
         P            2.598908494033     0.105761763245    -0.340805062991    30.973761998420
         P           -0.167305505967    -1.120442236755     0.307897937009    30.973761998420
         P           -2.692811505967     0.498618763245    -0.185596062991    30.973761998420
         O            1.969495494033     1.629989763245    -0.169159062991    15.994914619570
         O            1.266981494033    -0.855072236755    -0.529906062991    15.994914619570
         O            3.283969494033     0.115946763245    -1.682747062991    15.994914619570
         O            3.344972494033    -0.270272236755     0.917380937009    15.994914619570
         O           -0.972053905967     0.194571663245    -0.181072162991    15.994914619570
         O            0.097031794033    -1.033254236755     1.798356537009    15.994914619570
         O           -0.699022505967    -2.407388236755    -0.285289062991    15.994914619570
         O           -3.216729505967    -0.245369236755     1.056516937009    15.994914619570
         O           -2.696810505967     2.031826763245    -0.080828062991    15.994914619570
         O           -3.195351505967    -0.052062236755    -1.532264062991    15.994914619570
         C            1.437707494033     1.991306763245     1.120400937009    12.000000000000
         H            1.032984494033     1.124829763245     1.642979937009     1.007825032230
         H            2.218755494033     2.462366763245     1.725430937009     1.007825032230
         H            0.632106494033     2.705061763245     0.941591937009     1.007825032230

  Basis Set: AUG-CC-PVTZ
    Blend: AUG-CC-PVTZ
  Basis Set: (AUG-CC-PVTZ AUX)
    Blend: AUG-CC-PVTZ-JKFIT
	 Reference Energy          =   -1810.6887808271496851 [Eh]
	 Singles Energy            =      -0.0000000000000000 [Eh]
	 Same-Spin Energy          =      -0.9130419000889101 [Eh]
	 Opposite-Spin Energy      =      -2.5257884452795980 [Eh]
	 Correlation Energy        =      -3.4388303453685083 [Eh]
	 Total Energy              =   -1814.1276111725183000 [Eh]

	 ================> DF-SCS-MP2 Energies <==================
	-----------------------------------------------------------
	 SCS Same-Spin Scale       =       0.3333333333333333 [-]
	 SCS Opposite-Spin Scale   =       1.2000000000000000 [-]
	 SCS Same-Spin Energy      =      -0.3043473000296367 [Eh]
	 SCS Opposite-Spin Energy  =      -3.0309461343355175 [Eh]
	 SCS Correlation Energy    =      -3.3352934343651541 [Eh]
	 SCS Total Energy          =   -1814.0240742615148974 [Eh]
	-----------------------------------------------------------

  Dipole Moment: [D]
     X:     9.3004      Y:     2.2519      Z:     1.5671     Total:     9.6966

*** Psi4 exiting successfully. Buy a developer a beer!
