                               Psi4 1.3.2 release

  ==> Input File <==

--------------------------------------------------------------------------
#psi4
#
memory 32 gb

molecule  {
-4 1
  P        2.5828670     0.0826120    -0.3559070
  P       -0.1833470    -1.1435920     0.2927960
  P       -2.7088530     0.4754690    -0.2006980
  O        1.9534540     1.6068400    -0.1842610
  O        1.2509400    -0.8782220    -0.5450080
  O        3.2679280     0.0927970    -1.6978490
  O        3.3289310    -0.2934220     0.9022790
  O       -1.1849017     0.1972005    -0.2200224
  O        0.0932830    -1.0798150     1.7822090
  O       -0.7150640    -2.4305380    -0.3003910
  O       -3.2327710    -0.2685190     1.0414150
  O       -2.7128520     2.0086770    -0.0959300
  O       -3.2113930    -0.0752120    -1.5473660
  C        1.4216660     1.9681570     1.1052990
  H        1.0169430     1.1016800     1.6278780
  H        2.2027140     2.4392170     1.7103290
  H        0.6160650     2.6819120     0.9264900
units angstrom
no_reorient  #important for SAPT in psi4, default
symmetry c1  #important for SAPT in psi4, default
}

set PROPERTIES_ORIGIN ["COM"]
properties('MP2/aug-cc-pvtz', properties = ['dipole'])
--------------------------------------------------------------------------

    Molecular point group: c1
  Charge       = -4
  Multiplicity = 1
  Basis Set: AUG-CC-PVTZ
    Blend: AUG-CC-PVTZ
  Basis Set: (AUG-CC-PVTZ AUX)
    Blend: AUG-CC-PVTZ-JKFIT

    Orbital Energies [Eh]
    ---------------------

    Doubly Occupied:

       1A    -79.584498     2A    -79.557904     3A    -79.446600
       4A    -20.095015     5A    -20.062019     6A    -20.013140
       7A    -20.012311     8A    -19.991128     9A    -19.969561
      10A    -19.959923    11A    -19.901387    12A    -19.896405
      13A    -19.894976    14A    -10.818819    15A     -7.098406
      16A     -7.068330    17A     -6.963531    18A     -4.997349
      19A     -4.996446    20A     -4.995497    21A     -4.967352
      22A     -4.966297    23A     -4.965145    24A     -4.863533
      25A     -4.860790    26A     -4.860602    27A     -0.912929
      28A     -0.858103    29A     -0.819996    30A     -0.797099
      31A     -0.767671    32A     -0.755564    33A     -0.714777
      34A     -0.693724    35A     -0.644179    36A     -0.639777
      37A     -0.474572    38A     -0.310473    39A     -0.247811
      40A     -0.199572    41A     -0.173504    42A     -0.157277
      43A     -0.136908    44A     -0.104642    45A     -0.091686
      46A     -0.065128    47A     -0.060488    48A     -0.049716
      49A     -0.040721    50A     -0.025070    51A     -0.017876
      52A     -0.008875    53A      0.000871    54A      0.005675
      55A      0.026708    56A      0.034782    57A      0.043483
      58A      0.054054    59A      0.056935    60A      0.061079
      61A      0.080836    62A      0.093862    63A      0.108391
      64A      0.116976    65A      0.120721    66A      0.125776
      67A      0.168127    68A      0.172812    69A      0.191970

  @DF-RHF Final Energy: -1810.66415326502784

   => Energetics <=

    Nuclear Repulsion Energy =           1463.0090364209565905
    One-Electron Energy =               -5501.1222868721233681
    Two-Electron Energy =                2227.4490971861391699
    Total Energy =                      -1810.6641532650278350
  Basis Set: (AUG-CC-PVTZ AUX)
    Blend: AUG-CC-PVTZ-RI
    Molecular point group: c1

    Geometry (in Angstrom), charge = -4, multiplicity = 1:

       Center              X                  Y                   Z               Mass
    ------------   -----------------  -----------------  -----------------  -----------------
         P            2.609925091267     0.105620402957    -0.339318743989    30.973761998420
         P           -0.156288908733    -1.120583597043     0.309384256011    30.973761998420
         P           -2.681794908733     0.498477402957    -0.184109743989    30.973761998420
         O            1.980512091267     1.629848402957    -0.167672743989    15.994914619570
         O            1.277998091267    -0.855213597043    -0.528419743989    15.994914619570
         O            3.294986091267     0.115805402957    -1.681260743989    15.994914619570
         O            3.355989091267    -0.270413597043     0.918867256011    15.994914619570
         O           -1.157843608733     0.220208902957    -0.203434143989    15.994914619570
         O            0.120341091267    -1.056806597043     1.798797256011    15.994914619570
         O           -0.688005908733    -2.407529597043    -0.283802743989    15.994914619570
         O           -3.205712908733    -0.245510597043     1.058003256011    15.994914619570
         O           -2.685793908733     2.031685402957    -0.079341743989    15.994914619570
         O           -3.184334908733    -0.052203597043    -1.530777743989    15.994914619570
         C            1.448724091267     1.991165402957     1.121887256011    12.000000000000
         H            1.044001091267     1.124688402957     1.644466256011     1.007825032230
         H            2.229772091267     2.462225402957     1.726917256011     1.007825032230
         H            0.643123091267     2.704920402957     0.943078256011     1.007825032230

  Basis Set: AUG-CC-PVTZ
    Blend: AUG-CC-PVTZ
  Basis Set: (AUG-CC-PVTZ AUX)
    Blend: AUG-CC-PVTZ-JKFIT
	 Reference Energy          =   -1810.6641532650278350 [Eh]
	 Singles Energy            =      -0.0000000000000000 [Eh]
	 Same-Spin Energy          =      -0.9130092339019510 [Eh]
	 Opposite-Spin Energy      =      -2.5253122198126334 [Eh]
	 Correlation Energy        =      -3.4383214537145843 [Eh]
	 Total Energy              =   -1814.1024747187423145 [Eh]

	 ================> DF-SCS-MP2 Energies <==================
	-----------------------------------------------------------
	 SCS Same-Spin Scale       =       0.3333333333333333 [-]
	 SCS Opposite-Spin Scale   =       1.2000000000000000 [-]
	 SCS Same-Spin Energy      =      -0.3043364113006503 [Eh]
	 SCS Opposite-Spin Energy  =      -3.0303746637751598 [Eh]
	 SCS Correlation Energy    =      -3.3347110750758100 [Eh]
	 SCS Total Energy          =   -1813.9988643401036370 [Eh]
	-----------------------------------------------------------

  Dipole Moment: [D]
     X:    11.5240      Y:     1.5094      Z:     1.9136     Total:    11.7789

*** Psi4 exiting successfully. Buy a developer a beer!
