                               Psi4 1.3.2 release

  ==> Input File <==

--------------------------------------------------------------------------
#psi4
#
memory 32 gb

molecule  {
-4 1
  P        2.5828670     0.0826120    -0.3559070
  P       -0.1833470    -1.1435920     0.2927960
  P       -2.7088530     0.4754690    -0.2006980
  O        1.9534540     1.6068400    -0.1842610
  O        1.2509400    -0.8782220    -0.5450080
  O        3.2679280     0.0927970    -1.6978490
  O        3.3289310    -0.2934220     0.9022790
  O       -0.9911654     0.1445938    -0.1971250
  O        0.0932830    -1.0798150     1.7822090
  O       -0.7150640    -2.4305380    -0.3003910
  O       -3.2077733    -0.2768684     1.0466672
  O       -2.7128520     2.0086770    -0.0959300
  O       -3.2113930    -0.0752120    -1.5473660
  C        1.4216660     1.9681570     1.1052990
  H        1.0169430     1.1016800     1.6278780
  H        2.2027140     2.4392170     1.7103290
  H        0.6160650     2.6819120     0.9264900
units angstrom
no_reorient  #important for SAPT in psi4, default
symmetry c1  #important for SAPT in psi4, default
}

set PROPERTIES_ORIGIN ["COM"]
properties('MP2/aug-cc-pvtz', properties = ['dipole'])
--------------------------------------------------------------------------

    Molecular point group: c1
  Charge       = -4
  Multiplicity = 1
  Basis Set: AUG-CC-PVTZ
    Blend: AUG-CC-PVTZ
  Basis Set: (AUG-CC-PVTZ AUX)
    Blend: AUG-CC-PVTZ-JKFIT

    Orbital Energies [Eh]
    ---------------------

    Doubly Occupied:

       1A    -79.571965     2A    -79.523357     3A    -79.481333
       4A    -20.085337     5A    -20.037250     6A    -20.002211
       7A    -20.002113     8A    -19.990932     9A    -19.946481
      10A    -19.942757    11A    -19.926175    12A    -19.921515
      13A    -19.916516    14A    -10.811312    15A     -7.085787
      16A     -7.036627    17A     -6.994767    18A     -4.984740
      19A     -4.983789    20A     -4.982975    21A     -4.935871
      22A     -4.934611    23A     -4.933565    24A     -4.894281
      25A     -4.892033    26A     -4.891854    27A     -0.901514
      28A     -0.845858    29A     -0.807935    30A     -0.778409
      31A     -0.757064    32A     -0.741035    33A     -0.713897
      34A     -0.697046    35A     -0.665078    36A     -0.659875
      37A     -0.466455    38A     -0.293322    39A     -0.235440
      40A     -0.185556    41A     -0.164207    42A     -0.148601
      43A     -0.125068    44A     -0.097819    45A     -0.082271
      46A     -0.065119    47A     -0.051955    48A     -0.043863
      49A     -0.032404    50A     -0.016178    51A     -0.006472
      52A      0.000481    53A      0.010049    54A      0.015046
      55A      0.021975    56A      0.037626    57A      0.047855
      58A      0.054146    59A      0.068243    60A      0.072083
      61A      0.091902    62A      0.099723    63A      0.101731
      64A      0.103935    65A      0.115620    66A      0.127354
      67A      0.143824    68A      0.149836    69A      0.170804

  @DF-RHF Final Energy: -1810.68978134941608

   => Energetics <=

    Nuclear Repulsion Energy =           1464.0287235393743686
    One-Electron Energy =               -5503.7162841620265681
    Two-Electron Energy =                2228.9977792732361195
    Total Energy =                      -1810.6897813494160800
  Basis Set: (AUG-CC-PVTZ AUX)
    Blend: AUG-CC-PVTZ-RI
    Molecular point group: c1

    Geometry (in Angstrom), charge = -4, multiplicity = 1:

       Center              X                  Y                   Z               Mass
    ------------   -----------------  -----------------  -----------------  -----------------
         P            2.596865325594     0.109259857191    -0.340999448314    30.973761998420
         P           -0.169348674406    -1.116944142809     0.307703551686    30.973761998420
         P           -2.694854674406     0.502116857191    -0.185790448314    30.973761998420
         O            1.967452325594     1.633487857191    -0.169353448314    15.994914619570
         O            1.264938325594    -0.851574142809    -0.530100448314    15.994914619570
         O            3.281926325594     0.119444857191    -1.682941448314    15.994914619570
         O            3.342929325594    -0.266774142809     0.917186551686    15.994914619570
         O           -0.977167074406     0.171241657191    -0.182217448314    15.994914619570
         O            0.107281325594    -1.053167142809     1.797116551686    15.994914619570
         O           -0.701065674406    -2.403890142809    -0.285483448314    15.994914619570
         O           -3.193774974406    -0.250220542809     1.061574751686    15.994914619570
         O           -2.698853674406     2.035324857191    -0.081022448314    15.994914619570
         O           -3.197394674406    -0.048564142809    -1.532458448314    15.994914619570
         C            1.435664325594     1.994804857191     1.120206551686    12.000000000000
         H            1.030941325594     1.128327857191     1.642785551686     1.007825032230
         H            2.216712325594     2.465864857191     1.725236551686     1.007825032230
         H            0.630063325594     2.708559857191     0.941397551686     1.007825032230

  Basis Set: AUG-CC-PVTZ
    Blend: AUG-CC-PVTZ
  Basis Set: (AUG-CC-PVTZ AUX)
    Blend: AUG-CC-PVTZ-JKFIT
	 Reference Energy          =   -1810.6897813494160800 [Eh]
	 Singles Energy            =      -0.0000000000000000 [Eh]
	 Same-Spin Energy          =      -0.9127678441271346 [Eh]
	 Opposite-Spin Energy      =      -2.5250514942854716 [Eh]
	 Correlation Energy        =      -3.4378193384126061 [Eh]
	 Total Energy              =   -1814.1276006878285898 [Eh]

	 ================> DF-SCS-MP2 Energies <==================
	-----------------------------------------------------------
	 SCS Same-Spin Scale       =       0.3333333333333333 [-]
	 SCS Opposite-Spin Scale   =       1.2000000000000000 [-]
	 SCS Same-Spin Energy      =      -0.3042559480423782 [Eh]
	 SCS Opposite-Spin Energy  =      -3.0300617931425657 [Eh]
	 SCS Correlation Energy    =      -3.3343177411849441 [Eh]
	 SCS Total Energy          =   -1814.0240990906011120 [Eh]
	-----------------------------------------------------------

  Dipole Moment: [D]
     X:     9.0900      Y:     2.4622      Z:     1.5290     Total:     9.5409

*** Psi4 exiting successfully. Buy a developer a beer!
