                               Psi4 1.3.2 release

  ==> Input File <==

--------------------------------------------------------------------------
#psi4
#
memory 32 gb

molecule  {
-4 1
  P        2.5828670     0.0826120    -0.3559070
  P       -0.1833470    -1.1435920     0.2927960
  P       -2.7088530     0.4754690    -0.2006980
  O        1.9718557     1.6792440    -0.1947526
  O        1.2509400    -0.8782220    -0.5450080
  O        3.2679280     0.0927970    -1.6978490
  O        3.3289310    -0.2934220     0.9022790
  O       -0.9881700     0.1612780    -0.2225170
  O        0.0932830    -1.0798150     1.7822090
  O       -0.7150640    -2.4305380    -0.3003910
  O       -3.2327710    -0.2685190     1.0414150
  O       -2.7128520     2.0086770    -0.0959300
  O       -3.2113930    -0.0752120    -1.5473660
  C        1.4216660     1.9681570     1.1052990
  H        1.0032232     1.1361226     1.6712462
  H        2.2027140     2.4392170     1.7103290
  H        0.6160650     2.6819120     0.9264900
units angstrom
no_reorient  #important for SAPT in psi4, default
symmetry c1  #important for SAPT in psi4, default
}

set PROPERTIES_ORIGIN ["COM"]
properties('MP2/aug-cc-pvtz', properties = ['dipole'])
--------------------------------------------------------------------------

    Molecular point group: c1
  Charge       = -4
  Multiplicity = 1
  Basis Set: AUG-CC-PVTZ
    Blend: AUG-CC-PVTZ
  Basis Set: (AUG-CC-PVTZ AUX)
    Blend: AUG-CC-PVTZ-JKFIT

    Orbital Energies [Eh]
    ---------------------

    Doubly Occupied:

       1A    -79.578974     2A    -79.528679     3A    -79.480187
       4A    -20.087334     5A    -20.044311     6A    -20.007473
       7A    -20.005125     8A    -19.993927     9A    -19.951187
      10A    -19.946991    11A    -19.923881    12A    -19.919542
      13A    -19.917740    14A    -10.807617    15A     -7.092085
      16A     -7.041640    17A     -6.993696    18A     -4.990886
      19A     -4.990109    20A     -4.989209    21A     -4.940947
      22A     -4.939503    23A     -4.938572    24A     -4.893164
      25A     -4.890962    26A     -4.890819    27A     -0.892778
      28A     -0.846803    29A     -0.808612    30A     -0.780421
      31A     -0.760594    32A     -0.743505    33A     -0.714247
      34A     -0.701013    35A     -0.663559    36A     -0.659413
      37A     -0.459166    38A     -0.296059    39A     -0.232167
      40A     -0.182315    41A     -0.158864    42A     -0.139554
      43A     -0.128016    44A     -0.099764    45A     -0.084030
      46A     -0.066762    47A     -0.052184    48A     -0.048402
      49A     -0.031957    50A     -0.017514    51A     -0.006034
      52A     -0.000168    53A      0.011403    54A      0.013431
      55A      0.021307    56A      0.036558    57A      0.046368
      58A      0.050122    59A      0.064161    60A      0.068939
      61A      0.089499    62A      0.099998    63A      0.101838
      64A      0.103440    65A      0.112632    66A      0.124093
      67A      0.144259    68A      0.150052    69A      0.171832

  @DF-RHF Final Energy: -1810.68315826232015

   => Energetics <=

    Nuclear Repulsion Energy =           1459.6782074660975468
    One-Electron Energy =               -5494.8256752508614227
    Two-Electron Energy =                2224.4643095224437275
    Total Energy =                      -1810.6831582623199211
  Basis Set: (AUG-CC-PVTZ AUX)
    Blend: AUG-CC-PVTZ-RI
    Molecular point group: c1

    Geometry (in Angstrom), charge = -4, multiplicity = 1:

       Center              X                  Y                   Z               Mass
    ------------   -----------------  -----------------  -----------------  -----------------
         P            2.597131917874     0.103312658827    -0.338706540433    30.973761998420
         P           -0.169082082126    -1.122891341173     0.309996459567    30.973761998420
         P           -2.694588082126     0.496169658827    -0.183497540433    30.973761998420
         O            1.986120617874     1.699944658827    -0.177552140433    15.994914619570
         O            1.265204917874    -0.857521341173    -0.527807540433    15.994914619570
         O            3.282192917874     0.113497658827    -1.680648540433    15.994914619570
         O            3.343195917874    -0.272721341173     0.919479459567    15.994914619570
         O           -0.973905082126     0.181978658827    -0.205316540433    15.994914619570
         O            0.107547917874    -1.059114341173     1.799409459567    15.994914619570
         O           -0.700799082126    -2.409837341173    -0.283190540433    15.994914619570
         O           -3.218506082126    -0.247818341173     1.058615459567    15.994914619570
         O           -2.698587082126     2.029377658827    -0.078729540433    15.994914619570
         O           -3.197128082126    -0.054511341173    -1.530165540433    15.994914619570
         C            1.435930917874     1.988857658827     1.122499459567    12.000000000000
         H            1.017488117874     1.156823258827     1.688446659567     1.007825032230
         H            2.216978917874     2.459917658827     1.727529459567     1.007825032230
         H            0.630329917874     2.702612658827     0.943690459567     1.007825032230

  Basis Set: AUG-CC-PVTZ
    Blend: AUG-CC-PVTZ
  Basis Set: (AUG-CC-PVTZ AUX)
    Blend: AUG-CC-PVTZ-JKFIT
	 Reference Energy          =   -1810.6831582623201484 [Eh]
	 Singles Energy            =      -0.0000000000000000 [Eh]
	 Same-Spin Energy          =      -0.9137050598793607 [Eh]
	 Opposite-Spin Energy      =      -2.5278786395030544 [Eh]
	 Correlation Energy        =      -3.4415836993824152 [Eh]
	 Total Energy              =   -1814.1247419617025116 [Eh]

	 ================> DF-SCS-MP2 Energies <==================
	-----------------------------------------------------------
	 SCS Same-Spin Scale       =       0.3333333333333333 [-]
	 SCS Opposite-Spin Scale   =       1.2000000000000000 [-]
	 SCS Same-Spin Energy      =      -0.3045683532931202 [Eh]
	 SCS Opposite-Spin Energy  =      -3.0334543674036651 [Eh]
	 SCS Correlation Energy    =      -3.3380227206967854 [Eh]
	 SCS Total Energy          =   -1814.0211809830168477 [Eh]
	-----------------------------------------------------------

  Dipole Moment: [D]
     X:     9.2807      Y:     2.0346      Z:     1.5630     Total:     9.6288

*** Psi4 exiting successfully. Buy a developer a beer!
