                               Psi4 1.3.2 release

  ==> Input File <==

--------------------------------------------------------------------------
#psi4
#
memory 32 gb

molecule  {
-4 1
  P        2.5950969     0.0949766    -0.4111035
  P       -0.1833470    -1.1435920     0.2927960
  P       -2.7088530     0.4754690    -0.2006980
  O        1.9534540     1.6068400    -0.1842610
  O        1.2509400    -0.8782220    -0.5450080
  O        3.2679280     0.0927970    -1.6978490
  O        3.3289310    -0.2934220     0.9022790
  O       -0.9881700     0.1612780    -0.2225170
  O        0.0932830    -1.0798150     1.7822090
  O       -0.7150640    -2.4305380    -0.3003910
  O       -3.2327710    -0.2685190     1.0414150
  O       -2.7128520     2.0086770    -0.0959300
  O       -3.2113930    -0.0752120    -1.5473660
  C        1.4101500     2.0135123     1.0868613
  H        1.0169430     1.1016800     1.6278780
  H        2.2027140     2.4392170     1.7103290
  H        0.6160650     2.6819120     0.9264900
units angstrom
no_reorient  #important for SAPT in psi4, default
symmetry c1  #important for SAPT in psi4, default
}

set PROPERTIES_ORIGIN ["COM"]
properties('MP2/aug-cc-pvtz', properties = ['dipole'])
--------------------------------------------------------------------------

    Molecular point group: c1
  Charge       = -4
  Multiplicity = 1
  Basis Set: AUG-CC-PVTZ
    Blend: AUG-CC-PVTZ
  Basis Set: (AUG-CC-PVTZ AUX)
    Blend: AUG-CC-PVTZ-JKFIT

    Orbital Energies [Eh]
    ---------------------

    Doubly Occupied:

       1A    -79.572367     2A    -79.524646     3A    -79.479086
       4A    -20.082485     5A    -20.033689     6A    -20.013936
       7A    -19.994907     8A    -19.991316     9A    -19.946881
      10A    -19.943432    11A    -19.923471    12A    -19.918659
      13A    -19.916493    14A    -10.810446    15A     -7.086696
      16A     -7.037478    17A     -6.992585    18A     -4.985573
      19A     -4.984881    20A     -4.983746    21A     -4.936760
      22A     -4.935386    23A     -4.934435    24A     -4.892038
      25A     -4.889870    26A     -4.889717    27A     -0.900434
      28A     -0.842101    29A     -0.817450    30A     -0.782642
      31A     -0.746923    32A     -0.737666    33A     -0.712001
      34A     -0.697047    35A     -0.662903    36A     -0.658320
      37A     -0.468077    38A     -0.290533    39A     -0.231364
      40A     -0.183884    41A     -0.158532    42A     -0.156645
      43A     -0.125832    44A     -0.098388    45A     -0.085453
      46A     -0.061885    47A     -0.054651    48A     -0.037113
      49A     -0.028613    50A     -0.016373    51A     -0.007031
      52A      0.001008    53A      0.008388    54A      0.015298
      55A      0.020918    56A      0.029734    57A      0.048819
      58A      0.064061    59A      0.071059    60A      0.072888
      61A      0.092471    62A      0.101550    63A      0.103395
      64A      0.105074    65A      0.116471    66A      0.127689
      67A      0.145288    68A      0.151384    69A      0.172689

  @DF-RHF Final Energy: -1810.67993936152675

   => Energetics <=

    Nuclear Repulsion Energy =           1461.3409705273916188
    One-Electron Energy =               -5498.4125073191235060
    Two-Electron Energy =                2226.3915974302049108
    Total Energy =                      -1810.6799393615269764
  Basis Set: (AUG-CC-PVTZ AUX)
    Blend: AUG-CC-PVTZ-RI
    Molecular point group: c1

    Geometry (in Angstrom), charge = -4, multiplicity = 1:

       Center              X                  Y                   Z               Mass
    ------------   -----------------  -----------------  -----------------  -----------------
         P            2.609510729251     0.116668569669    -0.387158613194    30.973761998420
         P           -0.168933170749    -1.121900030331     0.316740886806    30.973761998420
         P           -2.694439170749     0.497160969669    -0.176753113194    30.973761998420
         O            1.967867829251     1.628531969669    -0.160316113194    15.994914619570
         O            1.265353829251    -0.856530030331    -0.521063113194    15.994914619570
         O            3.282341829251     0.114488969669    -1.673904113194    15.994914619570
         O            3.343344829251    -0.271730030331     0.926223886806    15.994914619570
         O           -0.973756170749     0.182969969669    -0.198572113194    15.994914619570
         O            0.107696829251    -1.058123030331     1.806153886806    15.994914619570
         O           -0.700650170749    -2.408846030331    -0.276446113194    15.994914619570
         O           -3.218357170749    -0.246827030331     1.065359886806    15.994914619570
         O           -2.698438170749     2.030368969669    -0.071985113194    15.994914619570
         O           -3.196979170749    -0.053520030331    -1.523421113194    15.994914619570
         C            1.424563829251     2.035204269669     1.110806186806    12.000000000000
         H            1.031356829251     1.123371969669     1.651822886806     1.007825032230
         H            2.217127829251     2.460908969669     1.734273886806     1.007825032230
         H            0.630478829251     2.703603969669     0.950434886806     1.007825032230

  Basis Set: AUG-CC-PVTZ
    Blend: AUG-CC-PVTZ
  Basis Set: (AUG-CC-PVTZ AUX)
    Blend: AUG-CC-PVTZ-JKFIT
	 Reference Energy          =   -1810.6799393615267491 [Eh]
	 Singles Energy            =      -0.0000000000000000 [Eh]
	 Same-Spin Energy          =      -0.9128518518106632 [Eh]
	 Opposite-Spin Energy      =      -2.5252974471204346 [Eh]
	 Correlation Energy        =      -3.4381492989310978 [Eh]
	 Total Energy              =   -1814.1180886604579428 [Eh]

	 ================> DF-SCS-MP2 Energies <==================
	-----------------------------------------------------------
	 SCS Same-Spin Scale       =       0.3333333333333333 [-]
	 SCS Opposite-Spin Scale   =       1.2000000000000000 [-]
	 SCS Same-Spin Energy      =      -0.3042839506035544 [Eh]
	 SCS Opposite-Spin Energy  =      -3.0303569365445213 [Eh]
	 SCS Correlation Energy    =      -3.3346408871480757 [Eh]
	 SCS Total Energy          =   -1814.0145802486747471 [Eh]
	-----------------------------------------------------------

  Dipole Moment: [D]
     X:     9.4165      Y:     2.5445      Z:     0.8556     Total:     9.7917

*** Psi4 exiting successfully. Buy a developer a beer!
