                               Psi4 1.4a3.dev225

  ==> Input File <==

--------------------------------------------------------------------------
#psi4
#
memory 32 gb

molecule  {
-4 1
  P       -2.5202440    -0.2449420     0.3712220
  P        0.3565170    -0.5960480    -0.3589090
  P        3.1750170     0.3881900     0.1554910
  O       -2.7927880     1.3311510    -0.1150520
  O       -0.9169740    -0.0836090     0.6422800
  O       -3.1856250    -0.4605710     1.7148300
  O       -2.8507450    -1.1694890    -0.7786080
  O        1.4898640     0.0841660     0.5723090
  O        0.2127210     0.0849480    -1.7048820
  O        0.4027150    -2.1095660    -0.2874290
  O        3.5327910    -0.6840640    -0.8835370
  O        3.1643710     1.8286230    -0.3742880
  O        3.8338960     0.2099350     1.5311200
  C       -4.1398760     1.5889580    -0.5252390
  H       -4.4239115     0.9429693    -1.3345407
  H       -4.8386320     1.4471050     0.3059850
  H       -4.1840730     2.6280350    -0.8559160
units angstrom
no_reorient  #important for SAPT in psi4, default
symmetry c1  #important for SAPT in psi4, default
}

set PROPERTIES_ORIGIN ["COM"]
properties('MP2/aug-cc-pvtz', properties = ['dipole'])
--------------------------------------------------------------------------

    Molecular point group: c1
  Charge       = -4
  Multiplicity = 1
  Basis Set: AUG-CC-PVTZ
    Blend: AUG-CC-PVTZ
  Basis Set: (AUG-CC-PVTZ AUX)
    Blend: AUG-CC-PVTZ-JKFIT

    Orbital Energies [Eh]
    ---------------------

    Doubly Occupied:

       1A    -79.580619     2A    -79.517170     3A    -79.475414
       4A    -20.118615     5A    -20.041712     6A    -20.014957
       7A    -20.004994     8A    -19.984239     9A    -19.936901
      10A    -19.935210    11A    -19.921951    12A    -19.917022
      13A    -19.913186    14A    -10.880935    15A     -7.094893
      16A     -7.030234    17A     -6.989171    18A     -4.994037
      19A     -4.992731    20A     -4.991826    21A     -4.929635
      22A     -4.928054    23A     -4.926912    24A     -4.888566
      25A     -4.886459    26A     -4.886330    27A     -0.931061
      28A     -0.853403    29A     -0.806949    30A     -0.777792
      31A     -0.761190    32A     -0.736462    33A     -0.705895
      34A     -0.686940    35A     -0.661958    36A     -0.657248
      37A     -0.530389    38A     -0.308865    39A     -0.252562
      40A     -0.222842    41A     -0.196242    42A     -0.165172
      43A     -0.140123    44A     -0.108150    45A     -0.094402
      46A     -0.079586    47A     -0.062976    48A     -0.051737
      49A     -0.035115    50A     -0.025662    51A     -0.012504
      52A     -0.009704    53A      0.009536    54A      0.011728
      55A      0.023027    56A      0.034410    57A      0.048158
      58A      0.054803    59A      0.062151    60A      0.081243
      61A      0.097474    62A      0.103385    63A      0.107108
      64A      0.108188    65A      0.124873    66A      0.135320
      67A      0.148014    68A      0.154384    69A      0.174551

  @DF-RHF Final Energy: -1810.67551615688058

   => Energetics <=

    Nuclear Repulsion Energy =           1425.7400724381707278
    One-Electron Energy =               -5426.4744814701743962
    Two-Electron Energy =                2190.0588928751230924
    Total Energy =                      -1810.6755161568808035
  Basis Set: (AUG-CC-PVTZ AUX)
    Blend: AUG-CC-PVTZ-RI
    Molecular point group: c1

    Geometry (in Angstrom), charge = -4, multiplicity = 1:

       Center              X                  Y                   Z               Mass
    ------------   -----------------  -----------------  -----------------  -----------------
         P           -2.573705556144    -0.224819339311     0.363525995754    30.973761998420
         P            0.303055443856    -0.575925339311    -0.366605004246    30.973761998420
         P            3.121555443856     0.408312660689     0.147794995754    30.973761998420
         O           -2.846249556144     1.351273660689    -0.122748004246    15.994914619570
         O           -0.970435556144    -0.063486339311     0.634583995754    15.994914619570
         O           -3.239086556144    -0.440448339311     1.707133995754    15.994914619570
         O           -2.904206556144    -1.149366339311    -0.786304004246    15.994914619570
         O            1.436402443856     0.104288660689     0.564612995754    15.994914619570
         O            0.159259443856     0.105070660689    -1.712578004246    15.994914619570
         O            0.349253443856    -2.089443339311    -0.295125004246    15.994914619570
         O            3.479329443856    -0.663941339311    -0.891233004246    15.994914619570
         O            3.110909443856     1.848745660689    -0.381984004246    15.994914619570
         O            3.780434443856     0.230057660689     1.523423995754    15.994914619570
         C           -4.193337556144     1.609080660689    -0.532935004246    12.000000000000
         H           -4.477373056144     0.963091960689    -1.342236704246     1.007825032230
         H           -4.892093556144     1.467227660689     0.298288995754     1.007825032230
         H           -4.237534556144     2.648157660689    -0.863612004246     1.007825032230

  Basis Set: AUG-CC-PVTZ
    Blend: AUG-CC-PVTZ
  Basis Set: (AUG-CC-PVTZ AUX)
    Blend: AUG-CC-PVTZ-JKFIT
	 Reference Energy          =   -1810.6755161568805761 [Eh]
	 Singles Energy            =      -0.0000000000000000 [Eh]
	 Same-Spin Energy          =      -0.9123514886722408 [Eh]
	 Opposite-Spin Energy      =      -2.5250895955175925 [Eh]
	 Correlation Energy        =      -3.4374410841898335 [Eh]
	 Total Energy              =   -1814.1129572410704895 [Eh]

	 ================> DF-SCS-MP2 Energies <==================
	-----------------------------------------------------------
	 SCS Same-Spin Scale       =       0.3333333333333333 [-]
	 SCS Opposite-Spin Scale   =       1.2000000000000000 [-]
	 SCS Same-Spin Energy      =      -0.3041171628907469 [Eh]
	 SCS Opposite-Spin Energy  =      -3.0301075146211107 [Eh]
	 SCS Correlation Energy    =      -3.3342246775118576 [Eh]
	 SCS Total Energy          =   -1814.0097408343924599 [Eh]
	-----------------------------------------------------------

  Dipole Moment: [D]
     X:   -14.9983      Y:     2.7154      Z:    -0.0109     Total:    15.2422

*** Psi4 exiting successfully. Buy a developer a beer!
