                               Psi4 1.3.2 release

  ==> Input File <==

--------------------------------------------------------------------------
#psi4
#
memory 32 gb

molecule  {
-4 1
  P        2.5828670     0.0826120    -0.3559070
  P       -0.1833470    -1.1435920     0.2927960
  P       -2.7088530     0.4754690    -0.2006980
  O        1.9534540     1.6068400    -0.1842610
  O        1.2509400    -0.8782220    -0.5450080
  O        3.2679280     0.0927970    -1.6978490
  O        3.3289310    -0.2934220     0.9022790
  O       -0.9881700     0.1612780    -0.2225170
  O        0.0932830    -1.0798150     1.7822090
  O       -0.7150640    -2.4305380    -0.3003910
  O       -3.2305585    -0.2802506     1.0352487
  O       -2.7077912     2.0094784    -0.1083236
  O       -3.2113930    -0.0752120    -1.5473660
  C        1.4216660     1.9681570     1.1052990
  H        1.0169430     1.1016800     1.6278780
  H        2.2027140     2.4392170     1.7103290
  H        0.6160650     2.6819120     0.9264900
units angstrom
no_reorient  #important for SAPT in psi4, default
symmetry c1  #important for SAPT in psi4, default
}

set PROPERTIES_ORIGIN ["COM"]
properties('MP2/aug-cc-pvtz', properties = ['dipole'])
--------------------------------------------------------------------------

    Molecular point group: c1
  Charge       = -4
  Multiplicity = 1
  Basis Set: AUG-CC-PVTZ
    Blend: AUG-CC-PVTZ
  Basis Set: (AUG-CC-PVTZ AUX)
    Blend: AUG-CC-PVTZ-JKFIT

    Orbital Energies [Eh]
    ---------------------

    Doubly Occupied:

       1A    -79.572423     2A    -79.526596     3A    -79.479858
       4A    -20.085558     5A    -20.038086     6A    -20.002733
       7A    -20.002420     8A    -19.992432     9A    -19.949929
      10A    -19.944889    11A    -19.924686    12A    -19.918171
      13A    -19.918069    14A    -10.811682    15A     -7.086245
      16A     -7.039533    17A     -6.993366    18A     -4.985196
      19A     -4.984249    20A     -4.983432    21A     -4.938812
      22A     -4.937419    23A     -4.936494    24A     -4.892836
      25A     -4.890624    26A     -4.890503    27A     -0.901810
      28A     -0.845436    29A     -0.806453    30A     -0.777890
      31A     -0.757496    32A     -0.741903    33A     -0.713273
      34A     -0.699336    35A     -0.664223    36A     -0.658598
      37A     -0.466781    38A     -0.293616    39A     -0.234437
      40A     -0.183882    41A     -0.163906    42A     -0.148715
      43A     -0.125856    44A     -0.098764    45A     -0.082668
      46A     -0.064921    47A     -0.051746    48A     -0.043938
      49A     -0.031644    50A     -0.016114    51A     -0.006542
      52A      0.000388    53A      0.009745    54A      0.014827
      55A      0.021449    56A      0.037548    57A      0.047863
      58A      0.053623    59A      0.067167    60A      0.071061
      61A      0.091133    62A      0.100851    63A      0.102328
      64A      0.103680    65A      0.114190    66A      0.125570
      67A      0.143779    68A      0.151055    69A      0.171950

  @DF-RHF Final Energy: -1810.68874379127601

   => Energetics <=

    Nuclear Repulsion Energy =           1463.0659347058774529
    One-Electron Energy =               -5501.7533892257170010
    Two-Electron Energy =                2227.9987107285637649
    Total Energy =                      -1810.6887437912760106
  Basis Set: (AUG-CC-PVTZ AUX)
    Blend: AUG-CC-PVTZ-RI
    Molecular point group: c1

    Geometry (in Angstrom), charge = -4, multiplicity = 1:

       Center              X                  Y                   Z               Mass
    ------------   -----------------  -----------------  -----------------  -----------------
         P            2.597744737522     0.108417797432    -0.338061660790    30.973761998420
         P           -0.168469262478    -1.117786202568     0.310641339210    30.973761998420
         P           -2.693975262478     0.501274797432    -0.182852660790    30.973761998420
         O            1.968331737522     1.632645797432    -0.166415660790    15.994914619570
         O            1.265817737522    -0.852416202568    -0.527162660790    15.994914619570
         O            3.282805737522     0.118602797432    -1.680003660790    15.994914619570
         O            3.343808737522    -0.267616202568     0.920124339210    15.994914619570
         O           -0.973292262478     0.187083797432    -0.204671660790    15.994914619570
         O            0.108160737522    -1.054009202568     1.800054339210    15.994914619570
         O           -0.700186262478    -2.404732202568    -0.282545660790    15.994914619570
         O           -3.215680762478    -0.254444802568     1.053094039210    15.994914619570
         O           -2.692913462478     2.035284197432    -0.090478260790    15.994914619570
         O           -3.196515262478    -0.049406202568    -1.529520660790    15.994914619570
         C            1.436543737522     1.993962797432     1.123144339210    12.000000000000
         H            1.031820737522     1.127485797432     1.645723339210     1.007825032230
         H            2.217591737522     2.465022797432     1.728174339210     1.007825032230
         H            0.630942737522     2.707717797432     0.944335339210     1.007825032230

  Basis Set: AUG-CC-PVTZ
    Blend: AUG-CC-PVTZ
  Basis Set: (AUG-CC-PVTZ AUX)
    Blend: AUG-CC-PVTZ-JKFIT
	 Reference Energy          =   -1810.6887437912760106 [Eh]
	 Singles Energy            =      -0.0000000000000000 [Eh]
	 Same-Spin Energy          =      -0.9130382374231012 [Eh]
	 Opposite-Spin Energy      =      -2.5258177539604922 [Eh]
	 Correlation Energy        =      -3.4388559913835932 [Eh]
	 Total Energy              =   -1814.1275997826596722 [Eh]

	 ================> DF-SCS-MP2 Energies <==================
	-----------------------------------------------------------
	 SCS Same-Spin Scale       =       0.3333333333333333 [-]
	 SCS Opposite-Spin Scale   =       1.2000000000000000 [-]
	 SCS Same-Spin Energy      =      -0.3043460791410337 [Eh]
	 SCS Opposite-Spin Energy  =      -3.0309813047525904 [Eh]
	 SCS Correlation Energy    =      -3.3353273838936239 [Eh]
	 SCS Total Energy          =   -1814.0240711751696381 [Eh]
	-----------------------------------------------------------

  Dipole Moment: [D]
     X:     9.2331      Y:     2.3681      Z:     1.6570     Total:     9.6749

*** Psi4 exiting successfully. Buy a developer a beer!
