                               Psi4 1.3.2 release

  ==> Input File <==

--------------------------------------------------------------------------
#psi4
#
memory 32 gb

molecule  {
-4 1
  P        2.5828670     0.0826120    -0.3559070
  P       -0.1833470    -1.1435920     0.2927960
  P       -2.7088530     0.4754690    -0.2006980
  O        1.8741412     1.5725446    -0.1924975
  O        1.2016717    -0.8074120    -0.5379712
  O        3.2679280     0.0927970    -1.6978490
  O        3.3289310    -0.2934220     0.9022790
  O       -0.9881700     0.1612780    -0.2225170
  O        0.0932830    -1.0798150     1.7822090
  O       -0.7150640    -2.4305380    -0.3003910
  O       -3.2327710    -0.2685190     1.0414150
  O       -2.7128520     2.0086770    -0.0959300
  O       -3.2113930    -0.0752120    -1.5473660
  C        1.4216660     1.9681570     1.1052990
  H        1.0169430     1.1016800     1.6278780
  H        2.2027140     2.4392170     1.7103290
  H        0.6160650     2.6819120     0.9264900
units angstrom
no_reorient  #important for SAPT in psi4, default
symmetry c1  #important for SAPT in psi4, default
}

set PROPERTIES_ORIGIN ["COM"]
properties('MP2/aug-cc-pvtz', properties = ['dipole'])
--------------------------------------------------------------------------

    Molecular point group: c1
  Charge       = -4
  Multiplicity = 1
  Basis Set: AUG-CC-PVTZ
    Blend: AUG-CC-PVTZ
  Basis Set: (AUG-CC-PVTZ AUX)
    Blend: AUG-CC-PVTZ-JKFIT

    Orbital Energies [Eh]
    ---------------------

    Doubly Occupied:

       1A    -79.576263     2A    -79.521761     3A    -79.476200
       4A    -20.081046     5A    -20.033504     6A    -20.009117
       7A    -20.008405     8A    -19.985997     9A    -19.946559
      10A    -19.943851    11A    -19.920903    12A    -19.916424
      13A    -19.914440    14A    -10.809097    15A     -7.089864
      16A     -7.035045    17A     -6.989701    18A     -4.988950
      19A     -4.987750    20A     -4.987138    21A     -4.934437
      22A     -4.932913    23A     -4.932049    24A     -4.889120
      25A     -4.887016    26A     -4.886869    27A     -0.904304
      28A     -0.846603    29A     -0.807393    30A     -0.778058
      31A     -0.762578    32A     -0.739930    33A     -0.709750
      34A     -0.697354    35A     -0.660500    36A     -0.656207
      37A     -0.465189    38A     -0.300854    39A     -0.232056
      40A     -0.182309    41A     -0.164234    42A     -0.145925
      43A     -0.130493    44A     -0.098472    45A     -0.084559
      46A     -0.064336    47A     -0.051933    48A     -0.038806
      49A     -0.028970    50A     -0.014502    51A     -0.010386
      52A      0.002547    53A      0.011261    54A      0.014383
      55A      0.023777    56A      0.039611    57A      0.048292
      58A      0.051090    59A      0.063006    60A      0.070994
      61A      0.093371    62A      0.103318    63A      0.105471
      64A      0.107684    65A      0.116838    66A      0.127982
      67A      0.147700    68A      0.153703    69A      0.174887

  @DF-RHF Final Energy: -1810.68588078744051

   => Energetics <=

    Nuclear Repulsion Energy =           1466.7064152534715049
    One-Electron Energy =               -5509.1761842869418615
    Two-Electron Energy =                2231.7838882460300738
    Total Energy =                      -1810.6858807874405102
  Basis Set: (AUG-CC-PVTZ AUX)
    Blend: AUG-CC-PVTZ-RI
    Molecular point group: c1

    Geometry (in Angstrom), charge = -4, multiplicity = 1:

       Center              X                  Y                   Z               Mass
    ------------   -----------------  -----------------  -----------------  -----------------
         P            2.605856081116     0.105585050944    -0.339098171548    30.973761998420
         P           -0.160357918884    -1.120618949056     0.309604828452    30.973761998420
         P           -2.685863918884     0.498442050944    -0.183889171548    30.973761998420
         O            1.897130281116     1.595517650944    -0.175688671548    15.994914619570
         O            1.224660781116    -0.784438949056    -0.521162371548    15.994914619570
         O            3.290917081116     0.115770050944    -1.681040171548    15.994914619570
         O            3.351920081116    -0.270448949056     0.919087828452    15.994914619570
         O           -0.965180918884     0.184251050944    -0.205708171548    15.994914619570
         O            0.116272081116    -1.056841949056     1.799017828452    15.994914619570
         O           -0.692074918884    -2.407564949056    -0.283582171548    15.994914619570
         O           -3.209781918884    -0.245545949056     1.058223828452    15.994914619570
         O           -2.689862918884     2.031650050944    -0.079121171548    15.994914619570
         O           -3.188403918884    -0.052238949056    -1.530557171548    15.994914619570
         C            1.444655081116     1.991130050944     1.122107828452    12.000000000000
         H            1.039932081116     1.124653050944     1.644686828452     1.007825032230
         H            2.225703081116     2.462190050944     1.727137828452     1.007825032230
         H            0.639054081116     2.704885050944     0.943298828452     1.007825032230

  Basis Set: AUG-CC-PVTZ
    Blend: AUG-CC-PVTZ
  Basis Set: (AUG-CC-PVTZ AUX)
    Blend: AUG-CC-PVTZ-JKFIT
	 Reference Energy          =   -1810.6858807874405102 [Eh]
	 Singles Energy            =      -0.0000000000000000 [Eh]
	 Same-Spin Energy          =      -0.9130340009766430 [Eh]
	 Opposite-Spin Energy      =      -2.5252230964483950 [Eh]
	 Correlation Energy        =      -3.4382570974250379 [Eh]
	 Total Energy              =   -1814.1241378848656041 [Eh]

	 ================> DF-SCS-MP2 Energies <==================
	-----------------------------------------------------------
	 SCS Same-Spin Scale       =       0.3333333333333333 [-]
	 SCS Opposite-Spin Scale   =       1.2000000000000000 [-]
	 SCS Same-Spin Energy      =      -0.3043446669922143 [Eh]
	 SCS Opposite-Spin Energy  =      -3.0302677157380740 [Eh]
	 SCS Correlation Energy    =      -3.3346123827302883 [Eh]
	 SCS Total Energy          =   -1814.0204931701707665 [Eh]
	-----------------------------------------------------------

  Dipole Moment: [D]
     X:     9.7444      Y:     2.3084      Z:     1.4965     Total:    10.1253

*** Psi4 exiting successfully. Buy a developer a beer!
