                               Psi4 1.3.2 release

  ==> Input File <==

--------------------------------------------------------------------------
#psi4
#
memory 32 gb

molecule  {
-4 1
  P        2.5828670     0.0826120    -0.3559070
  P       -0.1833470    -1.1435920     0.2927960
  P       -2.7088530     0.4754690    -0.2006980
  O        1.9534540     1.6068400    -0.1842610
  O        1.2437196    -0.8796869    -0.5577044
  O        3.2679280     0.0927970    -1.6978490
  O        3.3289310    -0.2934220     0.9022790
  O       -0.9881700     0.1612780    -0.2225170
  O        0.0804984    -1.0822189     1.7846276
  O       -0.7150640    -2.4305380    -0.3003910
  O       -3.2327710    -0.2685190     1.0414150
  O       -2.7128520     2.0086770    -0.0959300
  O       -3.2113930    -0.0752120    -1.5473660
  C        1.4216660     1.9681570     1.1052990
  H        1.0169430     1.1016800     1.6278780
  H        2.2027140     2.4392170     1.7103290
  H        0.6160650     2.6819120     0.9264900
units angstrom
no_reorient  #important for SAPT in psi4, default
symmetry c1  #important for SAPT in psi4, default
}

set PROPERTIES_ORIGIN ["COM"]
properties('MP2/aug-cc-pvtz', properties = ['dipole'])
--------------------------------------------------------------------------

    Molecular point group: c1
  Charge       = -4
  Multiplicity = 1
  Basis Set: AUG-CC-PVTZ
    Blend: AUG-CC-PVTZ
  Basis Set: (AUG-CC-PVTZ AUX)
    Blend: AUG-CC-PVTZ-JKFIT

    Orbital Energies [Eh]
    ---------------------

    Doubly Occupied:

       1A    -79.573856     2A    -79.526178     3A    -79.479344
       4A    -20.086492     5A    -20.039121     6A    -20.004531
       7A    -20.003089     8A    -19.992070     9A    -19.950492
      10A    -19.943996    11A    -19.923537    12A    -19.918758
      13A    -19.916828    14A    -10.812341    15A     -7.087597
      16A     -7.039168    17A     -6.992846    18A     -4.986531
      19A     -4.985587    20A     -4.984784    21A     -4.938425
      22A     -4.937051    23A     -4.936145    24A     -4.892304
      25A     -4.890125    26A     -4.889974    27A     -0.902214
      28A     -0.845092    29A     -0.806735    30A     -0.777890
      31A     -0.758631    32A     -0.741696    33A     -0.713017
      34A     -0.698898    35A     -0.663023    36A     -0.658548
      37A     -0.467446    38A     -0.292709    39A     -0.234861
      40A     -0.183755    41A     -0.164263    42A     -0.149256
      43A     -0.126656    44A     -0.098823    45A     -0.082461
      46A     -0.064745    47A     -0.052174    48A     -0.043998
      49A     -0.031995    50A     -0.015632    51A     -0.007006
      52A      0.000129    53A      0.009564    54A      0.014634
      55A      0.021861    56A      0.037051    57A      0.047897
      58A      0.052286    59A      0.066274    60A      0.070825
      61A      0.091548    62A      0.100909    63A      0.102718
      64A      0.104389    65A      0.114515    66A      0.125908
      67A      0.145021    68A      0.151008    69A      0.172522

  @DF-RHF Final Energy: -1810.68786008246502

   => Energetics <=

    Nuclear Repulsion Energy =           1462.5748893249590310
    One-Electron Energy =               -5500.7582347239649607
    Two-Electron Energy =                2227.4954853165409077
    Total Energy =                      -1810.6878600824647947
  Basis Set: (AUG-CC-PVTZ AUX)
    Blend: AUG-CC-PVTZ-RI
    Molecular point group: c1

    Geometry (in Angstrom), charge = -4, multiplicity = 1:

       Center              X                  Y                   Z               Mass
    ------------   -----------------  -----------------  -----------------  -----------------
         P            2.599373419876     0.107996188404    -0.338556153120    30.973761998420
         P           -0.166840580124    -1.118207811596     0.310146846880    30.973761998420
         P           -2.692346580124     0.500853188404    -0.183347153120    30.973761998420
         O            1.969960419876     1.632224188404    -0.166910153120    15.994914619570
         O            1.260226019876    -0.854302711596    -0.540353553120    15.994914619570
         O            3.284434419876     0.118181188404    -1.680498153120    15.994914619570
         O            3.345437419876    -0.268037811596     0.919629846880    15.994914619570
         O           -0.971663580124     0.186662188404    -0.205166153120    15.994914619570
         O            0.097004819876    -1.056834711596     1.801978446880    15.994914619570
         O           -0.698557580124    -2.405153811596    -0.283040153120    15.994914619570
         O           -3.216264580124    -0.243134811596     1.058765846880    15.994914619570
         O           -2.696345580124     2.034061188404    -0.078579153120    15.994914619570
         O           -3.194886580124    -0.049827811596    -1.530015153120    15.994914619570
         C            1.438172419876     1.993541188404     1.122649846880    12.000000000000
         H            1.033449419876     1.127064188404     1.645228846880     1.007825032230
         H            2.219220419876     2.464601188404     1.727679846880     1.007825032230
         H            0.632571419876     2.707296188404     0.943840846880     1.007825032230

  Basis Set: AUG-CC-PVTZ
    Blend: AUG-CC-PVTZ
  Basis Set: (AUG-CC-PVTZ AUX)
    Blend: AUG-CC-PVTZ-JKFIT
	 Reference Energy          =   -1810.6878600824650221 [Eh]
	 Singles Energy            =      -0.0000000000000000 [Eh]
	 Same-Spin Energy          =      -0.9131263113071977 [Eh]
	 Opposite-Spin Energy      =      -2.5261104557224328 [Eh]
	 Correlation Energy        =      -3.4392367670296302 [Eh]
	 Total Energy              =   -1814.1270968494945919 [Eh]

	 ================> DF-SCS-MP2 Energies <==================
	-----------------------------------------------------------
	 SCS Same-Spin Scale       =       0.3333333333333333 [-]
	 SCS Opposite-Spin Scale   =       1.2000000000000000 [-]
	 SCS Same-Spin Energy      =      -0.3043754371023992 [Eh]
	 SCS Opposite-Spin Energy  =      -3.0313325468669192 [Eh]
	 SCS Correlation Energy    =      -3.3357079839693187 [Eh]
	 SCS Total Energy          =   -1814.0235680664343363 [Eh]
	-----------------------------------------------------------

  Dipole Moment: [D]
     X:     9.3512      Y:     2.3727      Z:     1.6269     Total:     9.7837

*** Psi4 exiting successfully. Buy a developer a beer!
