                               Psi4 1.3.2 release

  ==> Input File <==

--------------------------------------------------------------------------
#psi4
#
memory 32 gb

molecule  {
-4 1
  P        2.5828670     0.0826120    -0.3559070
  P       -0.1833470    -1.1435920     0.2927960
  P       -2.7088530     0.4754690    -0.2006980
  O        1.9534540     1.6068400    -0.1842610
  O        1.2509400    -0.8782220    -0.5450080
  O        3.2679280     0.0927970    -1.6978490
  O        3.3289310    -0.2934220     0.9022790
  O       -0.9881700     0.1612780    -0.2225170
  O        0.0932830    -1.0798150     1.7822090
  O       -0.7150640    -2.4305380    -0.3003910
  O       -3.2452023    -0.1969711     1.0764107
  O       -2.7431968     2.0014192    -0.0217692
  O       -3.2113930    -0.0752120    -1.5473660
  C        1.4216660     1.9681570     1.1052990
  H        1.0169430     1.1016800     1.6278780
  H        2.2027140     2.4392170     1.7103290
  H        0.6160650     2.6819120     0.9264900
units angstrom
no_reorient  #important for SAPT in psi4, default
symmetry c1  #important for SAPT in psi4, default
}

set PROPERTIES_ORIGIN ["COM"]
properties('MP2/aug-cc-pvtz', properties = ['dipole'])
--------------------------------------------------------------------------

    Molecular point group: c1
  Charge       = -4
  Multiplicity = 1
  Basis Set: AUG-CC-PVTZ
    Blend: AUG-CC-PVTZ
  Basis Set: (AUG-CC-PVTZ AUX)
    Blend: AUG-CC-PVTZ-JKFIT

    Orbital Energies [Eh]
    ---------------------

    Doubly Occupied:

       1A    -79.573328     2A    -79.528805     3A    -79.479822
       4A    -20.086190     5A    -20.039554     6A    -20.003457
       7A    -20.003292     8A    -19.996133     9A    -19.951145
      10A    -19.947361    11A    -19.925814    12A    -19.918868
      13A    -19.912192    14A    -10.811798    15A     -7.087153
      16A     -7.041724    17A     -6.993339    18A     -4.986101
      19A     -4.985161    20A     -4.984336    21A     -4.941000
      22A     -4.939628    23A     -4.938673    24A     -4.892743
      25A     -4.890769    26A     -4.890320    27A     -0.902621
      28A     -0.846954    29A     -0.807800    30A     -0.778903
      31A     -0.758291    32A     -0.742970    33A     -0.715057
      34A     -0.701250    35A     -0.665676    36A     -0.653825
      37A     -0.467013    38A     -0.295047    39A     -0.235710
      40A     -0.185143    41A     -0.164524    42A     -0.149192
      43A     -0.126723    44A     -0.099916    45A     -0.083821
      46A     -0.065584    47A     -0.052931    48A     -0.044798
      49A     -0.033157    50A     -0.016491    51A     -0.007425
      52A     -0.001150    53A      0.009408    54A      0.014230
      55A      0.023216    56A      0.036457    57A      0.044778
      58A      0.052842    59A      0.066054    60A      0.070045
      61A      0.090291    62A      0.097813    63A      0.102985
      64A      0.105667    65A      0.112610    66A      0.123667
      67A      0.146208    68A      0.150700    69A      0.174884

  @DF-RHF Final Energy: -1810.68763717420029

   => Energetics <=

    Nuclear Repulsion Energy =           1462.1360251432492987
    One-Electron Energy =               -5499.7896789449596326
    Two-Electron Energy =                2226.9660166275102711
    Total Energy =                      -1810.6876371742000629
  Basis Set: (AUG-CC-PVTZ AUX)
    Blend: AUG-CC-PVTZ-RI
    Molecular point group: c1

    Geometry (in Angstrom), charge = -4, multiplicity = 1:

       Center              X                  Y                   Z               Mass
    ------------   -----------------  -----------------  -----------------  -----------------
         P            2.600732994657     0.103926682691    -0.345687115711    30.973761998420
         P           -0.165481005343    -1.122277317309     0.303015884289    30.973761998420
         P           -2.690987005343     0.496783682691    -0.190478115711    30.973761998420
         O            1.971319994657     1.628154682691    -0.174041115711    15.994914619570
         O            1.268805994657    -0.856907317309    -0.534788115711    15.994914619570
         O            3.285793994657     0.114111682691    -1.687629115711    15.994914619570
         O            3.346796994657    -0.272107317309     0.912498884289    15.994914619570
         O           -0.970304005343     0.182592682691    -0.212297115711    15.994914619570
         O            0.111148994657    -1.058500317309     1.792428884289    15.994914619570
         O           -0.697198005343    -2.409223317309    -0.290171115711    15.994914619570
         O           -3.227336305343    -0.175656417309     1.086630584289    15.994914619570
         O           -2.725330805343     2.022733882691    -0.011549315711    15.994914619570
         O           -3.193527005343    -0.053897317309    -1.537146115711    15.994914619570
         C            1.439531994657     1.989471682691     1.115518884289    12.000000000000
         H            1.034808994657     1.122994682691     1.638097884289     1.007825032230
         H            2.220579994657     2.460531682691     1.720548884289     1.007825032230
         H            0.633930994657     2.703226682691     0.936709884289     1.007825032230

  Basis Set: AUG-CC-PVTZ
    Blend: AUG-CC-PVTZ
  Basis Set: (AUG-CC-PVTZ AUX)
    Blend: AUG-CC-PVTZ-JKFIT
	 Reference Energy          =   -1810.6876371742002902 [Eh]
	 Singles Energy            =      -0.0000000000000000 [Eh]
	 Same-Spin Energy          =      -0.9129834719645846 [Eh]
	 Opposite-Spin Energy      =      -2.5257501834471023 [Eh]
	 Correlation Energy        =      -3.4387336554116867 [Eh]
	 Total Energy              =   -1814.1263708296119148 [Eh]

	 ================> DF-SCS-MP2 Energies <==================
	-----------------------------------------------------------
	 SCS Same-Spin Scale       =       0.3333333333333333 [-]
	 SCS Opposite-Spin Scale   =       1.2000000000000000 [-]
	 SCS Same-Spin Energy      =      -0.3043278239881949 [Eh]
	 SCS Opposite-Spin Energy  =      -3.0309002201365227 [Eh]
	 SCS Correlation Energy    =      -3.3352280441247175 [Eh]
	 SCS Total Energy          =   -1814.0228652183250233 [Eh]
	-----------------------------------------------------------

  Dipole Moment: [D]
     X:     9.3994      Y:     2.1543      Z:     1.3235     Total:     9.7335

*** Psi4 exiting successfully. Buy a developer a beer!
