                               Psi4 1.3.2 release

  ==> Input File <==

--------------------------------------------------------------------------
#psi4
#
memory 32 gb

molecule  {
-4 1
  P        2.5828670     0.0826120    -0.3559070
  P       -0.1833470    -1.1435920     0.2927960
  P       -2.7088530     0.4754690    -0.2006980
  O        1.9534540     1.6068400    -0.1842610
  O        1.2313489    -0.8635032    -0.4619991
  O        3.3229526     0.1402113    -1.6670806
  O        3.3289310    -0.2934220     0.9022790
  O       -0.9881700     0.1612780    -0.2225170
  O        0.0932830    -1.0798150     1.7822090
  O       -0.7150640    -2.4305380    -0.3003910
  O       -3.2327710    -0.2685190     1.0414150
  O       -2.7128520     2.0086770    -0.0959300
  O       -3.2113930    -0.0752120    -1.5473660
  C        1.4216660     1.9681570     1.1052990
  H        1.0169430     1.1016800     1.6278780
  H        2.2027140     2.4392170     1.7103290
  H        0.6160650     2.6819120     0.9264900
units angstrom
no_reorient  #important for SAPT in psi4, default
symmetry c1  #important for SAPT in psi4, default
}

set PROPERTIES_ORIGIN ["COM"]
properties('MP2/aug-cc-pvtz', properties = ['dipole'])
--------------------------------------------------------------------------

    Molecular point group: c1
  Charge       = -4
  Multiplicity = 1
  Basis Set: AUG-CC-PVTZ
    Blend: AUG-CC-PVTZ
  Basis Set: (AUG-CC-PVTZ AUX)
    Blend: AUG-CC-PVTZ-JKFIT

    Orbital Energies [Eh]
    ---------------------

    Doubly Occupied:

       1A    -79.578019     2A    -79.522757     3A    -79.478792
       4A    -20.084182     5A    -20.042048     6A    -20.010197
       7A    -19.999708     8A    -19.990884     9A    -19.944425
      10A    -19.942811    11A    -19.923066    12A    -19.918629
      13A    -19.916285    14A    -10.810219    15A     -7.091400
      16A     -7.036280    17A     -6.992295    18A     -4.990473
      19A     -4.989339    20A     -4.988615    21A     -4.935792
      22A     -4.934156    23A     -4.933180    24A     -4.891743
      25A     -4.889583    26A     -4.889435    27A     -0.904579
      28A     -0.854333    29A     -0.806899    30A     -0.783258
      31A     -0.758084    32A     -0.740461    33A     -0.711801
      34A     -0.696777    35A     -0.662624    36A     -0.658201
      37A     -0.465761    38A     -0.308457    39A     -0.233807
      40A     -0.186522    41A     -0.163950    42A     -0.149035
      43A     -0.126908    44A     -0.098747    45A     -0.088240
      46A     -0.067732    47A     -0.053633    48A     -0.043660
      49A     -0.029765    50A     -0.017583    51A     -0.009676
      52A     -0.000363    53A      0.009060    54A      0.013574
      55A      0.022047    56A      0.034094    57A      0.048758
      58A      0.054293    59A      0.067929    60A      0.069886
      61A      0.091759    62A      0.101782    63A      0.103600
      64A      0.105405    65A      0.117054    66A      0.128174
      67A      0.145523    68A      0.151523    69A      0.172885

  @DF-RHF Final Energy: -1810.68944646417322

   => Energetics <=

    Nuclear Repulsion Energy =           1464.7643528845760557
    One-Electron Energy =               -5505.0919503623590572
    Two-Electron Energy =                2229.6381510136097859
    Total Energy =                      -1810.6894464641732156
  Basis Set: (AUG-CC-PVTZ AUX)
    Blend: AUG-CC-PVTZ-RI
    Molecular point group: c1

    Geometry (in Angstrom), charge = -4, multiplicity = 1:

       Center              X                  Y                   Z               Mass
    ------------   -----------------  -----------------  -----------------  -----------------
         P            2.596063400312     0.104055468863    -0.345963005903    30.973761998420
         P           -0.170150599688    -1.122148531137     0.302739994097    30.973761998420
         P           -2.695656599688     0.496912468863    -0.190754005903    30.973761998420
         O            1.966650400312     1.628283468863    -0.174317005903    15.994914619570
         O            1.244545300312    -0.842059731137    -0.452055105903    15.994914619570
         O            3.336149000312     0.161654768863    -1.657136605903    15.994914619570
         O            3.342127400312    -0.271978531137     0.912222994097    15.994914619570
         O           -0.974973599688     0.182721468863    -0.212573005903    15.994914619570
         O            0.106479400312    -1.058371531137     1.792152994097    15.994914619570
         O           -0.701867599688    -2.409094531137    -0.290447005903    15.994914619570
         O           -3.219574599688    -0.247075531137     1.051358994097    15.994914619570
         O           -2.699655599688     2.030120468863    -0.085986005903    15.994914619570
         O           -3.198196599688    -0.053768531137    -1.537422005903    15.994914619570
         C            1.434862400312     1.989600468863     1.115242994097    12.000000000000
         H            1.030139400312     1.123123468863     1.637821994097     1.007825032230
         H            2.215910400312     2.460660468863     1.720272994097     1.007825032230
         H            0.629261400312     2.703355468863     0.936433994097     1.007825032230

  Basis Set: AUG-CC-PVTZ
    Blend: AUG-CC-PVTZ
  Basis Set: (AUG-CC-PVTZ AUX)
    Blend: AUG-CC-PVTZ-JKFIT
	 Reference Energy          =   -1810.6894464641732156 [Eh]
	 Singles Energy            =      -0.0000000000000000 [Eh]
	 Same-Spin Energy          =      -0.9123942547748284 [Eh]
	 Opposite-Spin Energy      =      -2.5239287774540524 [Eh]
	 Correlation Energy        =      -3.4363230322288807 [Eh]
	 Total Energy              =   -1814.1257694964021994 [Eh]

	 ================> DF-SCS-MP2 Energies <==================
	-----------------------------------------------------------
	 SCS Same-Spin Scale       =       0.3333333333333333 [-]
	 SCS Opposite-Spin Scale   =       1.2000000000000000 [-]
	 SCS Same-Spin Energy      =      -0.3041314182582761 [Eh]
	 SCS Opposite-Spin Energy  =      -3.0287145329448628 [Eh]
	 SCS Correlation Energy    =      -3.3328459512031388 [Eh]
	 SCS Total Energy          =   -1814.0222924153763415 [Eh]
	-----------------------------------------------------------

  Dipole Moment: [D]
     X:     9.4467      Y:     2.2910      Z:     1.2940     Total:     9.8063

*** Psi4 exiting successfully. Buy a developer a beer!
