                               Psi4 1.3.2 release

  ==> Input File <==

--------------------------------------------------------------------------
#psi4
#
memory 32 gb

molecule  {
-4 1
  P        2.5828670     0.0826120    -0.3559070
  P       -0.1833470    -1.1435920     0.2927960
  P       -2.7088530     0.4754690    -0.2006980
  O        1.9534540     1.6068400    -0.1842610
  O        1.2445818    -0.8641752    -0.5693956
  O        3.2679280     0.0927970    -1.6978490
  O        3.3466326    -0.2745792     0.8971379
  O       -0.9881700     0.1612780    -0.2225170
  O        0.0932830    -1.0798150     1.7822090
  O       -0.7150640    -2.4305380    -0.3003910
  O       -3.2327710    -0.2685190     1.0414150
  O       -2.7128520     2.0086770    -0.0959300
  O       -3.2113930    -0.0752120    -1.5473660
  C        1.4216660     1.9681570     1.1052990
  H        1.0169430     1.1016800     1.6278780
  H        2.2027140     2.4392170     1.7103290
  H        0.6160650     2.6819120     0.9264900
units angstrom
no_reorient  #important for SAPT in psi4, default
symmetry c1  #important for SAPT in psi4, default
}

set PROPERTIES_ORIGIN ["COM"]
properties('MP2/aug-cc-pvtz', properties = ['dipole'])
--------------------------------------------------------------------------

    Molecular point group: c1
  Charge       = -4
  Multiplicity = 1
  Basis Set: AUG-CC-PVTZ
    Blend: AUG-CC-PVTZ
  Basis Set: (AUG-CC-PVTZ AUX)
    Blend: AUG-CC-PVTZ-JKFIT

    Orbital Energies [Eh]
    ---------------------

    Doubly Occupied:

       1A    -79.571791     2A    -79.528560     3A    -79.479995
       4A    -20.084101     5A    -20.039783     6A    -20.003942
       7A    -20.000241     8A    -19.993107     9A    -19.952838
      10A    -19.946642    11A    -19.923992    12A    -19.919345
      13A    -19.917658    14A    -10.811245    15A     -7.085672
      16A     -7.041435    17A     -6.993504    18A     -4.984620
      19A     -4.983640    20A     -4.982879    21A     -4.940695
      22A     -4.939298    23A     -4.938401    24A     -4.892964
      25A     -4.890779    26A     -4.890631    27A     -0.901058
      28A     -0.844849    29A     -0.806506    30A     -0.777928
      31A     -0.756903    32A     -0.743280    33A     -0.714163
      34A     -0.701274    35A     -0.663577    36A     -0.659279
      37A     -0.466177    38A     -0.292745    39A     -0.234231
      40A     -0.183033    41A     -0.163254    42A     -0.147764
      43A     -0.126798    44A     -0.099802    45A     -0.081927
      46A     -0.065385    47A     -0.051910    48A     -0.043652
      49A     -0.032466    50A     -0.016131    51A     -0.006617
      52A     -0.000209    53A      0.010304    54A      0.014621
      55A      0.021115    56A      0.038750    57A      0.046970
      58A      0.052994    59A      0.066056    60A      0.070894
      61A      0.090095    62A      0.099854    63A      0.101944
      64A      0.103630    65A      0.112549    66A      0.123827
      67A      0.144304    68A      0.150222    69A      0.171881

  @DF-RHF Final Energy: -1810.68865337985744

   => Energetics <=

    Nuclear Repulsion Energy =           1462.4461227239094114
    One-Electron Energy =               -5500.4722251883467834
    Two-Electron Energy =                2227.3374490845799301
    Total Energy =                      -1810.6886533798574419
  Basis Set: (AUG-CC-PVTZ AUX)
    Blend: AUG-CC-PVTZ-RI
    Molecular point group: c1

    Geometry (in Angstrom), charge = -4, multiplicity = 1:

       Center              X                  Y                   Z               Mass
    ------------   -----------------  -----------------  -----------------  -----------------
         P            2.597501727509     0.105801485749    -0.337406755939    30.973761998420
         P           -0.168712272491    -1.120402514251     0.311296244061    30.973761998420
         P           -2.694218272491     0.498658485749    -0.182197755939    30.973761998420
         O            1.968088727509     1.630029485749    -0.165760755939    15.994914619570
         O            1.259216527509    -0.840985714251    -0.550895355939    15.994914619570
         O            3.282562727509     0.115986485749    -1.679348755939    15.994914619570
         O            3.361267327509    -0.251389714251     0.915638144061    15.994914619570
         O           -0.973535272491     0.184467485749    -0.204016755939    15.994914619570
         O            0.107917727509    -1.056625514251     1.800709244061    15.994914619570
         O           -0.700429272491    -2.407348514251    -0.281890755939    15.994914619570
         O           -3.218136272491    -0.245329514251     1.059915244061    15.994914619570
         O           -2.698217272491     2.031866485749    -0.077429755939    15.994914619570
         O           -3.196758272491    -0.052022514251    -1.528865755939    15.994914619570
         C            1.436300727509     1.991346485749     1.123799244061    12.000000000000
         H            1.031577727509     1.124869485749     1.646378244061     1.007825032230
         H            2.217348727509     2.462406485749     1.728829244061     1.007825032230
         H            0.630699727509     2.705101485749     0.944990244061     1.007825032230

  Basis Set: AUG-CC-PVTZ
    Blend: AUG-CC-PVTZ
  Basis Set: (AUG-CC-PVTZ AUX)
    Blend: AUG-CC-PVTZ-JKFIT
	 Reference Energy          =   -1810.6886533798574419 [Eh]
	 Singles Energy            =      -0.0000000000000000 [Eh]
	 Same-Spin Energy          =      -0.9131311996734740 [Eh]
	 Opposite-Spin Energy      =      -2.5261259881324358 [Eh]
	 Correlation Energy        =      -3.4392571878059099 [Eh]
	 Total Energy              =   -1814.1279105676633208 [Eh]

	 ================> DF-SCS-MP2 Energies <==================
	-----------------------------------------------------------
	 SCS Same-Spin Scale       =       0.3333333333333333 [-]
	 SCS Opposite-Spin Scale   =       1.2000000000000000 [-]
	 SCS Same-Spin Energy      =      -0.3043770665578246 [Eh]
	 SCS Opposite-Spin Energy  =      -3.0313511857589228 [Eh]
	 SCS Correlation Energy    =      -3.3357282523167475 [Eh]
	 SCS Total Energy          =   -1814.0243816321742543 [Eh]
	-----------------------------------------------------------

  Dipole Moment: [D]
     X:     9.1627      Y:     2.2569      Z:     1.6769     Total:     9.5844

*** Psi4 exiting successfully. Buy a developer a beer!
