                               Psi4 1.3.2 release

  ==> Input File <==

--------------------------------------------------------------------------
#psi4
#
memory 32 gb

molecule  {
-4 1
  P        2.5828670     0.0826120    -0.3559070
  P       -0.1833470    -1.1435920     0.2927960
  P       -2.7088530     0.4754690    -0.2006980
  O        2.0344919     1.6369576    -0.1764950
  O        1.3038591    -0.9463984    -0.5515264
  O        3.2679280     0.0927970    -1.6978490
  O        3.3289310    -0.2934220     0.9022790
  O       -0.9881700     0.1612780    -0.2225170
  O        0.0932830    -1.0798150     1.7822090
  O       -0.7150640    -2.4305380    -0.3003910
  O       -3.2327710    -0.2685190     1.0414150
  O       -2.7128520     2.0086770    -0.0959300
  O       -3.2113930    -0.0752120    -1.5473660
  C        1.4216660     1.9681570     1.1052990
  H        1.0169430     1.1016800     1.6278780
  H        2.2027140     2.4392170     1.7103290
  H        0.6160650     2.6819120     0.9264900
units angstrom
no_reorient  #important for SAPT in psi4, default
symmetry c1  #important for SAPT in psi4, default
}

set PROPERTIES_ORIGIN ["COM"]
properties('MP2/aug-cc-pvtz', properties = ['dipole'])
--------------------------------------------------------------------------

    Molecular point group: c1
  Charge       = -4
  Multiplicity = 1
  Basis Set: AUG-CC-PVTZ
    Blend: AUG-CC-PVTZ
  Basis Set: (AUG-CC-PVTZ AUX)
    Blend: AUG-CC-PVTZ-JKFIT

    Orbital Energies [Eh]
    ---------------------

    Doubly Occupied:

       1A    -79.568197     2A    -79.532499     3A    -79.483536
       4A    -20.089727     5A    -20.041961     6A    -19.999992
       7A    -19.996125     8A    -19.996072     9A    -19.954161
      10A    -19.947238    11A    -19.927009    12A    -19.922049
      13A    -19.920407    14A    -10.814742    15A     -7.082334
      16A     -7.045095    17A     -6.997053    18A     -4.981162
      19A     -4.980423    20A     -4.979411    21A     -4.944261
      22A     -4.942990    23A     -4.941985    24A     -4.896556
      25A     -4.894288    26A     -4.894137    27A     -0.898429
      28A     -0.843205    29A     -0.807454    30A     -0.775450
      31A     -0.752228    32A     -0.743972    33A     -0.717416
      34A     -0.702244    35A     -0.666472    36A     -0.661982
      37A     -0.468450    38A     -0.285520    39A     -0.236559
      40A     -0.184552    41A     -0.163467    42A     -0.149010
      43A     -0.121710    44A     -0.098898    45A     -0.079802
      46A     -0.065833    47A     -0.052534    48A     -0.049625
      49A     -0.035060    50A     -0.017972    51A     -0.004627
      52A     -0.001030    53A      0.007463    54A      0.016501
      55A      0.020080    56A      0.037646    57A      0.043939
      58A      0.059352    59A      0.068343    60A      0.073872
      61A      0.089187    62A      0.097597    63A      0.099076
      64A      0.100480    65A      0.110895    66A      0.122270
      67A      0.141265    68A      0.147218    69A      0.169156

  @DF-RHF Final Energy: -1810.68437892108977

   => Energetics <=

    Nuclear Repulsion Energy =           1459.0436147726065883
    One-Electron Energy =               -5493.5508486953822285
    Two-Electron Energy =                2223.8228550016856389
    Total Energy =                      -1810.6843789210897739
  Basis Set: (AUG-CC-PVTZ AUX)
    Blend: AUG-CC-PVTZ-RI
    Molecular point group: c1

    Geometry (in Angstrom), charge = -4, multiplicity = 1:

       Center              X                  Y                   Z               Mass
    ------------   -----------------  -----------------  -----------------  -----------------
         P            2.590180941146     0.110037541775    -0.339244290416    30.973761998420
         P           -0.176033058854    -1.116166458225     0.309458709584    30.973761998420
         P           -2.701539058854     0.502894541775    -0.184035290416    30.973761998420
         O            2.041805841146     1.664383141775    -0.159832290416    15.994914619570
         O            1.311173041146    -0.918972858225    -0.534863690416    15.994914619570
         O            3.275241941146     0.120222541775    -1.681186290416    15.994914619570
         O            3.336244941146    -0.265996458225     0.918941709584    15.994914619570
         O           -0.980856058854     0.188703541775    -0.205854290416    15.994914619570
         O            0.100596941146    -1.052389458225     1.798871709584    15.994914619570
         O           -0.707750058854    -2.403112458225    -0.283728290416    15.994914619570
         O           -3.225457058854    -0.241093458225     1.058077709584    15.994914619570
         O           -2.705538058854     2.036102541775    -0.079267290416    15.994914619570
         O           -3.204079058854    -0.047786458225    -1.530703290416    15.994914619570
         C            1.428979941146     1.995582541775     1.121961709584    12.000000000000
         H            1.024256941146     1.129105541775     1.644540709584     1.007825032230
         H            2.210027941146     2.466642541775     1.726991709584     1.007825032230
         H            0.623378941146     2.709337541775     0.943152709584     1.007825032230

  Basis Set: AUG-CC-PVTZ
    Blend: AUG-CC-PVTZ
  Basis Set: (AUG-CC-PVTZ AUX)
    Blend: AUG-CC-PVTZ-JKFIT
	 Reference Energy          =   -1810.6843789210897739 [Eh]
	 Singles Energy            =      -0.0000000000000000 [Eh]
	 Same-Spin Energy          =      -0.9134649611109459 [Eh]
	 Opposite-Spin Energy      =      -2.5273423637002010 [Eh]
	 Correlation Energy        =      -3.4408073248111468 [Eh]
	 Total Energy              =   -1814.1251862459009772 [Eh]

	 ================> DF-SCS-MP2 Energies <==================
	-----------------------------------------------------------
	 SCS Same-Spin Scale       =       0.3333333333333333 [-]
	 SCS Opposite-Spin Scale   =       1.2000000000000000 [-]
	 SCS Same-Spin Energy      =      -0.3044883203703153 [Eh]
	 SCS Opposite-Spin Energy  =      -3.0328108364402411 [Eh]
	 SCS Correlation Energy    =      -3.3372991568105563 [Eh]
	 SCS Total Energy          =   -1814.0216780779003329 [Eh]
	-----------------------------------------------------------

  Dipole Moment: [D]
     X:     8.7339      Y:     2.3587      Z:     1.7345     Total:     9.2116

*** Psi4 exiting successfully. Buy a developer a beer!
