                               Psi4 1.3.2 release

  ==> Input File <==

--------------------------------------------------------------------------
#psi4
#
memory 32 gb

molecule  {
-4 1
  P        2.5630892     0.0675511    -0.2727413
  P       -0.1833470    -1.1435920     0.2927960
  P       -2.7088530     0.4754690    -0.2006980
  O        1.9534540     1.6068400    -0.1842610
  O        1.2509400    -0.8782220    -0.5450080
  O        3.2679280     0.0927970    -1.6978490
  O        3.3289310    -0.2934220     0.9022790
  O       -0.9881700     0.1612780    -0.2225170
  O        0.0932830    -1.0798150     1.7822090
  O       -0.7150640    -2.4305380    -0.3003910
  O       -3.2327710    -0.2685190     1.0414150
  O       -2.7128520     2.0086770    -0.0959300
  O       -3.2113930    -0.0752120    -1.5473660
  C        1.4401502     1.8993161     1.1300032
  H        1.0169430     1.1016800     1.6278780
  H        2.2027140     2.4392170     1.7103290
  H        0.6160650     2.6819120     0.9264900
units angstrom
no_reorient  #important for SAPT in psi4, default
symmetry c1  #important for SAPT in psi4, default
}

set PROPERTIES_ORIGIN ["COM"]
properties('MP2/aug-cc-pvtz', properties = ['dipole'])
--------------------------------------------------------------------------

    Molecular point group: c1
  Charge       = -4
  Multiplicity = 1
  Basis Set: AUG-CC-PVTZ
    Blend: AUG-CC-PVTZ
  Basis Set: (AUG-CC-PVTZ AUX)
    Blend: AUG-CC-PVTZ-JKFIT

    Orbital Energies [Eh]
    ---------------------

    Doubly Occupied:

       1A    -79.571798     2A    -79.530252     3A    -79.481003
       4A    -20.091938     5A    -20.045331     6A    -20.015254
       7A    -19.995444     8A    -19.985665     9A    -19.955209
      10A    -19.947938    11A    -19.924571    12A    -19.920022
      13A    -19.918701    14A    -10.815905    15A     -7.086705
      16A     -7.043358    17A     -6.994517    18A     -4.985442
      19A     -4.984856    20A     -4.983660    21A     -4.942625
      22A     -4.941215    23A     -4.940324    24A     -4.893991
      25A     -4.891777    26A     -4.891634    27A     -0.909981
      28A     -0.852882    29A     -0.820021    30A     -0.790707
      31A     -0.748614    32A     -0.722968    33A     -0.715809
      34A     -0.703469    35A     -0.664265    36A     -0.660147
      37A     -0.467557    38A     -0.299231    39A     -0.242066
      40A     -0.185433    41A     -0.175508    42A     -0.144194
      43A     -0.128419    44A     -0.103178    45A     -0.085241
      46A     -0.071603    47A     -0.055551    48A     -0.046586
      49A     -0.033770    50A     -0.016755    51A     -0.009389
      52A     -0.005358    53A      0.007172    54A      0.014596
      55A      0.018849    56A      0.034486    57A      0.043938
      58A      0.058643    59A      0.074840    60A      0.078284
      61A      0.091406    62A      0.098526    63A      0.101180
      64A      0.102443    65A      0.110457    66A      0.121776
      67A      0.143378    68A      0.149195    69A      0.171126

  @DF-RHF Final Energy: -1810.67053641696157

   => Energetics <=

    Nuclear Repulsion Energy =           1465.5001604289379884
    One-Electron Energy =               -5506.3063149151312246
    Two-Electron Energy =                2230.1356180692314410
    Total Energy =                      -1810.6705364169615677
  Basis Set: (AUG-CC-PVTZ AUX)
    Blend: AUG-CC-PVTZ-RI
    Molecular point group: c1

    Geometry (in Angstrom), charge = -4, multiplicity = 1:

       Center              X                  Y                   Z               Mass
    ------------   -----------------  -----------------  -----------------  -----------------
         P            2.579859919291     0.097529280178    -0.266726274686    30.973761998420
         P           -0.166576280709    -1.113613819822     0.298811025314    30.973761998420
         P           -2.692082280709     0.505447180178    -0.194682974686    30.973761998420
         O            1.970224719291     1.636818180178    -0.178245974686    15.994914619570
         O            1.267710719291    -0.848243819822    -0.538992974686    15.994914619570
         O            3.284698719291     0.122775180178    -1.691833974686    15.994914619570
         O            3.345701719291    -0.263443819822     0.908294025314    15.994914619570
         O           -0.971399280709     0.191256180178    -0.216501974686    15.994914619570
         O            0.110053719291    -1.049836819822     1.788224025314    15.994914619570
         O           -0.698293280709    -2.400559819822    -0.294375974686    15.994914619570
         O           -3.216000280709    -0.238540819822     1.047430025314    15.994914619570
         O           -2.696081280709     2.038655180178    -0.089914974686    15.994914619570
         O           -3.194622280709    -0.045233819822    -1.541350974686    15.994914619570
         C            1.456920919291     1.929294280178     1.136018225314    12.000000000000
         H            1.033713719291     1.131658180178     1.633893025314     1.007825032230
         H            2.219484719291     2.469195180178     1.716344025314     1.007825032230
         H            0.632835719291     2.711890180178     0.932505025314     1.007825032230

  Basis Set: AUG-CC-PVTZ
    Blend: AUG-CC-PVTZ
  Basis Set: (AUG-CC-PVTZ AUX)
    Blend: AUG-CC-PVTZ-JKFIT
	 Reference Energy          =   -1810.6705364169615677 [Eh]
	 Singles Energy            =      -0.0000000000000000 [Eh]
	 Same-Spin Energy          =      -0.9137268528337814 [Eh]
	 Opposite-Spin Energy      =      -2.5276993112046346 [Eh]
	 Correlation Energy        =      -3.4414261640384161 [Eh]
	 Total Energy              =   -1814.1119625809999434 [Eh]

	 ================> DF-SCS-MP2 Energies <==================
	-----------------------------------------------------------
	 SCS Same-Spin Scale       =       0.3333333333333333 [-]
	 SCS Opposite-Spin Scale   =       1.2000000000000000 [-]
	 SCS Same-Spin Energy      =      -0.3045756176112605 [Eh]
	 SCS Opposite-Spin Energy  =      -3.0332391734455615 [Eh]
	 SCS Correlation Energy    =      -3.3378147910568221 [Eh]
	 SCS Total Energy          =   -1814.0083512080184391 [Eh]
	-----------------------------------------------------------

  Dipole Moment: [D]
     X:     8.9336      Y:     2.0444      Z:     2.7411     Total:     9.5656

*** Psi4 exiting successfully. Buy a developer a beer!
