                               Psi4 1.4a3.dev225

  ==> Input File <==

--------------------------------------------------------------------------
#psi4
#
memory 32 gb

molecule  {
-4 1
  P       -2.5202440    -0.2449420     0.3712220
  P        0.3565170    -0.5960480    -0.3589090
  P        3.1750170     0.3881900     0.1554910
  O       -2.7927880     1.3311510    -0.1150520
  O       -0.9169740    -0.0836090     0.6422800
  O       -3.1856250    -0.4605710     1.7148300
  O       -2.8507450    -1.1694890    -0.7786080
  O        1.4898640     0.0841660     0.5723090
  O        0.2108231     0.0939364    -1.7226473
  O        0.4027150    -2.1095660    -0.2874290
  O        3.5327910    -0.6840640    -0.8835370
  O        3.1643710     1.8286230    -0.3742880
  O        3.8338960     0.2099350     1.5311200
  C       -4.1398760     1.5889580    -0.5252390
  H       -4.4292020     0.9309370    -1.3496150
  H       -4.8386320     1.4471050     0.3059850
  H       -4.1840730     2.6280350    -0.8559160
units angstrom
no_reorient  #important for SAPT in psi4, default
symmetry c1  #important for SAPT in psi4, default
}

set PROPERTIES_ORIGIN ["COM"]
properties('MP2/aug-cc-pvtz', properties = ['dipole'])
--------------------------------------------------------------------------

    Molecular point group: c1
  Charge       = -4
  Multiplicity = 1
  Basis Set: AUG-CC-PVTZ
    Blend: AUG-CC-PVTZ
  Basis Set: (AUG-CC-PVTZ AUX)
    Blend: AUG-CC-PVTZ-JKFIT

    Orbital Energies [Eh]
    ---------------------

    Doubly Occupied:

       1A    -79.581189     2A    -79.520925     3A    -79.475869
       4A    -20.119218     5A    -20.043140     6A    -20.015445
       7A    -20.005239     8A    -19.985840     9A    -19.938763
      10A    -19.936060    11A    -19.922400    12A    -19.917235
      13A    -19.913512    14A    -10.883439    15A     -7.095464
      16A     -7.033309    17A     -6.989635    18A     -4.994609
      19A     -4.993306    20A     -4.992390    21A     -4.932768
      22A     -4.931153    23A     -4.929910    24A     -4.889038
      25A     -4.886916    26A     -4.886785    27A     -0.931480
      28A     -0.853983    29A     -0.807151    30A     -0.778650
      31A     -0.761529    32A     -0.735302    33A     -0.705685
      34A     -0.683407    35A     -0.662319    36A     -0.657537
      37A     -0.528267    38A     -0.309235    39A     -0.252858
      40A     -0.220757    41A     -0.196814    42A     -0.165639
      43A     -0.140523    44A     -0.108906    45A     -0.094448
      46A     -0.079550    47A     -0.063208    48A     -0.052215
      49A     -0.035299    50A     -0.025560    51A     -0.013004
      52A     -0.009677    53A      0.009119    54A      0.011950
      55A      0.023047    56A      0.034135    57A      0.047941
      58A      0.055050    59A      0.062089    60A      0.082176
      61A      0.097862    62A      0.103179    63A      0.106584
      64A      0.107998    65A      0.125767    66A      0.135780
      67A      0.147634    68A      0.153929    69A      0.174251

  @DF-RHF Final Energy: -1810.67359787885948

   => Energetics <=

    Nuclear Repulsion Energy =           1424.6596020064457662
    One-Electron Energy =               -5424.2502568848931332
    Two-Electron Energy =                2188.9170569995881124
    Total Energy =                      -1810.6735978788592547
  Basis Set: (AUG-CC-PVTZ AUX)
    Blend: AUG-CC-PVTZ-RI
    Molecular point group: c1

    Geometry (in Angstrom), charge = -4, multiplicity = 1:

       Center              X                  Y                   Z               Mass
    ------------   -----------------  -----------------  -----------------  -----------------
         P           -2.573572336814    -0.225310736218     0.364643403450    30.973761998420
         P            0.303188663186    -0.576416736218    -0.365487596550    30.973761998420
         P            3.121688663186     0.407821263782     0.148912403450    30.973761998420
         O           -2.846116336814     1.350782263782    -0.121630596550    15.994914619570
         O           -0.970302336814    -0.063977736218     0.635701403450    15.994914619570
         O           -3.238953336814    -0.440939736218     1.708251403450    15.994914619570
         O           -2.904073336814    -1.149857736218    -0.785186596550    15.994914619570
         O            1.436535663186     0.103797263782     0.565730403450    15.994914619570
         O            0.157494763186     0.113567663782    -1.729225896550    15.994914619570
         O            0.349386663186    -2.089934736218    -0.294007596550    15.994914619570
         O            3.479462663186    -0.664432736218    -0.890115596550    15.994914619570
         O            3.111042663186     1.848254263782    -0.380866596550    15.994914619570
         O            3.780567663186     0.229566263782     1.524541403450    15.994914619570
         C           -4.193204336814     1.608589263782    -0.531817596550    12.000000000000
         H           -4.482530336814     0.950568263782    -1.356193596550     1.007825032230
         H           -4.891960336814     1.466736263782     0.299406403450     1.007825032230
         H           -4.237401336814     2.647666263782    -0.862494596550     1.007825032230

  Basis Set: AUG-CC-PVTZ
    Blend: AUG-CC-PVTZ
  Basis Set: (AUG-CC-PVTZ AUX)
    Blend: AUG-CC-PVTZ-JKFIT
	 Reference Energy          =   -1810.6735978788594821 [Eh]
	 Singles Energy            =      -0.0000000000000000 [Eh]
	 Same-Spin Energy          =      -0.9127659087730862 [Eh]
	 Opposite-Spin Energy      =      -2.5262181113223945 [Eh]
	 Correlation Energy        =      -3.4389840200954804 [Eh]
	 Total Energy              =   -1814.1125818989548861 [Eh]

	 ================> DF-SCS-MP2 Energies <==================
	-----------------------------------------------------------
	 SCS Same-Spin Scale       =       0.3333333333333333 [-]
	 SCS Opposite-Spin Scale   =       1.2000000000000000 [-]
	 SCS Same-Spin Energy      =      -0.3042553029243620 [Eh]
	 SCS Opposite-Spin Energy  =      -3.0314617335868732 [Eh]
	 SCS Correlation Energy    =      -3.3357170365112352 [Eh]
	 SCS Total Energy          =   -1814.0093149153706236 [Eh]
	-----------------------------------------------------------

  Dipole Moment: [D]
     X:   -14.9646      Y:     2.6695      Z:     0.1067     Total:    15.2012

*** Psi4 exiting successfully. Buy a developer a beer!
