                               Psi4 1.4a3.dev225

  ==> Input File <==

--------------------------------------------------------------------------
#psi4
#
memory 32 gb

molecule  {
-4 1
  P       -2.5202440    -0.2449420     0.3712220
  P        0.3565170    -0.5960480    -0.3589090
  P        3.1750170     0.3881900     0.1554910
  O       -2.7927880     1.3311510    -0.1150520
  O       -0.9169740    -0.0836090     0.6422800
  O       -3.1856250    -0.4605710     1.7148300
  O       -2.8507450    -1.1694890    -0.7786080
  O        1.4898640     0.0841660     0.5723090
  O        0.2127210     0.0849480    -1.7048820
  O        0.4027150    -2.1095660    -0.2874290
  O        3.5281305    -0.6700965    -0.8700023
  O        3.1643710     1.8286230    -0.3742880
  O        3.8338960     0.2099350     1.5311200
  C       -4.1398760     1.5889580    -0.5252390
  H       -4.4292020     0.9309370    -1.3496150
  H       -4.8386320     1.4471050     0.3059850
  H       -4.1840730     2.6280350    -0.8559160
units angstrom
no_reorient  #important for SAPT in psi4, default
symmetry c1  #important for SAPT in psi4, default
}

set PROPERTIES_ORIGIN ["COM"]
properties('MP2/aug-cc-pvtz', properties = ['dipole'])
--------------------------------------------------------------------------

    Molecular point group: c1
  Charge       = -4
  Multiplicity = 1
  Basis Set: AUG-CC-PVTZ
    Blend: AUG-CC-PVTZ
  Basis Set: (AUG-CC-PVTZ AUX)
    Blend: AUG-CC-PVTZ-JKFIT

    Orbital Energies [Eh]
    ---------------------

    Doubly Occupied:

       1A    -79.580521     2A    -79.516809     3A    -79.471618
       4A    -20.118949     5A    -20.041488     6A    -20.014873
       7A    -20.004855     8A    -19.982835     9A    -19.936855
      10A    -19.935049    11A    -19.920203    12A    -19.915223
      13A    -19.912098    14A    -10.883265    15A     -7.094799
      16A     -7.029874    17A     -6.986068    18A     -4.993946
      19A     -4.992634    20A     -4.991730    21A     -4.929279
      22A     -4.927686    23A     -4.926561    24A     -4.885405
      25A     -4.883411    26A     -4.883213    27A     -0.931121
      28A     -0.853173    29A     -0.806739    30A     -0.778004
      31A     -0.761078    32A     -0.737262    33A     -0.706073
      34A     -0.686836    35A     -0.662633    36A     -0.658956
      37A     -0.528067    38A     -0.308262    39A     -0.251794
      40A     -0.220573    41A     -0.195964    42A     -0.164790
      43A     -0.139381    44A     -0.108008    45A     -0.093662
      46A     -0.079074    47A     -0.062645    48A     -0.051423
      49A     -0.035108    50A     -0.025264    51A     -0.012351
      52A     -0.009638    53A      0.009585    54A      0.011615
      55A      0.022249    56A      0.034434    57A      0.048234
      58A      0.055179    59A      0.062261    60A      0.081468
      61A      0.097772    62A      0.102947    63A      0.106007
      64A      0.108445    65A      0.124928    66A      0.135624
      67A      0.147269    68A      0.155025    69A      0.175089

  @DF-RHF Final Energy: -1810.67655660219384

   => Energetics <=

    Nuclear Repulsion Energy =           1426.5508967517821475
    One-Electron Energy =               -5428.1569218217482558
    Two-Electron Energy =                2190.9294684677720397
    Total Energy =                      -1810.6765566021940685
  Basis Set: (AUG-CC-PVTZ AUX)
    Blend: AUG-CC-PVTZ-RI
    Molecular point group: c1

    Geometry (in Angstrom), charge = -4, multiplicity = 1:

       Center              X                  Y                   Z               Mass
    ------------   -----------------  -----------------  -----------------  -----------------
         P           -2.573407392596    -0.225608019124     0.362774600860    30.973761998420
         P            0.303353607404    -0.576714019124    -0.367356399140    30.973761998420
         P            3.121853607404     0.407523980876     0.147043600860    30.973761998420
         O           -2.845951392596     1.350484980876    -0.123499399140    15.994914619570
         O           -0.970137392596    -0.064275019124     0.633832600860    15.994914619570
         O           -3.238788392596    -0.441237019124     1.706382600860    15.994914619570
         O           -2.903908392596    -1.150155019124    -0.787055399140    15.994914619570
         O            1.436700607404     0.103499980876     0.563861600860    15.994914619570
         O            0.159557607404     0.104281980876    -1.713329399140    15.994914619570
         O            0.349551607404    -2.090232019124    -0.295876399140    15.994914619570
         O            3.474967107404    -0.650762519124    -0.878449699140    15.994914619570
         O            3.111207607404     1.847956980876    -0.382735399140    15.994914619570
         O            3.780732607404     0.229268980876     1.522672600860    15.994914619570
         C           -4.193039392596     1.608291980876    -0.533686399140    12.000000000000
         H           -4.482365392596     0.950270980876    -1.358062399140     1.007825032230
         H           -4.891795392596     1.466438980876     0.297537600860     1.007825032230
         H           -4.237236392596     2.647368980876    -0.864363399140     1.007825032230

  Basis Set: AUG-CC-PVTZ
    Blend: AUG-CC-PVTZ
  Basis Set: (AUG-CC-PVTZ AUX)
    Blend: AUG-CC-PVTZ-JKFIT
	 Reference Energy          =   -1810.6765566021938412 [Eh]
	 Singles Energy            =      -0.0000000000000000 [Eh]
	 Same-Spin Energy          =      -0.9120210141187614 [Eh]
	 Opposite-Spin Energy      =      -2.5242900014986351 [Eh]
	 Correlation Energy        =      -3.4363110156173966 [Eh]
	 Total Energy              =   -1814.1128676178111618 [Eh]

	 ================> DF-SCS-MP2 Energies <==================
	-----------------------------------------------------------
	 SCS Same-Spin Scale       =       0.3333333333333333 [-]
	 SCS Opposite-Spin Scale   =       1.2000000000000000 [-]
	 SCS Same-Spin Energy      =      -0.3040070047062537 [Eh]
	 SCS Opposite-Spin Energy  =      -3.0291480017983621 [Eh]
	 SCS Correlation Energy    =      -3.3331550065046160 [Eh]
	 SCS Total Energy          =   -1814.0097116086983533 [Eh]
	-----------------------------------------------------------

  Dipole Moment: [D]
     X:   -14.9219      Y:     2.6217      Z:    -0.0857     Total:    15.1507

*** Psi4 exiting successfully. Buy a developer a beer!
