                               Psi4 1.3.2 release

  ==> Input File <==

--------------------------------------------------------------------------
#psi4
#
memory 32 gb

molecule  {
-4 1
  P        2.5828670     0.0826120    -0.3559070
  P       -0.1833470    -1.1435920     0.2927960
  P       -2.7088530     0.4754690    -0.2006980
  O        1.9534540     1.6068400    -0.1842610
  O        1.2509400    -0.8782220    -0.5450080
  O        3.2679280     0.0927970    -1.6978490
  O        3.3289310    -0.2934220     0.9022790
  O       -1.0379304     0.2419552    -0.2543776
  O        0.0932830    -1.0798150     1.7822090
  O       -0.7150640    -2.4305380    -0.3003910
  O       -3.2327710    -0.2685190     1.0414150
  O       -2.7128520     2.0086770    -0.0959300
  O       -3.2113930    -0.0752120    -1.5473660
  C        1.4216660     1.9681570     1.1052990
  H        1.0169430     1.1016800     1.6278780
  H        2.2027140     2.4392170     1.7103290
  H        0.6160650     2.6819120     0.9264900
units angstrom
no_reorient  #important for SAPT in psi4, default
symmetry c1  #important for SAPT in psi4, default
}

set PROPERTIES_ORIGIN ["COM"]
properties('MP2/aug-cc-pvtz', properties = ['dipole'])
--------------------------------------------------------------------------

    Molecular point group: c1
  Charge       = -4
  Multiplicity = 1
  Basis Set: AUG-CC-PVTZ
    Blend: AUG-CC-PVTZ
  Basis Set: (AUG-CC-PVTZ AUX)
    Blend: AUG-CC-PVTZ-JKFIT

    Orbital Energies [Eh]
    ---------------------

    Doubly Occupied:

       1A    -79.576706     2A    -79.542751     3A    -79.466858
       4A    -20.088009     5A    -20.047207     6A    -20.006523
       7A    -20.005816     8A    -19.994458     9A    -19.961033
      10A    -19.955724    11A    -19.911965    12A    -19.911879
      13A    -19.910234    14A    -10.813248    15A     -7.090545
      16A     -7.054209    17A     -6.981251    18A     -4.989486
      19A     -4.988571    20A     -4.987702    21A     -4.953444
      22A     -4.951888    23A     -4.951158    24A     -4.880707
      25A     -4.878632    26A     -4.878484    27A     -0.905044
      28A     -0.847842    29A     -0.804899    30A     -0.780284
      31A     -0.761113    32A     -0.747896    33A     -0.708866
      34A     -0.703274    35A     -0.654780    36A     -0.652273
      37A     -0.468537    38A     -0.298617    39A     -0.234904
      40A     -0.183008    41A     -0.164085    42A     -0.150330
      43A     -0.129951    44A     -0.101283    45A     -0.086271
      46A     -0.064233    47A     -0.052883    48A     -0.045441
      49A     -0.031206    50A     -0.017070    51A     -0.009658
      52A     -0.001431    53A      0.007375    54A      0.011852
      55A      0.024602    56A      0.035415    57A      0.049925
      58A      0.050437    59A      0.061363    60A      0.066813
      61A      0.085435    62A      0.098461    63A      0.109925
      64A      0.111319    65A      0.111473    66A      0.118955
      67A      0.153552    68A      0.159010    69A      0.179821

  @DF-RHF Final Energy: -1810.67844779973916

   => Energetics <=

    Nuclear Repulsion Energy =           1461.0680873631745271
    One-Electron Energy =               -5497.5972088021435411
    Two-Electron Energy =                2225.8506736392300809
    Total Energy =                      -1810.6784477997389331
  Basis Set: (AUG-CC-PVTZ AUX)
    Blend: AUG-CC-PVTZ-RI
    Molecular point group: c1

    Geometry (in Angstrom), charge = -4, multiplicity = 1:

       Center              X                  Y                   Z               Mass
    ------------   -----------------  -----------------  -----------------  -----------------
         P            2.601150000341     0.102948271991    -0.337267527161    30.973761998420
         P           -0.165063999659    -1.123255728009     0.311435472839    30.973761998420
         P           -2.690569999659     0.495805271991    -0.182058527161    30.973761998420
         O            1.971737000341     1.627176271991    -0.165621527161    15.994914619570
         O            1.269223000341    -0.857885728009    -0.526368527161    15.994914619570
         O            3.286211000341     0.113133271991    -1.679209527161    15.994914619570
         O            3.347214000341    -0.273085728009     0.920918472839    15.994914619570
         O           -1.019647399659     0.262291471991    -0.235738127161    15.994914619570
         O            0.111566000341    -1.059478728009     1.800848472839    15.994914619570
         O           -0.696780999659    -2.410201728009    -0.281751527161    15.994914619570
         O           -3.214487999659    -0.248182728009     1.060054472839    15.994914619570
         O           -2.694568999659     2.029013271991    -0.077290527161    15.994914619570
         O           -3.193109999659    -0.054875728009    -1.528726527161    15.994914619570
         C            1.439949000341     1.988493271991     1.123938472839    12.000000000000
         H            1.035226000341     1.122016271991     1.646517472839     1.007825032230
         H            2.220997000341     2.459553271991     1.728968472839     1.007825032230
         H            0.634348000341     2.702248271991     0.945129472839     1.007825032230

  Basis Set: AUG-CC-PVTZ
    Blend: AUG-CC-PVTZ
  Basis Set: (AUG-CC-PVTZ AUX)
    Blend: AUG-CC-PVTZ-JKFIT
	 Reference Energy          =   -1810.6784477997391605 [Eh]
	 Singles Energy            =      -0.0000000000000000 [Eh]
	 Same-Spin Energy          =      -0.9138880950672158 [Eh]
	 Opposite-Spin Energy      =      -2.5280590778146355 [Eh]
	 Correlation Energy        =      -3.4419471728818514 [Eh]
	 Total Energy              =   -1814.1203949726209430 [Eh]

	 ================> DF-SCS-MP2 Energies <==================
	-----------------------------------------------------------
	 SCS Same-Spin Scale       =       0.3333333333333333 [-]
	 SCS Opposite-Spin Scale   =       1.2000000000000000 [-]
	 SCS Same-Spin Energy      =      -0.3046293650224052 [Eh]
	 SCS Opposite-Spin Energy  =      -3.0336708933775625 [Eh]
	 SCS Correlation Energy    =      -3.3383002583999675 [Eh]
	 SCS Total Energy          =   -1814.0167480581392283 [Eh]
	-----------------------------------------------------------

  Dipole Moment: [D]
     X:    10.1273      Y:     1.8003      Z:     1.8119     Total:    10.4445

*** Psi4 exiting successfully. Buy a developer a beer!
