                               Psi4 1.3.2 release

  ==> Input File <==

--------------------------------------------------------------------------
#psi4
#
memory 32 gb

molecule  {
-4 1
  P        2.5828670     0.0826120    -0.3559070
  P       -0.1833470    -1.1435920     0.2927960
  P       -2.7088530     0.4754690    -0.2006980
  O        1.9534540     1.6068400    -0.1842610
  O        1.2509400    -0.8782220    -0.5450080
  O        3.2679280     0.0927970    -1.6978490
  O        3.3289310    -0.2934220     0.9022790
  O       -0.9881700     0.1612780    -0.2225170
  O        0.0932830    -1.0798150     1.7822090
  O       -0.7150640    -2.4305380    -0.3003910
  O       -3.2327710    -0.2685190     1.0414150
  O       -2.7128520     2.0086770    -0.0959300
  O       -3.2113930    -0.0752120    -1.5473660
  C        1.4216660     1.9681570     1.1052990
  H        1.0540802     1.1811876     1.5799263
  H        2.2027140     2.4392170     1.7103290
  H        0.6160650     2.6819120     0.9264900
units angstrom
no_reorient  #important for SAPT in psi4, default
symmetry c1  #important for SAPT in psi4, default
}

set PROPERTIES_ORIGIN ["COM"]
properties('MP2/aug-cc-pvtz', properties = ['dipole'])
--------------------------------------------------------------------------

    Molecular point group: c1
  Charge       = -4
  Multiplicity = 1
  Basis Set: AUG-CC-PVTZ
    Blend: AUG-CC-PVTZ
  Basis Set: (AUG-CC-PVTZ AUX)
    Blend: AUG-CC-PVTZ-JKFIT

    Orbital Energies [Eh]
    ---------------------

    Doubly Occupied:

       1A    -79.572520     2A    -79.526323     3A    -79.479750
       4A    -20.085309     5A    -20.037989     6A    -20.003024
       7A    -20.002512     8A    -19.992773     9A    -19.949092
      10A    -19.944819    11A    -19.923897    12A    -19.919098
      13A    -19.917227    14A    -10.802855    15A     -7.086341
      16A     -7.039255    17A     -6.993254    18A     -4.985291
      19A     -4.984344    20A     -4.983533    21A     -4.938537
      22A     -4.937147    23A     -4.936205    24A     -4.892715
      25A     -4.890531    26A     -4.890379    27A     -0.902200
      28A     -0.845495    29A     -0.806599    30A     -0.777923
      31A     -0.757681    32A     -0.741520    33A     -0.713183
      34A     -0.698802    35A     -0.663388    36A     -0.658922
      37A     -0.479853    38A     -0.295412    39A     -0.239350
      40A     -0.184190    41A     -0.172463    42A     -0.149177
      43A     -0.126099    44A     -0.098626    45A     -0.085165
      46A     -0.067577    47A     -0.052197    48A     -0.048066
      49A     -0.031873    50A     -0.015987    51A     -0.006733
      52A     -0.001029    53A      0.009130    54A      0.014871
      55A      0.021196    56A      0.037413    57A      0.047684
      58A      0.053445    59A      0.067255    60A      0.070949
      61A      0.091469    62A      0.100749    63A      0.102591
      64A      0.104085    65A      0.114339    66A      0.125728
      67A      0.144623    68A      0.150673    69A      0.172158

  @DF-RHF Final Energy: -1810.68285892736390

   => Energetics <=

    Nuclear Repulsion Energy =           1463.1815047857214722
    One-Electron Energy =               -5501.9169852781205918
    Two-Electron Energy =                2228.0526215650352242
    Total Energy =                      -1810.6828589273636680
  Basis Set: (AUG-CC-PVTZ AUX)
    Blend: AUG-CC-PVTZ-RI
    Molecular point group: c1

    Geometry (in Angstrom), charge = -4, multiplicity = 1:

       Center              X                  Y                   Z               Mass
    ------------   -----------------  -----------------  -----------------  -----------------
         P            2.598039287008     0.107466087228    -0.338989405265    30.973761998420
         P           -0.168174712992    -1.118737912772     0.309713594735    30.973761998420
         P           -2.693680712992     0.500323087228    -0.183780405265    30.973761998420
         O            1.968626287008     1.631694087228    -0.167343405265    15.994914619570
         O            1.266112287008    -0.853367912772    -0.528090405265    15.994914619570
         O            3.283100287008     0.117651087228    -1.680931405265    15.994914619570
         O            3.344103287008    -0.268567912772     0.919196594735    15.994914619570
         O           -0.972997712992     0.186132087228    -0.205599405265    15.994914619570
         O            0.108455287008    -1.054960912772     1.799126594735    15.994914619570
         O           -0.699891712992    -2.405683912772    -0.283473405265    15.994914619570
         O           -3.217598712992    -0.243664912772     1.058332594735    15.994914619570
         O           -2.697679712992     2.033531087228    -0.079012405265    15.994914619570
         O           -3.196220712992    -0.050357912772    -1.530448405265    15.994914619570
         C            1.436838287008     1.993011087228     1.122216594735    12.000000000000
         H            1.069252487008     1.206041687228     1.596843894735     1.007825032230
         H            2.217886287008     2.464071087228     1.727246594735     1.007825032230
         H            0.631237287008     2.706766087228     0.943407594735     1.007825032230

  Basis Set: AUG-CC-PVTZ
    Blend: AUG-CC-PVTZ
  Basis Set: (AUG-CC-PVTZ AUX)
    Blend: AUG-CC-PVTZ-JKFIT
	 Reference Energy          =   -1810.6828589273638954 [Eh]
	 Singles Energy            =      -0.0000000000000000 [Eh]
	 Same-Spin Energy          =      -0.9125891659947962 [Eh]
	 Opposite-Spin Energy      =      -2.5249366678148792 [Eh]
	 Correlation Energy        =      -3.4375258338096755 [Eh]
	 Total Energy              =   -1814.1203847611736819 [Eh]

	 ================> DF-SCS-MP2 Energies <==================
	-----------------------------------------------------------
	 SCS Same-Spin Scale       =       0.3333333333333333 [-]
	 SCS Opposite-Spin Scale   =       1.2000000000000000 [-]
	 SCS Same-Spin Energy      =      -0.3041963886649320 [Eh]
	 SCS Opposite-Spin Energy  =      -3.0299240013778550 [Eh]
	 SCS Correlation Energy    =      -3.3341203900427869 [Eh]
	 SCS Total Energy          =   -1814.0169793174065944 [Eh]
	-----------------------------------------------------------

  Dipole Moment: [D]
     X:     9.2927      Y:     2.4217      Z:     1.6226     Total:     9.7392

*** Psi4 exiting successfully. Buy a developer a beer!
