                               Psi4 1.3.2 release

  ==> Input File <==

--------------------------------------------------------------------------
#psi4
#
memory 32 gb

molecule  {
-4 1
  P        2.5828670     0.0826120    -0.3559070
  P       -0.1833470    -1.1435920     0.2927960
  P       -2.7088530     0.4754690    -0.2006980
  O        1.9566236     1.6188439    -0.1862559
  O        1.2509400    -0.8782220    -0.5450080
  O        3.2679280     0.0927970    -1.6978490
  O        3.3289310    -0.2934220     0.9022790
  O       -0.9881700     0.1612780    -0.2225170
  O        0.0932830    -1.0798150     1.7822090
  O       -0.7150640    -2.4305380    -0.3003910
  O       -3.2327710    -0.2685190     1.0414150
  O       -2.7128520     2.0086770    -0.0959300
  O       -3.2113930    -0.0752120    -1.5473660
  C        1.4216660     1.9681570     1.1052990
  H        1.0145783     1.1072580     1.6352088
  H        2.2027140     2.4392170     1.7103290
  H        0.6160650     2.6819120     0.9264900
units angstrom
no_reorient  #important for SAPT in psi4, default
symmetry c1  #important for SAPT in psi4, default
}

set PROPERTIES_ORIGIN ["COM"]
properties('MP2/aug-cc-pvtz', properties = ['dipole'])
--------------------------------------------------------------------------

    Molecular point group: c1
  Charge       = -4
  Multiplicity = 1
  Basis Set: AUG-CC-PVTZ
    Blend: AUG-CC-PVTZ
  Basis Set: (AUG-CC-PVTZ AUX)
    Blend: AUG-CC-PVTZ-JKFIT

    Orbital Energies [Eh]
    ---------------------

    Doubly Occupied:

       1A    -79.573632     2A    -79.527212     3A    -79.479905
       4A    -20.085979     5A    -20.039311     6A    -20.003599
       7A    -20.002953     8A    -19.993122     9A    -19.950287
      10A    -19.945539    11A    -19.923903    12A    -19.919252
      13A    -19.917431    14A    -10.810997    15A     -7.087322
      16A     -7.040150    17A     -6.993411    18A     -4.986243
      19A     -4.985333    20A     -4.984503    21A     -4.939433
      22A     -4.938034    23A     -4.937105    24A     -4.892873
      25A     -4.890684    26A     -4.890536    27A     -0.900236
      28A     -0.845931    29A     -0.806971    30A     -0.778419
      31A     -0.758097    32A     -0.742296    33A     -0.713644
      34A     -0.699850    35A     -0.663459    36A     -0.659108
      37A     -0.465482    38A     -0.294181    39A     -0.234234
      40A     -0.183702    41A     -0.162995    42A     -0.147370
      43A     -0.126310    44A     -0.099055    45A     -0.083026
      46A     -0.065307    47A     -0.051878    48A     -0.044879
      49A     -0.031860    50A     -0.016381    51A     -0.006480
      52A      0.000058    53A      0.009954    54A      0.014515
      55A      0.021510    56A      0.037180    57A      0.047223
      58A      0.052937    59A      0.066546    60A      0.070577
      61A      0.090797    62A      0.100432    63A      0.102253
      64A      0.103832    65A      0.113715    66A      0.125087
      67A      0.144479    68A      0.150427    69A      0.172030

  @DF-RHF Final Energy: -1810.68847060244047

   => Energetics <=

    Nuclear Repulsion Energy =           1462.3769637933139620
    One-Electron Energy =               -5500.3381719838607751
    Two-Electron Energy =                2227.2727375881067928
    Total Energy =                      -1810.6884706024402476
  Basis Set: (AUG-CC-PVTZ AUX)
    Blend: AUG-CC-PVTZ-RI
    Molecular point group: c1

    Geometry (in Angstrom), charge = -4, multiplicity = 1:

       Center              X                  Y                   Z               Mass
    ------------   -----------------  -----------------  -----------------  -----------------
         P            2.597998649736     0.107027505943    -0.339078271907    30.973761998420
         P           -0.168215350264    -1.119176494057     0.309624728093    30.973761998420
         P           -2.693721350264     0.499884505943    -0.183869271907    30.973761998420
         O            1.971755249736     1.643259405943    -0.169427171907    15.994914619570
         O            1.266071649736    -0.853806494057    -0.528179271907    15.994914619570
         O            3.283059649736     0.117212505943    -1.681020271907    15.994914619570
         O            3.344062649736    -0.269006494057     0.919107728093    15.994914619570
         O           -0.973038350264     0.185693505943    -0.205688271907    15.994914619570
         O            0.108414649736    -1.055399494057     1.799037728093    15.994914619570
         O           -0.699932350264    -2.406122494057    -0.283562271907    15.994914619570
         O           -3.217639350264    -0.244103494057     1.058243728093    15.994914619570
         O           -2.697720350264     2.033092505943    -0.079101271907    15.994914619570
         O           -3.196261350264    -0.050796494057    -1.530537271907    15.994914619570
         C            1.436797649736     1.992572505943     1.122127728093    12.000000000000
         H            1.029709949736     1.131673505943     1.652037528093     1.007825032230
         H            2.217845649736     2.463632505943     1.727157728093     1.007825032230
         H            0.631196649736     2.706327505943     0.943318728093     1.007825032230

  Basis Set: AUG-CC-PVTZ
    Blend: AUG-CC-PVTZ
  Basis Set: (AUG-CC-PVTZ AUX)
    Blend: AUG-CC-PVTZ-JKFIT
	 Reference Energy          =   -1810.6884706024404750 [Eh]
	 Singles Energy            =      -0.0000000000000000 [Eh]
	 Same-Spin Energy          =      -0.9131072475592948 [Eh]
	 Opposite-Spin Energy      =      -2.5260877181649044 [Eh]
	 Correlation Energy        =      -3.4391949657241994 [Eh]
	 Total Energy              =   -1814.1276655681647298 [Eh]

	 ================> DF-SCS-MP2 Energies <==================
	-----------------------------------------------------------
	 SCS Same-Spin Scale       =       0.3333333333333333 [-]
	 SCS Opposite-Spin Scale   =       1.2000000000000000 [-]
	 SCS Same-Spin Energy      =      -0.3043690825197649 [Eh]
	 SCS Opposite-Spin Energy  =      -3.0313052617978853 [Eh]
	 SCS Correlation Energy    =      -3.3356743443176500 [Eh]
	 SCS Total Energy          =   -1814.0241449467580424 [Eh]
	-----------------------------------------------------------

  Dipole Moment: [D]
     X:     9.2602      Y:     2.2879      Z:     1.6017     Total:     9.6722

*** Psi4 exiting successfully. Buy a developer a beer!
