                               Psi4 1.3.2 release

  ==> Input File <==

--------------------------------------------------------------------------
#psi4
#
memory 32 gb

molecule  {
-4 1
  P        2.5828670     0.0826120    -0.3559070
  P       -0.1833470    -1.1435920     0.2927960
  P       -2.7088530     0.4754690    -0.2006980
  O        1.9481384     1.6031200    -0.1713287
  O        1.2509400    -0.8782220    -0.5450080
  O        3.2714688     0.0802594    -1.6960722
  O        3.3289310    -0.2934220     0.9022790
  O       -0.9881700     0.1612780    -0.2225170
  O        0.0932830    -1.0798150     1.7822090
  O       -0.7150640    -2.4305380    -0.3003910
  O       -3.2327710    -0.2685190     1.0414150
  O       -2.7128520     2.0086770    -0.0959300
  O       -3.2113930    -0.0752120    -1.5473660
  C        1.4216660     1.9681570     1.1052990
  H        1.0169430     1.1016800     1.6278780
  H        2.2027140     2.4392170     1.7103290
  H        0.6160650     2.6819120     0.9264900
units angstrom
no_reorient  #important for SAPT in psi4, default
symmetry c1  #important for SAPT in psi4, default
}

set PROPERTIES_ORIGIN ["COM"]
properties('MP2/aug-cc-pvtz', properties = ['dipole'])
--------------------------------------------------------------------------

    Molecular point group: c1
  Charge       = -4
  Multiplicity = 1
  Basis Set: AUG-CC-PVTZ
    Blend: AUG-CC-PVTZ
  Basis Set: (AUG-CC-PVTZ AUX)
    Blend: AUG-CC-PVTZ-JKFIT

    Orbital Energies [Eh]
    ---------------------

    Doubly Occupied:

       1A    -79.573063     2A    -79.526714     3A    -79.479791
       4A    -20.085548     5A    -20.037981     6A    -20.003697
       7A    -20.002181     8A    -19.992861     9A    -19.949854
      10A    -19.945092    11A    -19.923862    12A    -19.919163
      13A    -19.917293    14A    -10.810770    15A     -7.086846
      16A     -7.039650    17A     -6.993295    18A     -4.985804
      19A     -4.984840    20A     -4.984043    21A     -4.938927
      22A     -4.937540    23A     -4.936609    24A     -4.892756
      25A     -4.890571    26A     -4.890421    27A     -0.904461
      28A     -0.846514    29A     -0.807366    30A     -0.778124
      31A     -0.757593    32A     -0.741913    33A     -0.713416
      34A     -0.699419    35A     -0.663391    36A     -0.658991
      37A     -0.466881    38A     -0.294016    39A     -0.235834
      40A     -0.184938    41A     -0.165564    42A     -0.151356
      43A     -0.126069    44A     -0.098874    45A     -0.083265
      46A     -0.064839    47A     -0.051982    48A     -0.043315
      49A     -0.031492    50A     -0.016178    51A     -0.006339
      52A      0.000459    53A      0.009858    54A      0.014713
      55A      0.021785    56A      0.036781    57A      0.047478
      58A      0.053863    59A      0.067101    60A      0.070977
      61A      0.091179    62A      0.100601    63A      0.102425
      64A      0.103987    65A      0.114117    66A      0.125485
      67A      0.144589    68A      0.150565    69A      0.172122

  @DF-RHF Final Energy: -1810.68955036226680

   => Energetics <=

    Nuclear Repulsion Energy =           1463.2078449604146044
    One-Electron Energy =               -5502.0083541183539637
    Two-Electron Energy =                2228.1109587956725591
    Total Energy =                      -1810.6895503622668002
  Basis Set: (AUG-CC-PVTZ AUX)
    Blend: AUG-CC-PVTZ-RI
    Molecular point group: c1

    Geometry (in Angstrom), charge = -4, multiplicity = 1:

       Center              X                  Y                   Z               Mass
    ------------   -----------------  -----------------  -----------------  -----------------
         P            2.598284964765     0.108735875992    -0.340048024795    30.973761998420
         P           -0.167929035235    -1.117468124008     0.308654975205    30.973761998420
         P           -2.693435035235     0.501592875992    -0.184839024795    30.973761998420
         O            1.963556364765     1.629243875992    -0.155469724795    15.994914619570
         O            1.266357964765    -0.852098124008    -0.529149024795    15.994914619570
         O            3.286886764765     0.106383275992    -1.680213224795    15.994914619570
         O            3.344348964765    -0.267298124008     0.918137975205    15.994914619570
         O           -0.972752035235     0.187401875992    -0.206658024795    15.994914619570
         O            0.108700964765    -1.053691124008     1.798067975205    15.994914619570
         O           -0.699646035235    -2.404414124008    -0.284532024795    15.994914619570
         O           -3.217353035235    -0.242395124008     1.057273975205    15.994914619570
         O           -2.697434035235     2.034800875992    -0.080071024795    15.994914619570
         O           -3.195975035235    -0.049088124008    -1.531507024795    15.994914619570
         C            1.437083964765     1.994280875992     1.121157975205    12.000000000000
         H            1.032360964765     1.127803875992     1.643736975205     1.007825032230
         H            2.218131964765     2.465340875992     1.726187975205     1.007825032230
         H            0.631482964765     2.708035875992     0.942348975205     1.007825032230

  Basis Set: AUG-CC-PVTZ
    Blend: AUG-CC-PVTZ
  Basis Set: (AUG-CC-PVTZ AUX)
    Blend: AUG-CC-PVTZ-JKFIT
	 Reference Energy          =   -1810.6895503622668002 [Eh]
	 Singles Energy            =      -0.0000000000000000 [Eh]
	 Same-Spin Energy          =      -0.9129160299725769 [Eh]
	 Opposite-Spin Energy      =      -2.5253879920185867 [Eh]
	 Correlation Energy        =      -3.4383040219911636 [Eh]
	 Total Energy              =   -1814.1278543842579438 [Eh]

	 ================> DF-SCS-MP2 Energies <==================
	-----------------------------------------------------------
	 SCS Same-Spin Scale       =       0.3333333333333333 [-]
	 SCS Opposite-Spin Scale   =       1.2000000000000000 [-]
	 SCS Same-Spin Energy      =      -0.3043053433241923 [Eh]
	 SCS Opposite-Spin Energy  =      -3.0304655904223039 [Eh]
	 SCS Correlation Energy    =      -3.3347709337464964 [Eh]
	 SCS Total Energy          =   -1814.0243212960133405 [Eh]
	-----------------------------------------------------------

  Dipole Moment: [D]
     X:     9.2687      Y:     2.3574      Z:     1.5638     Total:     9.6908

*** Psi4 exiting successfully. Buy a developer a beer!
