                               Psi4 1.3.2 release

  ==> Input File <==

--------------------------------------------------------------------------
#psi4
#
memory 32 gb

molecule  {
-4 1
  P        2.5828670     0.0826120    -0.3559070
  P       -0.1833470    -1.1435920     0.2927960
  P       -2.7088530     0.4754690    -0.2006980
  O        1.9534540     1.6068400    -0.1842610
  O        1.2509400    -0.8782220    -0.5450080
  O        3.2224611     0.0921210    -1.6087855
  O        3.3289310    -0.2934220     0.9022790
  O       -0.9881700     0.1612780    -0.2225170
  O        0.0932830    -1.0798150     1.7822090
  O       -0.7150640    -2.4305380    -0.3003910
  O       -3.2327710    -0.2685190     1.0414150
  O       -2.7128520     2.0086770    -0.0959300
  O       -3.2113930    -0.0752120    -1.5473660
  C        1.4216660     1.9681570     1.1052990
  H        1.0169430     1.1016800     1.6278780
  H        2.2027140     2.4392170     1.7103290
  H        0.6160650     2.6819120     0.9264900
units angstrom
no_reorient  #important for SAPT in psi4, default
symmetry c1  #important for SAPT in psi4, default
}

set PROPERTIES_ORIGIN ["COM"]
properties('MP2/aug-cc-pvtz', properties = ['dipole'])
--------------------------------------------------------------------------

    Molecular point group: c1
  Charge       = -4
  Multiplicity = 1
  Basis Set: AUG-CC-PVTZ
    Blend: AUG-CC-PVTZ
  Basis Set: (AUG-CC-PVTZ AUX)
    Blend: AUG-CC-PVTZ-JKFIT

    Orbital Energies [Eh]
    ---------------------

    Doubly Occupied:

       1A    -79.550048     2A    -79.522957     3A    -79.478112
       4A    -20.078384     5A    -20.030798     6A    -19.996581
       7A    -19.993447     8A    -19.990162     9A    -19.946533
      10A    -19.942227    11A    -19.922300    12A    -19.917802
      13A    -19.915677    14A    -10.806805    15A     -7.069108
      16A     -7.035900    17A     -6.991607    18A     -4.967838
      19A     -4.967170    20A     -4.966005    21A     -4.935136
      22A     -4.933826    23A     -4.932896    24A     -4.891058
      25A     -4.888891    26A     -4.888744    27A     -0.904781
      28A     -0.842412    29A     -0.821539    30A     -0.782269
      31A     -0.759405    32A     -0.739194    33A     -0.711086
      34A     -0.696414    35A     -0.661851    36A     -0.657485
      37A     -0.461619    38A     -0.286971    39A     -0.230775
      40A     -0.181635    41A     -0.159541    42A     -0.145452
      43A     -0.127232    44A     -0.098452    45A     -0.084511
      46A     -0.062182    47A     -0.053385    48A     -0.041709
      49A     -0.029385    50A     -0.015816    51A     -0.006990
      52A      0.000312    53A      0.009725    54A      0.012041
      55A      0.022631    56A      0.031502    57A      0.049599
      58A      0.058324    59A      0.068935    60A      0.072560
      61A      0.093888    62A      0.102397    63A      0.104438
      64A      0.105893    65A      0.116858    66A      0.128232
      67A      0.146304    68A      0.152262    69A      0.173620

  @DF-RHF Final Energy: -1810.68179891319278

   => Energetics <=

    Nuclear Repulsion Energy =           1468.3067524003461131
    One-Electron Energy =               -5512.6319353209273686
    Two-Electron Energy =                2233.6433840073882493
    Total Energy =                      -1810.6817989131927789
  Basis Set: (AUG-CC-PVTZ AUX)
    Blend: AUG-CC-PVTZ-RI
    Molecular point group: c1

    Geometry (in Angstrom), charge = -4, multiplicity = 1:

       Center              X                  Y                   Z               Mass
    ------------   -----------------  -----------------  -----------------  -----------------
         P            2.600893651973     0.107805558598    -0.344487439978    30.973761998420
         P           -0.165320348027    -1.118398441402     0.304215560022    30.973761998420
         P           -2.690826348027     0.500662558598    -0.189278439978    30.973761998420
         O            1.971480651973     1.632033558598    -0.172841439978    15.994914619570
         O            1.268966651973    -0.853028441402    -0.533588439978    15.994914619570
         O            3.240487751973     0.117314558598    -1.597365939978    15.994914619570
         O            3.346957651973    -0.268228441402     0.913698560022    15.994914619570
         O           -0.970143348027     0.186471558598    -0.211097439978    15.994914619570
         O            0.111309651973    -1.054621441402     1.793628560022    15.994914619570
         O           -0.697037348027    -2.405344441402    -0.288971439978    15.994914619570
         O           -3.214744348027    -0.243325441402     1.052834560022    15.994914619570
         O           -2.694825348027     2.033870558598    -0.084510439978    15.994914619570
         O           -3.193366348027    -0.050018441402    -1.535946439978    15.994914619570
         C            1.439692651973     1.993350558598     1.116718560022    12.000000000000
         H            1.034969651973     1.126873558598     1.639297560022     1.007825032230
         H            2.220740651973     2.464410558598     1.721748560022     1.007825032230
         H            0.634091651973     2.707105558598     0.937909560022     1.007825032230

  Basis Set: AUG-CC-PVTZ
    Blend: AUG-CC-PVTZ
  Basis Set: (AUG-CC-PVTZ AUX)
    Blend: AUG-CC-PVTZ-JKFIT
	 Reference Energy          =   -1810.6817989131927789 [Eh]
	 Singles Energy            =      -0.0000000000000000 [Eh]
	 Same-Spin Energy          =      -0.9112424951850279 [Eh]
	 Opposite-Spin Energy      =      -2.5212606534334490 [Eh]
	 Correlation Energy        =      -3.4325031486184767 [Eh]
	 Total Energy              =   -1814.1143020618112587 [Eh]

	 ================> DF-SCS-MP2 Energies <==================
	-----------------------------------------------------------
	 SCS Same-Spin Scale       =       0.3333333333333333 [-]
	 SCS Opposite-Spin Scale   =       1.2000000000000000 [-]
	 SCS Same-Spin Energy      =      -0.3037474983950093 [Eh]
	 SCS Opposite-Spin Energy  =      -3.0255127841201386 [Eh]
	 SCS Correlation Energy    =      -3.3292602825151478 [Eh]
	 SCS Total Energy          =   -1814.0110591957079578 [Eh]
	-----------------------------------------------------------

  Dipole Moment: [D]
     X:     9.7135      Y:     2.3456      Z:     0.9951     Total:    10.0421

*** Psi4 exiting successfully. Buy a developer a beer!
