                               Psi4 1.4a3.dev225

  ==> Input File <==

--------------------------------------------------------------------------
#psi4
#
memory 32 gb

molecule  {
-4 1
  P       -2.5202440    -0.2449420     0.3712220
  P        0.3565170    -0.5960480    -0.3589090
  P        3.1750170     0.3881900     0.1554910
  O       -2.7927880     1.3311510    -0.1150520
  O       -0.9169740    -0.0836090     0.6422800
  O       -3.1856250    -0.4605710     1.7148300
  O       -2.8507450    -1.1694890    -0.7786080
  O        1.4420544     0.0755405     0.5841346
  O        0.2127210     0.0849480    -1.7048820
  O        0.4027150    -2.1095660    -0.2874290
  O        3.5327910    -0.6840640    -0.8835370
  O        3.1643710     1.8286230    -0.3742880
  O        3.8338960     0.2099350     1.5311200
  C       -4.1398760     1.5889580    -0.5252390
  H       -4.4292020     0.9309370    -1.3496150
  H       -4.8386320     1.4471050     0.3059850
  H       -4.1840730     2.6280350    -0.8559160
units angstrom
no_reorient  #important for SAPT in psi4, default
symmetry c1  #important for SAPT in psi4, default
}

set PROPERTIES_ORIGIN ["COM"]
properties('MP2/aug-cc-pvtz', properties = ['dipole'])
--------------------------------------------------------------------------

    Molecular point group: c1
  Charge       = -4
  Multiplicity = 1
  Basis Set: AUG-CC-PVTZ
    Blend: AUG-CC-PVTZ
  Basis Set: (AUG-CC-PVTZ AUX)
    Blend: AUG-CC-PVTZ-JKFIT

    Orbital Energies [Eh]
    ---------------------

    Doubly Occupied:

       1A    -79.577280     2A    -79.509498     3A    -79.482139
       4A    -20.116949     5A    -20.036247     6A    -20.012518
       7A    -20.002440     8A    -19.982074     9A    -19.932658
      10A    -19.932245    11A    -19.927287    12A    -19.922447
      13A    -19.918536    14A    -10.881703    15A     -7.091626
      16A     -7.023416    17A     -6.995603    18A     -4.990773
      19A     -4.989431    20A     -4.988573    21A     -4.922846
      22A     -4.921238    23A     -4.920065    24A     -4.894975
      25A     -4.892794    26A     -4.892672    27A     -0.928941
      28A     -0.850854    29A     -0.805651    30A     -0.774396
      31A     -0.758689    32A     -0.737587    33A     -0.706509
      34A     -0.683643    35A     -0.666589    36A     -0.661866
      37A     -0.526408    38A     -0.305032    39A     -0.248679
      40A     -0.218904    41A     -0.193389    42A     -0.162057
      43A     -0.136702    44A     -0.105699    45A     -0.094233
      46A     -0.077142    47A     -0.061988    48A     -0.050104
      49A     -0.033408    50A     -0.023320    51A     -0.010890
      52A     -0.008592    53A      0.011057    54A      0.011896
      55A      0.019558    56A      0.036965    57A      0.050616
      58A      0.056101    59A      0.064685    60A      0.083688
      61A      0.097175    62A      0.099465    63A      0.105024
      64A      0.107395    65A      0.127423    66A      0.136002
      67A      0.143437    68A      0.151386    69A      0.169775

  @DF-RHF Final Energy: -1810.67319969437858

   => Energetics <=

    Nuclear Repulsion Energy =           1425.6876614958239315
    One-Electron Energy =               -5426.4864125336089273
    Two-Electron Energy =                2190.1255513434066415
    Total Energy =                      -1810.6731996943785816
  Basis Set: (AUG-CC-PVTZ AUX)
    Blend: AUG-CC-PVTZ-RI
    Molecular point group: c1

    Geometry (in Angstrom), charge = -4, multiplicity = 1:

       Center              X                  Y                   Z               Mass
    ------------   -----------------  -----------------  -----------------  -----------------
         P           -2.570831125829    -0.224259078009     0.362876644646    30.973761998420
         P            0.305929874171    -0.575365078009    -0.367254355354    30.973761998420
         P            3.124429874171     0.408872921991     0.147145644646    30.973761998420
         O           -2.843375125829     1.351833921991    -0.123397355354    15.994914619570
         O           -0.967561125829    -0.062926078009     0.633934644646    15.994914619570
         O           -3.236212125829    -0.439888078009     1.706484644646    15.994914619570
         O           -2.901332125829    -1.148806078009    -0.786953355354    15.994914619570
         O            1.391467274171     0.096223421991     0.575789244646    15.994914619570
         O            0.162133874171     0.105630921991    -1.713227355354    15.994914619570
         O            0.352127874171    -2.088883078009    -0.295774355354    15.994914619570
         O            3.482203874171    -0.663381078009    -0.891882355354    15.994914619570
         O            3.113783874171     1.849305921991    -0.382633355354    15.994914619570
         O            3.783308874171     0.230617921991     1.522774644646    15.994914619570
         C           -4.190463125829     1.609640921991    -0.533584355354    12.000000000000
         H           -4.479789125829     0.951619921991    -1.357960355354     1.007825032230
         H           -4.889219125829     1.467787921991     0.297639644646     1.007825032230
         H           -4.234660125829     2.648717921991    -0.864261355354     1.007825032230

  Basis Set: AUG-CC-PVTZ
    Blend: AUG-CC-PVTZ
  Basis Set: (AUG-CC-PVTZ AUX)
    Blend: AUG-CC-PVTZ-JKFIT
	 Reference Energy          =   -1810.6731996943785816 [Eh]
	 Singles Energy            =      -0.0000000000000000 [Eh]
	 Same-Spin Energy          =      -0.9125843624423184 [Eh]
	 Opposite-Spin Energy      =      -2.5256772672426870 [Eh]
	 Correlation Energy        =      -3.4382616296850053 [Eh]
	 Total Energy              =   -1814.1114613240636118 [Eh]

	 ================> DF-SCS-MP2 Energies <==================
	-----------------------------------------------------------
	 SCS Same-Spin Scale       =       0.3333333333333333 [-]
	 SCS Opposite-Spin Scale   =       1.2000000000000000 [-]
	 SCS Same-Spin Energy      =      -0.3041947874807728 [Eh]
	 SCS Opposite-Spin Energy  =      -3.0308127206912245 [Eh]
	 SCS Correlation Energy    =      -3.3350075081719974 [Eh]
	 SCS Total Energy          =   -1814.0082072025504658 [Eh]
	-----------------------------------------------------------

  Dipole Moment: [D]
     X:   -14.4050      Y:     2.8593      Z:     0.0351     Total:    14.6861

*** Psi4 exiting successfully. Buy a developer a beer!
