                               Psi4 1.3.2 release

  ==> Input File <==

--------------------------------------------------------------------------
#psi4
#
memory 32 gb

molecule  {
-4 1
  P        2.5828670     0.0826120    -0.3559070
  P       -0.1955591    -1.1495239     0.2966551
  P       -2.7111964     0.4618187    -0.1942789
  O        1.9534540     1.6068400    -0.1842610
  O        1.2509400    -0.8782220    -0.5450080
  O        3.2679280     0.0927970    -1.6978490
  O        3.3289310    -0.2934220     0.9022790
  O       -0.9881700     0.1612780    -0.2225170
  O        0.0932830    -1.0798150     1.7822090
  O       -0.7150640    -2.4305380    -0.3003910
  O       -3.2327710    -0.2685190     1.0414150
  O       -2.7128520     2.0086770    -0.0959300
  O       -3.2113930    -0.0752120    -1.5473660
  C        1.4216660     1.9681570     1.1052990
  H        1.0169430     1.1016800     1.6278780
  H        2.2027140     2.4392170     1.7103290
  H        0.6160650     2.6819120     0.9264900
units angstrom
no_reorient  #important for SAPT in psi4, default
symmetry c1  #important for SAPT in psi4, default
}

set PROPERTIES_ORIGIN ["COM"]
properties('MP2/aug-cc-pvtz', properties = ['dipole'])
--------------------------------------------------------------------------

    Molecular point group: c1
  Charge       = -4
  Multiplicity = 1
  Basis Set: AUG-CC-PVTZ
    Blend: AUG-CC-PVTZ
  Basis Set: (AUG-CC-PVTZ AUX)
    Blend: AUG-CC-PVTZ-JKFIT

    Orbital Energies [Eh]
    ---------------------

    Doubly Occupied:

       1A    -79.570525     2A    -79.527142     3A    -79.480283
       4A    -20.084216     5A    -20.034872     6A    -20.001375
       7A    -20.001023     8A    -19.994327     9A    -19.951261
      10A    -19.947980    11A    -19.921764    12A    -19.920569
      13A    -19.919667    14A    -10.810737    15A     -7.084349
      16A     -7.040294    17A     -6.993834    18A     -4.983304
      19A     -4.982338    20A     -4.981554    21A     -4.939546
      22A     -4.938149    23A     -4.937266    24A     -4.893286
      25A     -4.891091    26A     -4.890980    27A     -0.899990
      28A     -0.843191    29A     -0.806567    30A     -0.776384
      31A     -0.756142    32A     -0.743260    33A     -0.715050
      34A     -0.703585    35A     -0.664365    36A     -0.659072
      37A     -0.465708    38A     -0.290364    39A     -0.233385
      40A     -0.182311    41A     -0.162694    42A     -0.147418
      43A     -0.124891    44A     -0.099818    45A     -0.080961
      46A     -0.064851    47A     -0.051557    48A     -0.043162
      49A     -0.032234    50A     -0.015877    51A     -0.005082
      52A     -0.000219    53A      0.010327    54A      0.015858
      55A      0.020383    56A      0.038555    57A      0.046347
      58A      0.054939    59A      0.066408    60A      0.071199
      61A      0.089472    62A      0.099692    63A      0.101986
      64A      0.103912    65A      0.111732    66A      0.122840
      67A      0.143515    68A      0.149737    69A      0.171460

  @DF-RHF Final Energy: -1810.68902074451239

   => Energetics <=

    Nuclear Repulsion Energy =           1462.7798531840992382
    One-Electron Energy =               -5501.1947392926404063
    Two-Electron Energy =                2227.7258653640287775
    Total Energy =                      -1810.6890207445126180
  Basis Set: (AUG-CC-PVTZ AUX)
    Blend: AUG-CC-PVTZ-RI
    Molecular point group: c1

    Geometry (in Angstrom), charge = -4, multiplicity = 1:

       Center              X                  Y                   Z               Mass
    ------------   -----------------  -----------------  -----------------  -----------------
         P            2.599861898047     0.110029281586    -0.340358161456    30.973761998420
         P           -0.178564201953    -1.122106618414     0.312203938544    30.973761998420
         P           -2.694201501953     0.489235981586    -0.178730061456    30.973761998420
         O            1.970448898047     1.634257281586    -0.168712161456    15.994914619570
         O            1.267934898047    -0.850804718414    -0.529459161456    15.994914619570
         O            3.284922898047     0.120214281586    -1.682300161456    15.994914619570
         O            3.345925898047    -0.266004718414     0.917827838544    15.994914619570
         O           -0.971175101953     0.188695281586    -0.206968161456    15.994914619570
         O            0.110277898047    -1.052397718414     1.797757838544    15.994914619570
         O           -0.698069101953    -2.403120718414    -0.284842161456    15.994914619570
         O           -3.215776101953    -0.241101718414     1.056963838544    15.994914619570
         O           -2.695857101953     2.036094281586    -0.080381161456    15.994914619570
         O           -3.194398101953    -0.047794718414    -1.531817161456    15.994914619570
         C            1.438660898047     1.995574281586     1.120847838544    12.000000000000
         H            1.033937898047     1.129097281586     1.643426838544     1.007825032230
         H            2.219708898047     2.466634281586     1.725877838544     1.007825032230
         H            0.633059898047     2.709329281586     0.942038838544     1.007825032230

  Basis Set: AUG-CC-PVTZ
    Blend: AUG-CC-PVTZ
  Basis Set: (AUG-CC-PVTZ AUX)
    Blend: AUG-CC-PVTZ-JKFIT
	 Reference Energy          =   -1810.6890207445123906 [Eh]
	 Singles Energy            =      -0.0000000000000000 [Eh]
	 Same-Spin Energy          =      -0.9130058841112706 [Eh]
	 Opposite-Spin Energy      =      -2.5257956778115593 [Eh]
	 Correlation Energy        =      -3.4388015619228298 [Eh]
	 Total Energy              =   -1814.1278223064352915 [Eh]

	 ================> DF-SCS-MP2 Energies <==================
	-----------------------------------------------------------
	 SCS Same-Spin Scale       =       0.3333333333333333 [-]
	 SCS Opposite-Spin Scale   =       1.2000000000000000 [-]
	 SCS Same-Spin Energy      =      -0.3043352947037569 [Eh]
	 SCS Opposite-Spin Energy  =      -3.0309548133738713 [Eh]
	 SCS Correlation Energy    =      -3.3352901080776283 [Eh]
	 SCS Total Energy          =   -1814.0243108525899061 [Eh]
	-----------------------------------------------------------

  Dipole Moment: [D]
     X:     9.0332      Y:     2.0483      Z:     1.7270     Total:     9.4222

*** Psi4 exiting successfully. Buy a developer a beer!
