                               Psi4 1.3.2 release

  ==> Input File <==

--------------------------------------------------------------------------
#psi4
#
memory 32 gb

molecule  {
-4 1
  P        2.5828670     0.0826120    -0.3559070
  P       -0.1833470    -1.1435920     0.2927960
  P       -2.7088530     0.4754690    -0.2006980
  O        1.9534540     1.6068400    -0.1842610
  O        1.2509400    -0.8782220    -0.5450080
  O        3.2679280     0.0927970    -1.6978490
  O        3.3289310    -0.2934220     0.9022790
  O       -0.9881700     0.1612780    -0.2225170
  O        0.0932830    -1.0798150     1.7822090
  O       -0.7150640    -2.4305380    -0.3003910
  O       -3.2327710    -0.2685190     1.0414150
  O       -2.7128520     2.0086770    -0.0959300
  O       -3.2113930    -0.0752120    -1.5473660
  C        1.4954772     1.9180069     0.9263105
  H        1.0169430     1.1016800     1.6278780
  H        2.2027140     2.4392170     1.7103290
  H        0.6160650     2.6819120     0.9264900
units angstrom
no_reorient  #important for SAPT in psi4, default
symmetry c1  #important for SAPT in psi4, default
}

set PROPERTIES_ORIGIN ["COM"]
properties('MP2/aug-cc-pvtz', properties = ['dipole'])
--------------------------------------------------------------------------

    Molecular point group: c1
  Charge       = -4
  Multiplicity = 1
  Basis Set: AUG-CC-PVTZ
    Blend: AUG-CC-PVTZ
  Basis Set: (AUG-CC-PVTZ AUX)
    Blend: AUG-CC-PVTZ-JKFIT

    Orbital Energies [Eh]
    ---------------------

    Doubly Occupied:

       1A    -79.585682     2A    -79.529304     3A    -79.480092
       4A    -20.103894     5A    -20.046874     6A    -20.011830
       7A    -20.011503     8A    -19.994533     9A    -19.950535
      10A    -19.947674    11A    -19.923297    12A    -19.919722
      13A    -19.917468    14A    -10.821513    15A     -7.099699
      16A     -7.042294    17A     -6.993604    18A     -4.998847
      19A     -4.997538    20A     -4.996653    21A     -4.941619
      22A     -4.940143    23A     -4.939196    24A     -4.893079
      25A     -4.890858    26A     -4.890725    27A     -0.983282
      28A     -0.863702    29A     -0.816811    30A     -0.783739
      31A     -0.766423    32A     -0.744061    33A     -0.714385
      34A     -0.701132    35A     -0.663186    36A     -0.659350
      37A     -0.450318    38A     -0.308864    39A     -0.263690
      40A     -0.205064    41A     -0.195950    42A     -0.178412
      43A     -0.130339    44A     -0.101216    45A     -0.091548
      46A     -0.066408    47A     -0.054965    48A     -0.035157
      49A     -0.027536    50A     -0.019145    51A     -0.002180
      52A      0.005272    53A      0.011938    54A      0.016010
      55A      0.030647    56A      0.039598    57A      0.045882
      58A      0.049500    59A      0.060143    60A      0.069986
      61A      0.088957    62A      0.100152    63A      0.101991
      64A      0.103519    65A      0.113148    66A      0.125104
      67A      0.144561    68A      0.150004    69A      0.172060

  @DF-RHF Final Energy: -1810.65301243916451

   => Energetics <=

    Nuclear Repulsion Energy =           1467.4738791482313900
    One-Electron Energy =               -5509.7206493322491951
    Two-Electron Energy =                2231.5937577448530647
    Total Energy =                      -1810.6530124391647405
  Basis Set: (AUG-CC-PVTZ AUX)
    Blend: AUG-CC-PVTZ-RI
    Molecular point group: c1

    Geometry (in Angstrom), charge = -4, multiplicity = 1:

       Center              X                  Y                   Z               Mass
    ------------   -----------------  -----------------  -----------------  -----------------
         P            2.594872710326     0.110011613389    -0.331152216664    30.973761998420
         P           -0.171341289674    -1.116192386611     0.317550783336    30.973761998420
         P           -2.696847289674     0.502868613389    -0.175943216664    30.973761998420
         O            1.965459710326     1.634239613389    -0.159506216664    15.994914619570
         O            1.262945710326    -0.850822386611    -0.520253216664    15.994914619570
         O            3.279933710326     0.120196613389    -1.673094216664    15.994914619570
         O            3.340936710326    -0.266022386611     0.927033783336    15.994914619570
         O           -0.976164289674     0.188677613389    -0.197762216664    15.994914619570
         O            0.105288710326    -1.052415386611     1.806963783336    15.994914619570
         O           -0.703058289674    -2.403138386611    -0.275636216664    15.994914619570
         O           -3.220765289674    -0.241119386611     1.066169783336    15.994914619570
         O           -2.700846289674     2.036076613389    -0.071175216664    15.994914619570
         O           -3.199387289674    -0.047812386611    -1.522611216664    15.994914619570
         C            1.507482910326     1.945406513389     0.951065283336    12.000000000000
         H            1.028948710326     1.129079613389     1.652632783336     1.007825032230
         H            2.214719710326     2.466616613389     1.735083783336     1.007825032230
         H            0.628070710326     2.709311613389     0.951244783336     1.007825032230

  Basis Set: AUG-CC-PVTZ
    Blend: AUG-CC-PVTZ
  Basis Set: (AUG-CC-PVTZ AUX)
    Blend: AUG-CC-PVTZ-JKFIT
	 Reference Energy          =   -1810.6530124391645131 [Eh]
	 Singles Energy            =      -0.0000000000000000 [Eh]
	 Same-Spin Energy          =      -0.9142019943916670 [Eh]
	 Opposite-Spin Energy      =      -2.5253731099388435 [Eh]
	 Correlation Energy        =      -3.4395751043305105 [Eh]
	 Total Energy              =   -1814.0925875434950285 [Eh]

	 ================> DF-SCS-MP2 Energies <==================
	-----------------------------------------------------------
	 SCS Same-Spin Scale       =       0.3333333333333333 [-]
	 SCS Opposite-Spin Scale   =       1.2000000000000000 [-]
	 SCS Same-Spin Energy      =      -0.3047339981305557 [Eh]
	 SCS Opposite-Spin Energy  =      -3.0304477319266119 [Eh]
	 SCS Correlation Energy    =      -3.3351817300571676 [Eh]
	 SCS Total Energy          =   -1813.9881941692217424 [Eh]
	-----------------------------------------------------------

  Dipole Moment: [D]
     X:     9.5063      Y:     1.5526      Z:     0.6448     Total:     9.6538

*** Psi4 exiting successfully. Buy a developer a beer!
