                               Psi4 1.3.2 release

  ==> Input File <==

--------------------------------------------------------------------------
#psi4
#
memory 32 gb

molecule  {
-4 1
  P        2.5796891     0.0798105    -0.3420726
  P       -0.1833470    -1.1435920     0.2927960
  P       -2.7088530     0.4754690    -0.2006980
  O        1.9534540     1.6068400    -0.1842610
  O        1.2509400    -0.8782220    -0.5450080
  O        3.2679280     0.0927970    -1.6978490
  O        3.3289310    -0.2934220     0.9022790
  O       -0.9881700     0.1612780    -0.2225170
  O        0.0932830    -1.0798150     1.7822090
  O       -0.7150640    -2.4305380    -0.3003910
  O       -3.2327710    -0.2685190     1.0414150
  O       -2.7128520     2.0086770    -0.0959300
  O       -3.2113930    -0.0752120    -1.5473660
  C        1.4246468     1.9567472     1.1096638
  H        1.0169430     1.1016800     1.6278780
  H        2.2027140     2.4392170     1.7103290
  H        0.6160650     2.6819120     0.9264900
units angstrom
no_reorient  #important for SAPT in psi4, default
symmetry c1  #important for SAPT in psi4, default
}

set PROPERTIES_ORIGIN ["COM"]
properties('MP2/aug-cc-pvtz', properties = ['dipole'])
--------------------------------------------------------------------------

    Molecular point group: c1
  Charge       = -4
  Multiplicity = 1
  Basis Set: AUG-CC-PVTZ
    Blend: AUG-CC-PVTZ
  Basis Set: (AUG-CC-PVTZ AUX)
    Blend: AUG-CC-PVTZ-JKFIT

    Orbital Energies [Eh]
    ---------------------

    Doubly Occupied:

       1A    -79.572498     2A    -79.527476     3A    -79.480040
       4A    -20.086568     5A    -20.039459     6A    -20.004870
       7A    -19.999702     8A    -19.993374     9A    -19.950931
      10A    -19.945697    11A    -19.924016    12A    -19.919329
      13A    -19.917588    14A    -10.812203    15A     -7.086357
      16A     -7.040437    17A     -6.993546    18A     -4.985297
      19A     -4.984358    20A     -4.983534    21A     -4.939714
      22A     -4.938320    23A     -4.937397    24A     -4.893009
      25A     -4.890818    26A     -4.890670    27A     -0.902863
      28A     -0.846759    29A     -0.806760    30A     -0.779092
      31A     -0.755902    32A     -0.742223    33A     -0.713903
      34A     -0.700257    35A     -0.663574    36A     -0.659228
      37A     -0.466706    38A     -0.294683    39A     -0.235654
      40A     -0.184210    41A     -0.165898    42A     -0.146951
      43A     -0.126497    44A     -0.099377    45A     -0.082672
      46A     -0.065969    47A     -0.050944    48A     -0.045790
      49A     -0.032510    50A     -0.016170    51A     -0.007139
      52A     -0.000465    53A      0.009241    54A      0.014848
      55A      0.021207    56A      0.039861    57A      0.047000
      58A      0.052023    59A      0.066764    60A      0.071355
      61A      0.090797    62A      0.100221    63A      0.102100
      64A      0.103649    65A      0.113331    66A      0.124699
      67A      0.144334    68A      0.150284    69A      0.171915

  @DF-RHF Final Energy: -1810.68852026788977

   => Energetics <=

    Nuclear Repulsion Energy =           1463.3352707707306308
    One-Electron Energy =               -5502.2360342775373283
    Two-Electron Energy =                2228.2122432389164715
    Total Energy =                      -1810.6885202678899986
  Basis Set: (AUG-CC-PVTZ AUX)
    Blend: AUG-CC-PVTZ-RI
    Molecular point group: c1

    Geometry (in Angstrom), charge = -4, multiplicity = 1:

       Center              X                  Y                   Z               Mass
    ------------   -----------------  -----------------  -----------------  -----------------
         P            2.595235004009     0.105798694184    -0.327130443758    30.973761998420
         P           -0.167801095991    -1.117603805816     0.307738156242    30.973761998420
         P           -2.693307095991     0.501457194184    -0.185755843758    30.973761998420
         O            1.968999904009     1.632828194184    -0.169318843758    15.994914619570
         O            1.266485904009    -0.852233805816    -0.530065843758    15.994914619570
         O            3.283473904009     0.118785194184    -1.682906843758    15.994914619570
         O            3.344476904009    -0.267433805816     0.917221156242    15.994914619570
         O           -0.972624095991     0.187266194184    -0.207574843758    15.994914619570
         O            0.108828904009    -1.053826805816     1.797151156242    15.994914619570
         O           -0.699518095991    -2.404549805816    -0.285448843758    15.994914619570
         O           -3.217225095991    -0.242530805816     1.056357156242    15.994914619570
         O           -2.697306095991     2.034665194184    -0.080987843758    15.994914619570
         O           -3.195847095991    -0.049223805816    -1.532423843758    15.994914619570
         C            1.440192704009     1.982735394184     1.124605956242    12.000000000000
         H            1.032488904009     1.127668194184     1.642820156242     1.007825032230
         H            2.218259904009     2.465205194184     1.725271156242     1.007825032230
         H            0.631610904009     2.707900194184     0.941432156242     1.007825032230

  Basis Set: AUG-CC-PVTZ
    Blend: AUG-CC-PVTZ
  Basis Set: (AUG-CC-PVTZ AUX)
    Blend: AUG-CC-PVTZ-JKFIT
	 Reference Energy          =   -1810.6885202678897713 [Eh]
	 Singles Energy            =      -0.0000000000000000 [Eh]
	 Same-Spin Energy          =      -0.9130850605807520 [Eh]
	 Opposite-Spin Energy      =      -2.5259819942167820 [Eh]
	 Correlation Energy        =      -3.4390670547975342 [Eh]
	 Total Energy              =   -1814.1275873226873045 [Eh]

	 ================> DF-SCS-MP2 Energies <==================
	-----------------------------------------------------------
	 SCS Same-Spin Scale       =       0.3333333333333333 [-]
	 SCS Opposite-Spin Scale   =       1.2000000000000000 [-]
	 SCS Same-Spin Energy      =      -0.3043616868602507 [Eh]
	 SCS Opposite-Spin Energy  =      -3.0311783930601384 [Eh]
	 SCS Correlation Energy    =      -3.3355400799203889 [Eh]
	 SCS Total Energy          =   -1814.0240603478100638 [Eh]
	-----------------------------------------------------------

  Dipole Moment: [D]
     X:     9.2097      Y:     2.2878      Z:     1.7974     Total:     9.6583

*** Psi4 exiting successfully. Buy a developer a beer!
