                               Psi4 1.3.2 release

  ==> Input File <==

--------------------------------------------------------------------------
#psi4
#
memory 32 gb

molecule  {
-4 1
  P        2.5828670     0.0826120    -0.3559070
  P       -0.1833470    -1.1435920     0.2927960
  P       -2.7088530     0.4754690    -0.2006980
  O        1.9534540     1.6068400    -0.1842610
  O        1.2509400    -0.8782220    -0.5450080
  O        3.2679280     0.0927970    -1.6978490
  O        3.3783290    -0.3183198     0.9855853
  O       -0.9881700     0.1612780    -0.2225170
  O        0.0932830    -1.0798150     1.7822090
  O       -0.7150640    -2.4305380    -0.3003910
  O       -3.2327710    -0.2685190     1.0414150
  O       -2.7128520     2.0086770    -0.0959300
  O       -3.2113930    -0.0752120    -1.5473660
  C        1.4216660     1.9681570     1.1052990
  H        1.0169430     1.1016800     1.6278780
  H        2.2027140     2.4392170     1.7103290
  H        0.6160650     2.6819120     0.9264900
units angstrom
no_reorient  #important for SAPT in psi4, default
symmetry c1  #important for SAPT in psi4, default
}

set PROPERTIES_ORIGIN ["COM"]
properties('MP2/aug-cc-pvtz', properties = ['dipole'])
--------------------------------------------------------------------------

    Molecular point group: c1
  Charge       = -4
  Multiplicity = 1
  Basis Set: AUG-CC-PVTZ
    Blend: AUG-CC-PVTZ
  Basis Set: (AUG-CC-PVTZ AUX)
    Blend: AUG-CC-PVTZ-JKFIT

    Orbital Energies [Eh]
    ---------------------

    Doubly Occupied:

       1A    -79.589331     2A    -79.529476     3A    -79.481337
       4A    -20.092942     5A    -20.045901     6A    -20.011105
       7A    -20.006840     8A    -19.995231     9A    -19.951440
      10A    -19.947478    11A    -19.925304    12A    -19.920590
      13A    -19.918634    14A    -10.814144    15A     -7.100462
      16A     -7.042454    17A     -6.994849    18A     -4.999602
      19A     -4.998618    20A     -4.997187    21A     -4.941766
      22A     -4.940312    23A     -4.939370    24A     -4.894318
      25A     -4.892116    26A     -4.891966    27A     -0.904394
      28A     -0.850192    29A     -0.805479    30A     -0.779570
      31A     -0.744966    32A     -0.732393    33A     -0.715265
      34A     -0.701402    35A     -0.664821    36A     -0.660378
      37A     -0.470104    38A     -0.300302    39A     -0.238309
      40A     -0.186611    41A     -0.167076    42A     -0.152976
      43A     -0.124792    44A     -0.099193    45A     -0.084425
      46A     -0.066874    47A     -0.051229    48A     -0.046481
      49A     -0.030775    50A     -0.018179    51A     -0.004590
      52A     -0.000310    53A      0.007599    54A      0.018949
      55A      0.020502    56A      0.032646    57A      0.045478
      58A      0.062251    59A      0.067129    60A      0.073103
      61A      0.088623    62A      0.099075    63A      0.100749
      64A      0.102386    65A      0.112085    66A      0.123569
      67A      0.143088    68A      0.149029    69A      0.170735

  @DF-RHF Final Energy: -1810.67525551035510

   => Energetics <=

    Nuclear Repulsion Energy =           1458.1635006369094754
    One-Electron Energy =               -5491.5837832751394672
    Two-Electron Energy =                2222.7450271278744367
    Total Energy =                      -1810.6752555103553277
  Basis Set: (AUG-CC-PVTZ AUX)
    Blend: AUG-CC-PVTZ-RI
    Molecular point group: c1

    Geometry (in Angstrom), charge = -4, multiplicity = 1:

       Center              X                  Y                   Z               Mass
    ------------   -----------------  -----------------  -----------------  -----------------
         P            2.595229633738     0.109251749095    -0.344143699714    30.973761998420
         P           -0.170984366262    -1.116952250905     0.304559300286    30.973761998420
         P           -2.696490366262     0.502108749095    -0.188934699714    30.973761998420
         O            1.965816633738     1.633479749095    -0.172497699714    15.994914619570
         O            1.263302633738    -0.851582250905    -0.533244699714    15.994914619570
         O            3.280290633738     0.119436749095    -1.686085699714    15.994914619570
         O            3.390691633738    -0.291680050905     0.997348600286    15.994914619570
         O           -0.975807366262     0.187917749095    -0.210753699714    15.994914619570
         O            0.105645633738    -1.053175250905     1.793972300286    15.994914619570
         O           -0.702701366262    -2.403898250905    -0.288627699714    15.994914619570
         O           -3.220408366262    -0.241879250905     1.053178300286    15.994914619570
         O           -2.700489366262     2.035316749095    -0.084166699714    15.994914619570
         O           -3.199030366262    -0.048572250905    -1.535602699714    15.994914619570
         C            1.434028633738     1.994796749095     1.117062300286    12.000000000000
         H            1.029305633738     1.128319749095     1.639641300286     1.007825032230
         H            2.215076633738     2.465856749095     1.722092300286     1.007825032230
         H            0.628427633738     2.708551749095     0.938253300286     1.007825032230

  Basis Set: AUG-CC-PVTZ
    Blend: AUG-CC-PVTZ
  Basis Set: (AUG-CC-PVTZ AUX)
    Blend: AUG-CC-PVTZ-JKFIT
	 Reference Energy          =   -1810.6752555103551003 [Eh]
	 Singles Energy            =      -0.0000000000000000 [Eh]
	 Same-Spin Energy          =      -0.9149135710817328 [Eh]
	 Opposite-Spin Energy      =      -2.5307364071578800 [Eh]
	 Correlation Energy        =      -3.4456499782396128 [Eh]
	 Total Energy              =   -1814.1209054885946443 [Eh]

	 ================> DF-SCS-MP2 Energies <==================
	-----------------------------------------------------------
	 SCS Same-Spin Scale       =       0.3333333333333333 [-]
	 SCS Opposite-Spin Scale   =       1.2000000000000000 [-]
	 SCS Same-Spin Energy      =      -0.3049711903605776 [Eh]
	 SCS Opposite-Spin Energy  =      -3.0368836885894557 [Eh]
	 SCS Correlation Energy    =      -3.3418548789500333 [Eh]
	 SCS Total Energy          =   -1814.0171103893051168 [Eh]
	-----------------------------------------------------------

  Dipole Moment: [D]
     X:     8.7841      Y:     2.4774      Z:     1.1848     Total:     9.2034

*** Psi4 exiting successfully. Buy a developer a beer!
