                               Psi4 1.4a3.dev225

  ==> Input File <==

--------------------------------------------------------------------------
#psi4
#
memory 32 gb

molecule  {
-4 1
  P       -2.5202440    -0.2449420     0.3712220
  P        0.3565170    -0.5960480    -0.3589090
  P        3.1750170     0.3881900     0.1554910
  O       -2.7927880     1.3311510    -0.1150520
  O       -0.9169740    -0.0836090     0.6422800
  O       -3.1856250    -0.4605710     1.7148300
  O       -2.8507450    -1.1694890    -0.7786080
  O        1.4758451     0.0757521     0.5607904
  O        0.2127210     0.0849480    -1.7048820
  O        0.4027150    -2.1095660    -0.2874290
  O        3.5327910    -0.6840640    -0.8835370
  O        3.1643710     1.8286230    -0.3742880
  O        3.8338960     0.2099350     1.5311200
  C       -4.1398760     1.5889580    -0.5252390
  H       -4.4292020     0.9309370    -1.3496150
  H       -4.8386320     1.4471050     0.3059850
  H       -4.1840730     2.6280350    -0.8559160
units angstrom
no_reorient  #important for SAPT in psi4, default
symmetry c1  #important for SAPT in psi4, default
}

set PROPERTIES_ORIGIN ["COM"]
properties('MP2/aug-cc-pvtz', properties = ['dipole'])
--------------------------------------------------------------------------

    Molecular point group: c1
  Charge       = -4
  Multiplicity = 1
  Basis Set: AUG-CC-PVTZ
    Blend: AUG-CC-PVTZ
  Basis Set: (AUG-CC-PVTZ AUX)
    Blend: AUG-CC-PVTZ-JKFIT

    Orbital Energies [Eh]
    ---------------------

    Doubly Occupied:

       1A    -79.579628     2A    -79.513589     3A    -79.478017
       4A    -20.118388     5A    -20.040053     6A    -20.014239
       7A    -20.004077     8A    -19.983533     9A    -19.934647
      10A    -19.933029    11A    -19.924416    12A    -19.918963
      13A    -19.914364    14A    -10.882822    15A     -7.093920
      16A     -7.027087    17A     -6.991644    18A     -4.993067
      19A     -4.991747    20A     -4.990855    21A     -4.926478
      22A     -4.924967    23A     -4.923741    24A     -4.891048
      25A     -4.888903    26A     -4.888770    27A     -0.930512
      28A     -0.852963    29A     -0.807638    30A     -0.777811
      31A     -0.760348    32A     -0.736707    33A     -0.706695
      34A     -0.685041    35A     -0.663876    36A     -0.658594
      37A     -0.527598    38A     -0.307588    39A     -0.251656
      40A     -0.220097    41A     -0.196386    42A     -0.165011
      43A     -0.139403    44A     -0.107565    45A     -0.093927
      46A     -0.078717    47A     -0.062894    48A     -0.051659
      49A     -0.035057    50A     -0.024768    51A     -0.012674
      52A     -0.009431    53A      0.010168    54A      0.011593
      55A      0.022067    56A      0.035074    57A      0.049012
      58A      0.054961    59A      0.063062    60A      0.082255
      61A      0.097591    62A      0.101996    63A      0.105966
      64A      0.107654    65A      0.126333    66A      0.136244
      67A      0.146601    68A      0.153256    69A      0.172929

  @DF-RHF Final Energy: -1810.67607808686125

   => Energetics <=

    Nuclear Repulsion Energy =           1426.1295538452691289
    One-Electron Energy =               -5427.2915680986843654
    Two-Electron Energy =                2190.4859361665539836
    Total Energy =                      -1810.6760780868612528
  Basis Set: (AUG-CC-PVTZ AUX)
    Blend: AUG-CC-PVTZ-RI
    Molecular point group: c1

    Geometry (in Angstrom), charge = -4, multiplicity = 1:

       Center              X                  Y                   Z               Mass
    ------------   -----------------  -----------------  -----------------  -----------------
         P           -2.572848638534    -0.224271711831     0.364270437024    30.973761998420
         P            0.303912361466    -0.575377711831    -0.365860562976    30.973761998420
         P            3.122412361466     0.408860288169     0.148539437024    30.973761998420
         O           -2.845392638534     1.351821288169    -0.122003562976    15.994914619570
         O           -0.969578638534    -0.062938711831     0.635328437024    15.994914619570
         O           -3.238229638534    -0.439900711831     1.707878437024    15.994914619570
         O           -2.903349638534    -1.148818711831    -0.785559562976    15.994914619570
         O            1.423240461466     0.096422388169     0.553838837024    15.994914619570
         O            0.160116361466     0.105618288169    -1.711833562976    15.994914619570
         O            0.350110361466    -2.088895711831    -0.294380562976    15.994914619570
         O            3.480186361466    -0.663393711831    -0.890488562976    15.994914619570
         O            3.111766361466     1.849293288169    -0.381239562976    15.994914619570
         O            3.781291361466     0.230605288169     1.524168437024    15.994914619570
         C           -4.192480638534     1.609628288169    -0.532190562976    12.000000000000
         H           -4.481806638534     0.951607288169    -1.356566562976     1.007825032230
         H           -4.891236638534     1.467775288169     0.299033437024     1.007825032230
         H           -4.236677638534     2.648705288169    -0.862867562976     1.007825032230

  Basis Set: AUG-CC-PVTZ
    Blend: AUG-CC-PVTZ
  Basis Set: (AUG-CC-PVTZ AUX)
    Blend: AUG-CC-PVTZ-JKFIT
	 Reference Energy          =   -1810.6760780868612528 [Eh]
	 Singles Energy            =      -0.0000000000000000 [Eh]
	 Same-Spin Energy          =      -0.9122381521064761 [Eh]
	 Opposite-Spin Energy      =      -2.5248236133913040 [Eh]
	 Correlation Energy        =      -3.4370617654977802 [Eh]
	 Total Energy              =   -1814.1131398523589269 [Eh]

	 ================> DF-SCS-MP2 Energies <==================
	-----------------------------------------------------------
	 SCS Same-Spin Scale       =       0.3333333333333333 [-]
	 SCS Opposite-Spin Scale   =       1.2000000000000000 [-]
	 SCS Same-Spin Energy      =      -0.3040793840354920 [Eh]
	 SCS Opposite-Spin Energy  =      -3.0297883360695645 [Eh]
	 SCS Correlation Energy    =      -3.3338677201050566 [Eh]
	 SCS Total Energy          =   -1814.0099458069662433 [Eh]
	-----------------------------------------------------------

  Dipole Moment: [D]
     X:   -14.7641      Y:     2.7872      Z:     0.0606     Total:    15.0250

*** Psi4 exiting successfully. Buy a developer a beer!
