                               Psi4 1.3.2 release

  ==> Input File <==

--------------------------------------------------------------------------
#psi4
#
memory 32 gb

molecule  {
-4 1
  P        2.5828670     0.0826120    -0.3559070
  P       -0.1833470    -1.1435920     0.2927960
  P       -2.7088530     0.4754690    -0.2006980
  O        1.9534540     1.6068400    -0.1842610
  O        1.2509400    -0.8782220    -0.5450080
  O        3.2566729     0.0965726    -1.7035017
  O        3.3179383    -0.2915193     0.9092969
  O       -0.9881700     0.1612780    -0.2225170
  O        0.0932830    -1.0798150     1.7822090
  O       -0.7150640    -2.4305380    -0.3003910
  O       -3.2327710    -0.2685190     1.0414150
  O       -2.7128520     2.0086770    -0.0959300
  O       -3.2113930    -0.0752120    -1.5473660
  C        1.4216660     1.9681570     1.1052990
  H        1.0169430     1.1016800     1.6278780
  H        2.2027140     2.4392170     1.7103290
  H        0.6160650     2.6819120     0.9264900
units angstrom
no_reorient  #important for SAPT in psi4, default
symmetry c1  #important for SAPT in psi4, default
}

set PROPERTIES_ORIGIN ["COM"]
properties('MP2/aug-cc-pvtz', properties = ['dipole'])
--------------------------------------------------------------------------

    Molecular point group: c1
  Charge       = -4
  Multiplicity = 1
  Basis Set: AUG-CC-PVTZ
    Blend: AUG-CC-PVTZ
  Basis Set: (AUG-CC-PVTZ AUX)
    Blend: AUG-CC-PVTZ-JKFIT

    Orbital Energies [Eh]
    ---------------------

    Doubly Occupied:

       1A    -79.572597     2A    -79.526442     3A    -79.479582
       4A    -20.084898     5A    -20.037407     6A    -20.003610
       7A    -20.003275     8A    -19.992575     9A    -19.949634
      10A    -19.944869    11A    -19.923654    12A    -19.918951
      13A    -19.917119    14A    -10.811115    15A     -7.086421
      16A     -7.039374    17A     -6.993085    18A     -4.985376
      19A     -4.984459    20A     -4.983583    21A     -4.938648
      22A     -4.937266    23A     -4.936336    24A     -4.892546
      25A     -4.890361    26A     -4.890212    27A     -0.901597
      28A     -0.845080    29A     -0.806449    30A     -0.777609
      31A     -0.758733    32A     -0.741626    33A     -0.713179
      34A     -0.699202    35A     -0.663186    36A     -0.658799
      37A     -0.466249    38A     -0.293303    39A     -0.234200
      40A     -0.183663    41A     -0.163590    42A     -0.148341
      43A     -0.125947    44A     -0.098612    45A     -0.082760
      46A     -0.064654    47A     -0.051890    48A     -0.043690
      49A     -0.031575    50A     -0.015904    51A     -0.006182
      52A      0.000449    53A      0.010015    54A      0.014755
      55A      0.021946    56A      0.037448    57A      0.047749
      58A      0.053057    59A      0.066600    60A      0.070937
      61A      0.091446    62A      0.100800    63A      0.102649
      64A      0.104200    65A      0.114317    66A      0.125678
      67A      0.144792    68A      0.150776    69A      0.172317

  @DF-RHF Final Energy: -1810.68842882244235

   => Energetics <=

    Nuclear Repulsion Energy =           1463.2245477213175491
    One-Electron Energy =               -5502.0869902378281040
    Two-Electron Energy =                2228.1740136940684351
    Total Energy =                      -1810.6884288224423472
  Basis Set: (AUG-CC-PVTZ AUX)
    Blend: AUG-CC-PVTZ-RI
    Molecular point group: c1

    Geometry (in Angstrom), charge = -4, multiplicity = 1:

       Center              X                  Y                   Z               Mass
    ------------   -----------------  -----------------  -----------------  -----------------
         P            2.599507328836     0.107426167790    -0.339251311860    30.973761998420
         P           -0.166706671164    -1.118777832210     0.309451688140    30.973761998420
         P           -2.692212671164     0.500283167790    -0.184042311860    30.973761998420
         O            1.970094328836     1.631654167790    -0.167605311860    15.994914619570
         O            1.267580328836    -0.853407832210    -0.528352311860    15.994914619570
         O            3.273313228836     0.121386767790    -1.686846011860    15.994914619570
         O            3.334578628836    -0.266705132210     0.925952588140    15.994914619570
         O           -0.971529671164     0.186092167790    -0.205861311860    15.994914619570
         O            0.109923328836    -1.055000832210     1.798864688140    15.994914619570
         O           -0.698423671164    -2.405723832210    -0.283735311860    15.994914619570
         O           -3.216130671164    -0.243704832210     1.058070688140    15.994914619570
         O           -2.696211671164     2.033491167790    -0.079274311860    15.994914619570
         O           -3.194752671164    -0.050397832210    -1.530710311860    15.994914619570
         C            1.438306328836     1.992971167790     1.121954688140    12.000000000000
         H            1.033583328836     1.126494167790     1.644533688140     1.007825032230
         H            2.219354328836     2.464031167790     1.726984688140     1.007825032230
         H            0.632705328836     2.706726167790     0.943145688140     1.007825032230

  Basis Set: AUG-CC-PVTZ
    Blend: AUG-CC-PVTZ
  Basis Set: (AUG-CC-PVTZ AUX)
    Blend: AUG-CC-PVTZ-JKFIT
	 Reference Energy          =   -1810.6884288224423472 [Eh]
	 Singles Energy            =      -0.0000000000000000 [Eh]
	 Same-Spin Energy          =      -0.9130783596482506 [Eh]
	 Opposite-Spin Energy      =      -2.5258945886198791 [Eh]
	 Correlation Energy        =      -3.4389729482681295 [Eh]
	 Total Energy              =   -1814.1274017707105486 [Eh]

	 ================> DF-SCS-MP2 Energies <==================
	-----------------------------------------------------------
	 SCS Same-Spin Scale       =       0.3333333333333333 [-]
	 SCS Opposite-Spin Scale   =       1.2000000000000000 [-]
	 SCS Same-Spin Energy      =      -0.3043594532160835 [Eh]
	 SCS Opposite-Spin Energy  =      -3.0310735063438550 [Eh]
	 SCS Correlation Energy    =      -3.3354329595599386 [Eh]
	 SCS Total Energy          =   -1814.0238617820023137 [Eh]
	-----------------------------------------------------------

  Dipole Moment: [D]
     X:     9.3277      Y:     2.3235      Z:     1.6017     Total:     9.7452

*** Psi4 exiting successfully. Buy a developer a beer!
