                               Psi4 1.3.2 release

  ==> Input File <==

--------------------------------------------------------------------------
#psi4
#
memory 32 gb

molecule  {
-4 1
  P        2.5828670     0.0826120    -0.3559070
  P       -0.1833470    -1.1435920     0.2927960
  P       -2.7088530     0.4754690    -0.2006980
  O        1.9534540     1.6068400    -0.1842610
  O        1.2509400    -0.8782220    -0.5450080
  O        3.2679280     0.0927970    -1.6978490
  O        3.3289310    -0.2934220     0.9022790
  O       -0.9881700     0.1612780    -0.2225170
  O        0.0932830    -1.0798150     1.7822090
  O       -0.7150640    -2.4305380    -0.3003910
  O       -3.2667970    -0.3168375     1.1220844
  O       -2.7128520     2.0086770    -0.0959300
  O       -3.2113930    -0.0752120    -1.5473660
  C        1.4216660     1.9681570     1.1052990
  H        1.0169430     1.1016800     1.6278780
  H        2.2027140     2.4392170     1.7103290
  H        0.6160650     2.6819120     0.9264900
units angstrom
no_reorient  #important for SAPT in psi4, default
symmetry c1  #important for SAPT in psi4, default
}

set PROPERTIES_ORIGIN ["COM"]
properties('MP2/aug-cc-pvtz', properties = ['dipole'])
--------------------------------------------------------------------------

    Molecular point group: c1
  Charge       = -4
  Multiplicity = 1
  Basis Set: AUG-CC-PVTZ
    Blend: AUG-CC-PVTZ
  Basis Set: (AUG-CC-PVTZ AUX)
    Blend: AUG-CC-PVTZ-JKFIT

    Orbital Energies [Eh]
    ---------------------

    Doubly Occupied:

       1A    -79.573877     2A    -79.529052     3A    -79.496336
       4A    -20.087116     5A    -20.040121     6A    -20.003912
       7A    -20.003778     8A    -19.999944     9A    -19.950704
      10A    -19.946471    11A    -19.932568    12A    -19.928075
      13A    -19.922553    14A    -10.813056    15A     -7.087706
      16A     -7.041990    17A     -7.007520    18A     -4.986658
      19A     -4.985712    20A     -4.984885    21A     -4.941253
      22A     -4.939914    23A     -4.938907    24A     -4.907074
      25A     -4.904903    26A     -4.904299    27A     -0.903439
      28A     -0.847780    29A     -0.808718    30A     -0.779190
      31A     -0.758750    32A     -0.741776    33A     -0.714640
      34A     -0.700572    35A     -0.670131    36A     -0.636799
      37A     -0.468215    38A     -0.295981    39A     -0.237562
      40A     -0.187654    41A     -0.165898    42A     -0.150354
      43A     -0.127740    44A     -0.102002    45A     -0.084696
      46A     -0.066628    47A     -0.053780    48A     -0.045868
      49A     -0.034067    50A     -0.017657    51A     -0.007857
      52A     -0.000233    53A      0.008798    54A      0.013775
      55A      0.023990    56A      0.035998    57A      0.045238
      58A      0.052355    59A      0.066023    60A      0.069737
      61A      0.088952    62A      0.097628    63A      0.102295
      64A      0.111067    65A      0.114484    66A      0.124047
      67A      0.141552    68A      0.153734    69A      0.170043

  @DF-RHF Final Energy: -1810.67563399091864

   => Energetics <=

    Nuclear Repulsion Energy =           1458.5102505077047681
    One-Electron Energy =               -5492.2784647390444661
    Two-Electron Energy =                2223.0925802404208298
    Total Energy =                      -1810.6756339909188682
  Basis Set: (AUG-CC-PVTZ AUX)
    Blend: AUG-CC-PVTZ-RI
    Molecular point group: c1

    Geometry (in Angstrom), charge = -4, multiplicity = 1:

       Center              X                  Y                   Z               Mass
    ------------   -----------------  -----------------  -----------------  -----------------
         P            2.600210559847     0.110650108993    -0.343986260559    30.973761998420
         P           -0.166003440153    -1.115553891007     0.304716739441    30.973761998420
         P           -2.691509440153     0.503507108993    -0.188777260559    30.973761998420
         O            1.970797559847     1.634878108993    -0.172340260559    15.994914619570
         O            1.268283559847    -0.850183891007    -0.533087260559    15.994914619570
         O            3.285271559847     0.120835108993    -1.685928260559    15.994914619570
         O            3.346274559847    -0.265383891007     0.914199739441    15.994914619570
         O           -0.970826440153     0.189316108993    -0.210596260559    15.994914619570
         O            0.110626559847    -1.051776891007     1.794129739441    15.994914619570
         O           -0.697720440153    -2.402499891007    -0.288470260559    15.994914619570
         O           -3.249453440153    -0.288799391007     1.134005139441    15.994914619570
         O           -2.695508440153     2.036715108993    -0.084009260559    15.994914619570
         O           -3.194049440153    -0.047173891007    -1.535445260559    15.994914619570
         C            1.439009559847     1.996195108993     1.117219739441    12.000000000000
         H            1.034286559847     1.129718108993     1.639798739441     1.007825032230
         H            2.220057559847     2.467255108993     1.722249739441     1.007825032230
         H            0.633408559847     2.709950108993     0.938410739441     1.007825032230

  Basis Set: AUG-CC-PVTZ
    Blend: AUG-CC-PVTZ
  Basis Set: (AUG-CC-PVTZ AUX)
    Blend: AUG-CC-PVTZ-JKFIT
	 Reference Energy          =   -1810.6756339909186408 [Eh]
	 Singles Energy            =      -0.0000000000000000 [Eh]
	 Same-Spin Energy          =      -0.9147890670256794 [Eh]
	 Opposite-Spin Energy      =      -2.5305417358530660 [Eh]
	 Correlation Energy        =      -3.4453308028787455 [Eh]
	 Total Energy              =   -1814.1209647937973841 [Eh]

	 ================> DF-SCS-MP2 Energies <==================
	-----------------------------------------------------------
	 SCS Same-Spin Scale       =       0.3333333333333333 [-]
	 SCS Opposite-Spin Scale   =       1.2000000000000000 [-]
	 SCS Same-Spin Energy      =      -0.3049296890085598 [Eh]
	 SCS Opposite-Spin Energy  =      -3.0366500830236789 [Eh]
	 SCS Correlation Energy    =      -3.3415797720322384 [Eh]
	 SCS Total Energy          =   -1814.0172137629508597 [Eh]
	-----------------------------------------------------------

  Dipole Moment: [D]
     X:     9.6410      Y:     2.6207      Z:     1.0502     Total:    10.0459

*** Psi4 exiting successfully. Buy a developer a beer!
