                               Psi4 1.3.2 release

  ==> Input File <==

--------------------------------------------------------------------------
#psi4
#
memory 32 gb

molecule  {
-4 1
  P        2.5828670     0.0826120    -0.3559070
  P       -0.1833470    -1.1435920     0.2927960
  P       -2.7088530     0.4754690    -0.2006980
  O        1.9534540     1.6068400    -0.1842610
  O        1.2565125    -0.8905131    -0.5392327
  O        3.2679280     0.0927970    -1.6978490
  O        3.3289310    -0.2934220     0.9022790
  O       -0.9993100     0.1573896    -0.2147712
  O        0.0932830    -1.0798150     1.7822090
  O       -0.7150640    -2.4305380    -0.3003910
  O       -3.2327710    -0.2685190     1.0414150
  O       -2.7128520     2.0086770    -0.0959300
  O       -3.2113930    -0.0752120    -1.5473660
  C        1.4216660     1.9681570     1.1052990
  H        1.0169430     1.1016800     1.6278780
  H        2.2027140     2.4392170     1.7103290
  H        0.6160650     2.6819120     0.9264900
units angstrom
no_reorient  #important for SAPT in psi4, default
symmetry c1  #important for SAPT in psi4, default
}

set PROPERTIES_ORIGIN ["COM"]
properties('MP2/aug-cc-pvtz', properties = ['dipole'])
--------------------------------------------------------------------------

    Molecular point group: c1
  Charge       = -4
  Multiplicity = 1
  Basis Set: AUG-CC-PVTZ
    Blend: AUG-CC-PVTZ
  Basis Set: (AUG-CC-PVTZ AUX)
    Blend: AUG-CC-PVTZ-JKFIT

    Orbital Energies [Eh]
    ---------------------

    Doubly Occupied:

       1A    -79.573307     2A    -79.527539     3A    -79.479048
       4A    -20.086844     5A    -20.039500     6A    -20.003229
       7A    -20.002872     8A    -19.993647     9A    -19.949783
      10A    -19.944876    11A    -19.923478    12A    -19.918641
      13A    -19.916163    14A    -10.812320    15A     -7.087116
      16A     -7.040414    17A     -6.992613    18A     -4.986057
      19A     -4.985128    20A     -4.984290    21A     -4.939669
      22A     -4.938341    23A     -4.937364    24A     -4.892098
      25A     -4.889897    26A     -4.889743    27A     -0.902628
      28A     -0.846378    29A     -0.807800    30A     -0.779203
      31A     -0.757969    32A     -0.741821    33A     -0.713404
      34A     -0.699420    35A     -0.662972    36A     -0.658323
      37A     -0.467522    38A     -0.294190    39A     -0.236225
      40A     -0.186096    41A     -0.165011    42A     -0.149685
      43A     -0.125951    44A     -0.098622    45A     -0.083319
      46A     -0.064857    47A     -0.052496    48A     -0.044978
      49A     -0.032725    50A     -0.016808    51A     -0.007267
      52A      0.000071    53A      0.009147    54A      0.014604
      55A      0.022179    56A      0.036460    57A      0.047112
      58A      0.053329    59A      0.067101    60A      0.070623
      61A      0.090981    62A      0.100906    63A      0.102453
      64A      0.104241    65A      0.114203    66A      0.125470
      67A      0.145274    68A      0.151153    69A      0.172720

  @DF-RHF Final Energy: -1810.68936851471040

   => Energetics <=

    Nuclear Repulsion Energy =           1462.8992560621395569
    One-Electron Energy =               -5501.3740111469533076
    Two-Electron Energy =                2227.7853865701035829
    Total Energy =                      -1810.6893685147101678
  Basis Set: (AUG-CC-PVTZ AUX)
    Blend: AUG-CC-PVTZ-RI
    Molecular point group: c1

    Geometry (in Angstrom), charge = -4, multiplicity = 1:

       Center              X                  Y                   Z               Mass
    ------------   -----------------  -----------------  -----------------  -----------------
         P            2.598511412292     0.108731212941    -0.339977093885    30.973761998420
         P           -0.167702587708    -1.117472787059     0.308725906115    30.973761998420
         P           -2.693208587708     0.501588212941    -0.184768093885    30.973761998420
         O            1.969098412292     1.632959212941    -0.168331093885    15.994914619570
         O            1.272156912292    -0.864393887059    -0.523302793885    15.994914619570
         O            3.283572412292     0.118916212941    -1.681919093885    15.994914619570
         O            3.344575412292    -0.267302787059     0.918208906115    15.994914619570
         O           -0.983665587708     0.183508812941    -0.198841293885    15.994914619570
         O            0.108927412292    -1.053695787059     1.798138906115    15.994914619570
         O           -0.699419587708    -2.404418787059    -0.284461093885    15.994914619570
         O           -3.217126587708    -0.242399787059     1.057344906115    15.994914619570
         O           -2.697207587708     2.034796212941    -0.080000093885    15.994914619570
         O           -3.195748587708    -0.049092787059    -1.531436093885    15.994914619570
         C            1.437310412292     1.994276212941     1.121228906115    12.000000000000
         H            1.032587412292     1.127799212941     1.643807906115     1.007825032230
         H            2.218358412292     2.465336212941     1.726258906115     1.007825032230
         H            0.631709412292     2.708031212941     0.942419906115     1.007825032230

  Basis Set: AUG-CC-PVTZ
    Blend: AUG-CC-PVTZ
  Basis Set: (AUG-CC-PVTZ AUX)
    Blend: AUG-CC-PVTZ-JKFIT
	 Reference Energy          =   -1810.6893685147103952 [Eh]
	 Singles Energy            =      -0.0000000000000000 [Eh]
	 Same-Spin Energy          =      -0.9128879801624774 [Eh]
	 Opposite-Spin Energy      =      -2.5254636287774406 [Eh]
	 Correlation Energy        =      -3.4383516089399180 [Eh]
	 Total Energy              =   -1814.1277201236503060 [Eh]

	 ================> DF-SCS-MP2 Energies <==================
	-----------------------------------------------------------
	 SCS Same-Spin Scale       =       0.3333333333333333 [-]
	 SCS Opposite-Spin Scale   =       1.2000000000000000 [-]
	 SCS Same-Spin Energy      =      -0.3042959933874925 [Eh]
	 SCS Opposite-Spin Energy  =      -3.0305563545329286 [Eh]
	 SCS Correlation Energy    =      -3.3348523479204211 [Eh]
	 SCS Total Energy          =   -1814.0242208626307274 [Eh]
	-----------------------------------------------------------

  Dipole Moment: [D]
     X:     9.3354      Y:     2.3554      Z:     1.5952     Total:     9.7592

*** Psi4 exiting successfully. Buy a developer a beer!
