                               Psi4 1.3.2 release

  ==> Input File <==

--------------------------------------------------------------------------
#psi4
#
memory 32 gb

molecule  {
-4 1
  P        2.5828670     0.0826120    -0.3559070
  P       -0.1833470    -1.1435920     0.2927960
  P       -2.7088530     0.4754690    -0.2006980
  O        1.9534540     1.6068400    -0.1842610
  O        1.2509400    -0.8782220    -0.5450080
  O        3.2679280     0.0927970    -1.6978490
  O        3.3289310    -0.2934220     0.9022790
  O       -0.9740451     0.2515529    -0.2163512
  O        0.0932830    -1.0798150     1.7822090
  O       -0.7150640    -2.4305380    -0.3003910
  O       -3.2327710    -0.2685190     1.0414150
  O       -2.6324175     2.0067857    -0.0960756
  O       -3.2113930    -0.0752120    -1.5473660
  C        1.4216660     1.9681570     1.1052990
  H        1.0169430     1.1016800     1.6278780
  H        2.2027140     2.4392170     1.7103290
  H        0.6160650     2.6819120     0.9264900
units angstrom
no_reorient  #important for SAPT in psi4, default
symmetry c1  #important for SAPT in psi4, default
}

set PROPERTIES_ORIGIN ["COM"]
properties('MP2/aug-cc-pvtz', properties = ['dipole'])
--------------------------------------------------------------------------

    Molecular point group: c1
  Charge       = -4
  Multiplicity = 1
  Basis Set: AUG-CC-PVTZ
    Blend: AUG-CC-PVTZ
  Basis Set: (AUG-CC-PVTZ AUX)
    Blend: AUG-CC-PVTZ-JKFIT

    Orbital Energies [Eh]
    ---------------------

    Doubly Occupied:

       1A    -79.571870     2A    -79.532070     3A    -79.476036
       4A    -20.083317     5A    -20.038864     6A    -20.002216
       7A    -20.001849     8A    -19.989800     9A    -19.952452
      10A    -19.952385    11A    -19.921068    12A    -19.919954
      13A    -19.916767    14A    -10.808691    15A     -7.085674
      16A     -7.044260    17A     -6.989809    18A     -4.984613
      19A     -4.983692    20A     -4.982865    21A     -4.943573
      22A     -4.941856    23A     -4.941275    24A     -4.889269
      25A     -4.887037    26A     -4.886999    27A     -0.900050
      28A     -0.842274    29A     -0.800496    30A     -0.774119
      31A     -0.756964    32A     -0.743538    33A     -0.705952
      34A     -0.703144    35A     -0.660873    36A     -0.660366
      37A     -0.463891    38A     -0.291941    39A     -0.228647
      40A     -0.176660    41A     -0.158658    42A     -0.145659
      43A     -0.125537    44A     -0.099073    45A     -0.082019
      46A     -0.064029    47A     -0.048703    48A     -0.041074
      49A     -0.027505    50A     -0.012780    51A     -0.004976
      52A      0.000053    53A      0.009988    54A      0.015777
      55A      0.021594    56A      0.039275    57A      0.051315
      58A      0.054425    59A      0.065787    60A      0.070985
      61A      0.088453    62A      0.101249    63A      0.104335
      64A      0.110256    65A      0.111200    66A      0.121684
      67A      0.147198    68A      0.151636    69A      0.172135

  @DF-RHF Final Energy: -1810.67795070597435

   => Energetics <=

    Nuclear Repulsion Energy =           1462.3258304825230880
    One-Electron Energy =               -5500.3878724145033630
    Two-Electron Energy =                2227.3840912260056939
    Total Energy =                      -1810.6779507059745811
  Basis Set: (AUG-CC-PVTZ AUX)
    Blend: AUG-CC-PVTZ-RI
    Molecular point group: c1

    Geometry (in Angstrom), charge = -4, multiplicity = 1:

       Center              X                  Y                   Z               Mass
    ------------   -----------------  -----------------  -----------------  -----------------
         P            2.592533220280     0.102488152493    -0.339529244002    30.973761998420
         P           -0.173680779720    -1.123715847507     0.309173755998    30.973761998420
         P           -2.699186779720     0.495345152493    -0.184320244002    30.973761998420
         O            1.963120220280     1.626716152493    -0.167883244002    15.994914619570
         O            1.260606220280    -0.858345847507    -0.528630244002    15.994914619570
         O            3.277594220280     0.112673152493    -1.681471244002    15.994914619570
         O            3.338597220280    -0.273545847507     0.918656755998    15.994914619570
         O           -0.964378879720     0.271429052493    -0.199973444002    15.994914619570
         O            0.102949220280    -1.059938847507     1.798586755998    15.994914619570
         O           -0.705397779720    -2.410661847507    -0.284013244002    15.994914619570
         O           -3.223104779720    -0.248642847507     1.057792755998    15.994914619570
         O           -2.622751279720     2.026661852493    -0.079697844002    15.994914619570
         O           -3.201726779720    -0.055335847507    -1.530988244002    15.994914619570
         C            1.431332220280     1.988033152493     1.121676755998    12.000000000000
         H            1.026609220280     1.121556152493     1.644255755998     1.007825032230
         H            2.212380220280     2.459093152493     1.726706755998     1.007825032230
         H            0.625731220280     2.701788152493     0.942867755998     1.007825032230

  Basis Set: AUG-CC-PVTZ
    Blend: AUG-CC-PVTZ
  Basis Set: (AUG-CC-PVTZ AUX)
    Blend: AUG-CC-PVTZ-JKFIT
	 Reference Energy          =   -1810.6779507059743537 [Eh]
	 Singles Energy            =      -0.0000000000000000 [Eh]
	 Same-Spin Energy          =      -0.9144244219888038 [Eh]
	 Opposite-Spin Energy      =      -2.5291869388711659 [Eh]
	 Correlation Energy        =      -3.4436113608599697 [Eh]
	 Total Energy              =   -1814.1215620668342581 [Eh]

	 ================> DF-SCS-MP2 Energies <==================
	-----------------------------------------------------------
	 SCS Same-Spin Scale       =       0.3333333333333333 [-]
	 SCS Opposite-Spin Scale   =       1.2000000000000000 [-]
	 SCS Same-Spin Energy      =      -0.3048081406629346 [Eh]
	 SCS Opposite-Spin Energy  =      -3.0350243266453991 [Eh]
	 SCS Correlation Energy    =      -3.3398324673083337 [Eh]
	 SCS Total Energy          =   -1814.0177831732826235 [Eh]
	-----------------------------------------------------------

  Dipole Moment: [D]
     X:     9.2169      Y:     2.0038      Z:     1.6439     Total:     9.5744

*** Psi4 exiting successfully. Buy a developer a beer!
