                               Psi4 1.4a3.dev225

  ==> Input File <==

--------------------------------------------------------------------------
#psi4
#
memory 32 gb

molecule  {
-4 1
  P       -2.5202440    -0.2449420     0.3712220
  P        0.3565170    -0.5960480    -0.3589090
  P        3.1750170     0.3881900     0.1554910
  O       -2.7927880     1.3311510    -0.1150520
  O       -0.9169740    -0.0836090     0.6422800
  O       -3.1768397    -0.4577240     1.6970898
  O       -2.8507450    -1.1694890    -0.7786080
  O        1.4898640     0.0841660     0.5723090
  O        0.2127210     0.0849480    -1.7048820
  O        0.4027150    -2.1095660    -0.2874290
  O        3.5327910    -0.6840640    -0.8835370
  O        3.1643710     1.8286230    -0.3742880
  O        3.8338960     0.2099350     1.5311200
  C       -4.1398760     1.5889580    -0.5252390
  H       -4.4292020     0.9309370    -1.3496150
  H       -4.8386320     1.4471050     0.3059850
  H       -4.1840730     2.6280350    -0.8559160
units angstrom
no_reorient  #important for SAPT in psi4, default
symmetry c1  #important for SAPT in psi4, default
}

set PROPERTIES_ORIGIN ["COM"]
properties('MP2/aug-cc-pvtz', properties = ['dipole'])
--------------------------------------------------------------------------

    Molecular point group: c1
  Charge       = -4
  Multiplicity = 1
  Basis Set: AUG-CC-PVTZ
    Blend: AUG-CC-PVTZ
  Basis Set: (AUG-CC-PVTZ AUX)
    Blend: AUG-CC-PVTZ-JKFIT

    Orbital Energies [Eh]
    ---------------------

    Doubly Occupied:

       1A    -79.576772     2A    -79.516464     3A    -79.475128
       4A    -20.117663     5A    -20.040269     6A    -20.014066
       7A    -20.003075     8A    -19.983760     9A    -19.936346
      10A    -19.934557    11A    -19.921731    12A    -19.916761
      13A    -19.912909    14A    -10.882827    15A     -7.091827
      16A     -7.029526    17A     -6.988883    18A     -4.990892
      19A     -4.989636    20A     -4.988834    21A     -4.928921
      22A     -4.927353    23A     -4.926212    24A     -4.888276
      25A     -4.886173    26A     -4.886044    27A     -0.930796
      28A     -0.853346    29A     -0.809752    30A     -0.778445
      31A     -0.762230    32A     -0.736020    33A     -0.705441
      34A     -0.686341    35A     -0.661718    36A     -0.656976
      37A     -0.527504    38A     -0.307144    39A     -0.251652
      40A     -0.220044    41A     -0.195667    42A     -0.164900
      43A     -0.139605    44A     -0.108409    45A     -0.094086
      46A     -0.079555    47A     -0.062787    48A     -0.051331
      49A     -0.034744    50A     -0.025849    51A     -0.012270
      52A     -0.009472    53A      0.008336    54A      0.011236
      55A      0.023290    56A      0.033696    57A      0.048780
      58A      0.055259    59A      0.062279    60A      0.081782
      61A      0.097943    62A      0.103656    63A      0.107443
      64A      0.108602    65A      0.125450    66A      0.135826
      67A      0.148309    68A      0.154720    69A      0.174805

  @DF-RHF Final Energy: -1810.67627386273762

   => Energetics <=

    Nuclear Repulsion Energy =           1426.6761902072169050
    One-Electron Energy =               -5428.4257701318119871
    Two-Electron Energy =                2191.0733060618576928
    Total Energy =                      -1810.6762738627376166
  Basis Set: (AUG-CC-PVTZ AUX)
    Blend: AUG-CC-PVTZ-RI
    Molecular point group: c1

    Geometry (in Angstrom), charge = -4, multiplicity = 1:

       Center              X                  Y                   Z               Mass
    ------------   -----------------  -----------------  -----------------  -----------------
         P           -2.574210189588    -0.224944056850     0.364641904825    30.973761998420
         P            0.302550810412    -0.576050056850    -0.365489095175    30.973761998420
         P            3.121050810412     0.408187943150     0.148910904825    30.973761998420
         O           -2.846754189588     1.351148943150    -0.121632095175    15.994914619570
         O           -0.970940189588    -0.063611056850     0.635699904825    15.994914619570
         O           -3.230805889588    -0.437726056850     1.690509704825    15.994914619570
         O           -2.904711189588    -1.149491056850    -0.785188095175    15.994914619570
         O            1.435897810412     0.104163943150     0.565728904825    15.994914619570
         O            0.158754810412     0.104945943150    -1.711462095175    15.994914619570
         O            0.348748810412    -2.089568056850    -0.294009095175    15.994914619570
         O            3.478824810412    -0.664066056850    -0.890117095175    15.994914619570
         O            3.110404810412     1.848620943150    -0.380868095175    15.994914619570
         O            3.779929810412     0.229932943150     1.524539904825    15.994914619570
         C           -4.193842189588     1.608955943150    -0.531819095175    12.000000000000
         H           -4.483168189588     0.950934943150    -1.356195095175     1.007825032230
         H           -4.892598189588     1.467102943150     0.299404904825     1.007825032230
         H           -4.238039189588     2.648032943150    -0.862496095175     1.007825032230

  Basis Set: AUG-CC-PVTZ
    Blend: AUG-CC-PVTZ
  Basis Set: (AUG-CC-PVTZ AUX)
    Blend: AUG-CC-PVTZ-JKFIT
	 Reference Energy          =   -1810.6762738627376166 [Eh]
	 Singles Energy            =      -0.0000000000000000 [Eh]
	 Same-Spin Energy          =      -0.9120099698157522 [Eh]
	 Opposite-Spin Energy      =      -2.5242760152569033 [Eh]
	 Correlation Energy        =      -3.4362859850726553 [Eh]
	 Total Energy              =   -1814.1125598478101892 [Eh]

	 ================> DF-SCS-MP2 Energies <==================
	-----------------------------------------------------------
	 SCS Same-Spin Scale       =       0.3333333333333333 [-]
	 SCS Opposite-Spin Scale   =       1.2000000000000000 [-]
	 SCS Same-Spin Energy      =      -0.3040033232719174 [Eh]
	 SCS Opposite-Spin Energy  =      -3.0291312183082839 [Eh]
	 SCS Correlation Energy    =      -3.3331345415802014 [Eh]
	 SCS Total Energy          =   -1814.0094084043178100 [Eh]
	-----------------------------------------------------------

  Dipole Moment: [D]
     X:   -15.0595      Y:     2.6955      Z:     0.1265     Total:    15.2993

*** Psi4 exiting successfully. Buy a developer a beer!
