                               Psi4 1.3.2 release

  ==> Input File <==

--------------------------------------------------------------------------
#psi4
#
memory 32 gb

molecule  {
-4 1
  P        2.5828670     0.0826120    -0.3559070
  P       -0.1833470    -1.1435920     0.2927960
  P       -2.7088530     0.4754690    -0.2006980
  O        1.9534540     1.6068400    -0.1842610
  O        1.2509400    -0.8782220    -0.5450080
  O        3.2679280     0.0927970    -1.6978490
  O        3.3289310    -0.2934220     0.9022790
  O       -0.9881700     0.1612780    -0.2225170
  O        0.0932830    -1.0798150     1.7822090
  O       -0.7150640    -2.4305380    -0.3003910
  O       -3.2327710    -0.2685190     1.0414150
  O       -2.7128520     2.0086770    -0.0959300
  O       -3.2113930    -0.0752120    -1.5473660
  C        1.4216660     1.9681570     1.1052990
  H        1.0228947     1.1033158     1.6351131
  H        2.2013909     2.4326139     1.7171025
  H        0.6160650     2.6819120     0.9264900
units angstrom
no_reorient  #important for SAPT in psi4, default
symmetry c1  #important for SAPT in psi4, default
}

set PROPERTIES_ORIGIN ["COM"]
properties('MP2/aug-cc-pvtz', properties = ['dipole'])
--------------------------------------------------------------------------

    Molecular point group: c1
  Charge       = -4
  Multiplicity = 1
  Basis Set: AUG-CC-PVTZ
    Blend: AUG-CC-PVTZ
  Basis Set: (AUG-CC-PVTZ AUX)
    Blend: AUG-CC-PVTZ-JKFIT

    Orbital Energies [Eh]
    ---------------------

    Doubly Occupied:

       1A    -79.572629     2A    -79.526859     3A    -79.479816
       4A    -20.085943     5A    -20.038291     6A    -20.002909
       7A    -20.002603     8A    -19.992892     9A    -19.950006
      10A    -19.945210    11A    -19.923885    12A    -19.919167
      13A    -19.917335    14A    -10.811784    15A     -7.086451
      16A     -7.039791    17A     -6.993320    18A     -4.985402
      19A     -4.984454    20A     -4.983637    21A     -4.939070
      22A     -4.937679    23A     -4.936750    24A     -4.892781
      25A     -4.890595    26A     -4.890446    27A     -0.902020
      28A     -0.845654    29A     -0.806645    30A     -0.778025
      31A     -0.757677    32A     -0.742002    33A     -0.713466
      34A     -0.699546    35A     -0.663413    36A     -0.659016
      37A     -0.466965    38A     -0.293913    39A     -0.234935
      40A     -0.184244    41A     -0.163078    42A     -0.148855
      43A     -0.126182    44A     -0.098896    45A     -0.082753
      46A     -0.064990    47A     -0.052002    48A     -0.044115
      49A     -0.032013    50A     -0.016129    51A     -0.006871
      52A      0.000258    53A      0.009752    54A      0.014728
      55A      0.021653    56A      0.037358    57A      0.047450
      58A      0.053429    59A      0.066992    60A      0.070936
      61A      0.091100    62A      0.100552    63A      0.102378
      64A      0.103950    65A      0.113991    66A      0.125353
      67A      0.144557    68A      0.150540    69A      0.172098

  @DF-RHF Final Energy: -1810.68898491425534

   => Energetics <=

    Nuclear Repulsion Energy =           1462.8935273068868810
    One-Electron Energy =               -5501.3929602629350484
    Two-Electron Energy =                2227.8104480417928244
    Total Energy =                      -1810.6889849142553430
  Basis Set: (AUG-CC-PVTZ AUX)
    Blend: AUG-CC-PVTZ-RI
    Molecular point group: c1

    Geometry (in Angstrom), charge = -4, multiplicity = 1:

       Center              X                  Y                   Z               Mass
    ------------   -----------------  -----------------  -----------------  -----------------
         P            2.598161585351     0.107783884373    -0.339222501799    30.973761998420
         P           -0.168052414649    -1.118420115627     0.309480498201    30.973761998420
         P           -2.693558414649     0.500640884373    -0.184013501799    30.973761998420
         O            1.968748585351     1.632011884373    -0.167576501799    15.994914619570
         O            1.266234585351    -0.853050115627    -0.528323501799    15.994914619570
         O            3.283222585351     0.117968884373    -1.681164501799    15.994914619570
         O            3.344225585351    -0.268250115627     0.918963498201    15.994914619570
         O           -0.972875414649     0.186449884373    -0.205832501799    15.994914619570
         O            0.108577585351    -1.054643115627     1.798893498201    15.994914619570
         O           -0.699769414649    -2.405366115627    -0.283706501799    15.994914619570
         O           -3.217476414649    -0.243347115627     1.058099498201    15.994914619570
         O           -2.697557414649     2.033848884373    -0.079245501799    15.994914619570
         O           -3.196098414649    -0.050040115627    -1.530681501799    15.994914619570
         C            1.436960585351     1.993328884373     1.121983498201    12.000000000000
         H            1.038189285351     1.128487684373     1.651797598201     1.007825032230
         H            2.216685485351     2.457785784373     1.733786998201     1.007825032230
         H            0.631359585351     2.707083884373     0.943174498201     1.007825032230

  Basis Set: AUG-CC-PVTZ
    Blend: AUG-CC-PVTZ
  Basis Set: (AUG-CC-PVTZ AUX)
    Blend: AUG-CC-PVTZ-JKFIT
	 Reference Energy          =   -1810.6889849142553430 [Eh]
	 Singles Energy            =      -0.0000000000000000 [Eh]
	 Same-Spin Energy          =      -0.9129992158591442 [Eh]
	 Opposite-Spin Energy      =      -2.5257457115761026 [Eh]
	 Correlation Energy        =      -3.4387449274352466 [Eh]
	 Total Energy              =   -1814.1277298416905523 [Eh]

	 ================> DF-SCS-MP2 Energies <==================
	-----------------------------------------------------------
	 SCS Same-Spin Scale       =       0.3333333333333333 [-]
	 SCS Opposite-Spin Scale   =       1.2000000000000000 [-]
	 SCS Same-Spin Energy      =      -0.3043330719530480 [Eh]
	 SCS Opposite-Spin Energy  =      -3.0308948538913230 [Eh]
	 SCS Correlation Energy    =      -3.3352279258443711 [Eh]
	 SCS Total Energy          =   -1814.0242128400996080 [Eh]
	-----------------------------------------------------------

  Dipole Moment: [D]
     X:     9.2620      Y:     2.3363      Z:     1.6103     Total:     9.6868

*** Psi4 exiting successfully. Buy a developer a beer!
