                               Psi4 1.3.2 release

  ==> Input File <==

--------------------------------------------------------------------------
#psi4
#
memory 32 gb

molecule  {
-4 1
  P        2.5828670     0.0826120    -0.3559070
  P       -0.1711961    -1.1375607     0.2888977
  P       -2.7063786     0.4890954    -0.2071188
  O        1.9534540     1.6068400    -0.1842610
  O        1.2509400    -0.8782220    -0.5450080
  O        3.2679280     0.0927970    -1.6978490
  O        3.3289310    -0.2934220     0.9022790
  O       -0.9881700     0.1612780    -0.2225170
  O        0.0932830    -1.0798150     1.7822090
  O       -0.7150640    -2.4305380    -0.3003910
  O       -3.2327710    -0.2685190     1.0414150
  O       -2.7128520     2.0086770    -0.0959300
  O       -3.2113930    -0.0752120    -1.5473660
  C        1.4216660     1.9681570     1.1052990
  H        1.0169430     1.1016800     1.6278780
  H        2.2027140     2.4392170     1.7103290
  H        0.6160650     2.6819120     0.9264900
units angstrom
no_reorient  #important for SAPT in psi4, default
symmetry c1  #important for SAPT in psi4, default
}

set PROPERTIES_ORIGIN ["COM"]
properties('MP2/aug-cc-pvtz', properties = ['dipole'])
--------------------------------------------------------------------------

    Molecular point group: c1
  Charge       = -4
  Multiplicity = 1
  Basis Set: AUG-CC-PVTZ
    Blend: AUG-CC-PVTZ
  Basis Set: (AUG-CC-PVTZ AUX)
    Blend: AUG-CC-PVTZ-JKFIT

    Orbital Energies [Eh]
    ---------------------

    Doubly Occupied:

       1A    -79.574584     2A    -79.526729     3A    -79.479398
       4A    -20.087094     5A    -20.041710     6A    -20.004307
       7A    -20.004069     8A    -19.991675     9A    -19.948981
      10A    -19.942541    11A    -19.926076    12A    -19.918765
      13A    -19.914208    14A    -10.812668    15A     -7.088407
      16A     -7.039467    17A     -6.992912    18A     -4.987353
      19A     -4.986427    20A     -4.985574    21A     -4.938773
      22A     -4.937387    23A     -4.936411    24A     -4.892374
      25A     -4.890257    26A     -4.889965    27A     -0.903938
      28A     -0.848491    29A     -0.806741    30A     -0.779798
      31A     -0.759089    32A     -0.741182    33A     -0.712748
      34A     -0.695364    35A     -0.666537    36A     -0.653898
      37A     -0.467931    38A     -0.297387    39A     -0.235904
      40A     -0.185811    41A     -0.165306    42A     -0.150160
      43A     -0.127259    44A     -0.098183    45A     -0.084680
      46A     -0.065640    47A     -0.052527    48A     -0.044939
      49A     -0.031479    50A     -0.016405    51A     -0.008284
      52A      0.000211    53A      0.008901    54A      0.013879
      55A      0.022940    56A      0.036047    57A      0.048453
      58A      0.052108    59A      0.066610    60A      0.071580
      61A      0.091984    62A      0.100985    63A      0.101265
      64A      0.106119    65A      0.116323    66A      0.127685
      67A      0.144746    68A      0.152689    69A      0.173143

  @DF-RHF Final Energy: -1810.68794749831818

   => Energetics <=

    Nuclear Repulsion Energy =           1463.0753607654748976
    One-Electron Energy =               -5501.7223696875744281
    Two-Electron Energy =                2227.9590614237813497
    Total Energy =                      -1810.6879474983179534
  Basis Set: (AUG-CC-PVTZ AUX)
    Blend: AUG-CC-PVTZ-RI
    Molecular point group: c1

    Geometry (in Angstrom), charge = -4, multiplicity = 1:

       Center              X                  Y                   Z               Mass
    ------------   -----------------  -----------------  -----------------  -----------------
         P            2.596488028281     0.105492383619    -0.337976711745    30.973761998420
         P           -0.157575071719    -1.114680316381     0.306827988255    30.973761998420
         P           -2.692757571719     0.511975783619    -0.189188511745    30.973761998420
         O            1.967075028281     1.629720383619    -0.166330711745    15.994914619570
         O            1.264561028281    -0.855341616381    -0.527077711745    15.994914619570
         O            3.281549028281     0.115677383619    -1.679918711745    15.994914619570
         O            3.342552028281    -0.270541616381     0.920209288255    15.994914619570
         O           -0.974548971719     0.184158383619    -0.204586711745    15.994914619570
         O            0.106904028281    -1.056934616381     1.800139288255    15.994914619570
         O           -0.701442971719    -2.407657616381    -0.282460711745    15.994914619570
         O           -3.219149971719    -0.245638616381     1.059345288255    15.994914619570
         O           -2.699230971719     2.031557383619    -0.077999711745    15.994914619570
         O           -3.197771971719    -0.052331616381    -1.529435711745    15.994914619570
         C            1.435287028281     1.991037383619     1.123229288255    12.000000000000
         H            1.030564028281     1.124560383619     1.645808288255     1.007825032230
         H            2.216335028281     2.462097383619     1.728259288255     1.007825032230
         H            0.629686028281     2.704792383619     0.944420288255     1.007825032230

  Basis Set: AUG-CC-PVTZ
    Blend: AUG-CC-PVTZ
  Basis Set: (AUG-CC-PVTZ AUX)
    Blend: AUG-CC-PVTZ-JKFIT
	 Reference Energy          =   -1810.6879474983181808 [Eh]
	 Singles Energy            =      -0.0000000000000000 [Eh]
	 Same-Spin Energy          =      -0.9130377201807977 [Eh]
	 Opposite-Spin Energy      =      -2.5257995194341252 [Eh]
	 Correlation Energy        =      -3.4388372396149229 [Eh]
	 Total Energy              =   -1814.1267847379331215 [Eh]

	 ================> DF-SCS-MP2 Energies <==================
	-----------------------------------------------------------
	 SCS Same-Spin Scale       =       0.3333333333333333 [-]
	 SCS Opposite-Spin Scale   =       1.2000000000000000 [-]
	 SCS Same-Spin Energy      =      -0.3043459067269325 [Eh]
	 SCS Opposite-Spin Energy  =      -3.0309594233209500 [Eh]
	 SCS Correlation Energy    =      -3.3353053300478823 [Eh]
	 SCS Total Energy          =   -1814.0232528283661395 [Eh]
	-----------------------------------------------------------

  Dipole Moment: [D]
     X:     9.4832      Y:     2.6276      Z:     1.4890     Total:     9.9525

*** Psi4 exiting successfully. Buy a developer a beer!
