                               Psi4 1.3.2 release

  ==> Input File <==

--------------------------------------------------------------------------
#psi4
#
memory 32 gb

molecule  {
-4 1
  P        2.5828670     0.0826120    -0.3559070
  P       -0.1833470    -1.1435920     0.2927960
  P       -2.7088530     0.4754690    -0.2006980
  O        1.9534540     1.6068400    -0.1842610
  O        1.2509400    -0.8782220    -0.5450080
  O        3.2679280     0.0927970    -1.6978490
  O        3.3289310    -0.2934220     0.9022790
  O       -1.0369483     0.1100590    -0.2690734
  O        0.0932830    -1.0798150     1.7822090
  O       -0.7687243    -2.3876980    -0.3399422
  O       -3.2327710    -0.2685190     1.0414150
  O       -2.7128520     2.0086770    -0.0959300
  O       -3.2113930    -0.0752120    -1.5473660
  C        1.4216660     1.9681570     1.1052990
  H        1.0169430     1.1016800     1.6278780
  H        2.2027140     2.4392170     1.7103290
  H        0.6160650     2.6819120     0.9264900
units angstrom
no_reorient  #important for SAPT in psi4, default
symmetry c1  #important for SAPT in psi4, default
}

set PROPERTIES_ORIGIN ["COM"]
properties('MP2/aug-cc-pvtz', properties = ['dipole'])
--------------------------------------------------------------------------

    Molecular point group: c1
  Charge       = -4
  Multiplicity = 1
  Basis Set: AUG-CC-PVTZ
    Blend: AUG-CC-PVTZ
  Basis Set: (AUG-CC-PVTZ AUX)
    Blend: AUG-CC-PVTZ-JKFIT

    Orbital Energies [Eh]
    ---------------------

    Doubly Occupied:

       1A    -79.575319     2A    -79.529714     3A    -79.473724
       4A    -20.088410     5A    -20.042988     6A    -20.005436
       7A    -20.004726     8A    -19.988058     9A    -19.957742
      10A    -19.941623    11A    -19.921488    12A    -19.912452
      13A    -19.910801    14A    -10.814498    15A     -7.089161
      16A     -7.042416    17A     -6.987453    18A     -4.988108
      19A     -4.987174    20A     -4.986330    21A     -4.941650
      22A     -4.940500    23A     -4.939272    24A     -4.886970
      25A     -4.884791    26A     -4.884618    27A     -0.904773
      28A     -0.848590    29A     -0.809416    30A     -0.780917
      31A     -0.760021    32A     -0.742780    33A     -0.712019
      34A     -0.699558    35A     -0.659626    36A     -0.653163
      37A     -0.469628    38A     -0.297515    39A     -0.238623
      40A     -0.188183    41A     -0.167443    42A     -0.151484
      43A     -0.128411    44A     -0.098960    45A     -0.084304
      46A     -0.063958    47A     -0.054438    48A     -0.046030
      49A     -0.033415    50A     -0.017355    51A     -0.009360
      52A      0.000214    53A      0.008824    54A      0.013441
      55A      0.025396    56A      0.035334    57A      0.047511
      58A      0.050936    59A      0.065081    60A      0.069418
      61A      0.090861    62A      0.101122    63A      0.105681
      64A      0.107136    65A      0.115532    66A      0.125695
      67A      0.149367    68A      0.157071    69A      0.177108

  @DF-RHF Final Energy: -1810.68686142723118

   => Energetics <=

    Nuclear Repulsion Energy =           1463.9429888731740448
    One-Electron Energy =               -5503.4603740444372306
    Two-Electron Energy =                2228.8305237440322344
    Total Energy =                      -1810.6868614272311788
  Basis Set: (AUG-CC-PVTZ AUX)
    Blend: AUG-CC-PVTZ-RI
    Molecular point group: c1

    Geometry (in Angstrom), charge = -4, multiplicity = 1:

       Center              X                  Y                   Z               Mass
    ------------   -----------------  -----------------  -----------------  -----------------
         P            2.604295213011     0.108265475095    -0.334028647478    30.973761998420
         P           -0.161918786989    -1.117938524905     0.314674352522    30.973761998420
         P           -2.687424786989     0.501122475095    -0.178819647478    30.973761998420
         O            1.974882213011     1.632493475095    -0.162382647478    15.994914619570
         O            1.272368213011    -0.852568524905    -0.523129647478    15.994914619570
         O            3.289356213011     0.118450475095    -1.675970647478    15.994914619570
         O            3.350359213011    -0.267768524905     0.924157352522    15.994914619570
         O           -1.015520086989     0.135712475095    -0.247195047478    15.994914619570
         O            0.114711213011    -1.054161524905     1.804087352522    15.994914619570
         O           -0.747296086989    -2.362044524905    -0.318063847478    15.994914619570
         O           -3.211342786989    -0.242865524905     1.063293352522    15.994914619570
         O           -2.691423786989     2.034330475095    -0.074051647478    15.994914619570
         O           -3.189964786989    -0.049558524905    -1.525487647478    15.994914619570
         C            1.443094213011     1.993810475095     1.127177352522    12.000000000000
         H            1.038371213011     1.127333475095     1.649756352522     1.007825032230
         H            2.224142213011     2.464870475095     1.732207352522     1.007825032230
         H            0.637493213011     2.707565475095     0.948368352522     1.007825032230

  Basis Set: AUG-CC-PVTZ
    Blend: AUG-CC-PVTZ
  Basis Set: (AUG-CC-PVTZ AUX)
    Blend: AUG-CC-PVTZ-JKFIT
	 Reference Energy          =   -1810.6868614272311788 [Eh]
	 Singles Energy            =      -0.0000000000000000 [Eh]
	 Same-Spin Energy          =      -0.9128230487394678 [Eh]
	 Opposite-Spin Energy      =      -2.5250892279141848 [Eh]
	 Correlation Energy        =      -3.4379122766536527 [Eh]
	 Total Energy              =   -1814.1247737038847845 [Eh]

	 ================> DF-SCS-MP2 Energies <==================
	-----------------------------------------------------------
	 SCS Same-Spin Scale       =       0.3333333333333333 [-]
	 SCS Opposite-Spin Scale   =       1.2000000000000000 [-]
	 SCS Same-Spin Energy      =      -0.3042743495798226 [Eh]
	 SCS Opposite-Spin Energy  =      -3.0301070734970215 [Eh]
	 SCS Correlation Energy    =      -3.3343814230768443 [Eh]
	 SCS Total Energy          =   -1814.0212428503079991 [Eh]
	-----------------------------------------------------------

  Dipole Moment: [D]
     X:     9.7907      Y:     2.2552      Z:     1.8118     Total:    10.2091

*** Psi4 exiting successfully. Buy a developer a beer!
