                               Psi4 1.3.2 release

  ==> Input File <==

--------------------------------------------------------------------------
#psi4
#
memory 32 gb

molecule  {
-4 1
  P        2.5828670     0.0826120    -0.3559070
  P       -0.1833470    -1.1435920     0.2927960
  P       -2.7088530     0.4754690    -0.2006980
  O        1.9534540     1.6068400    -0.1842610
  O        1.2509400    -0.8782220    -0.5450080
  O        3.2679280     0.0927970    -1.6978490
  O        3.3289310    -0.2934220     0.9022790
  O       -0.9881700     0.1612780    -0.2225170
  O        0.0932830    -1.0798150     1.7822090
  O       -0.7150640    -2.4305380    -0.3003910
  O       -3.2327710    -0.2685190     1.0414150
  O       -2.7418140     2.0116158    -0.1709358
  O       -3.2229566     0.0007379    -1.5716971
  C        1.4216660     1.9681570     1.1052990
  H        1.0169430     1.1016800     1.6278780
  H        2.2027140     2.4392170     1.7103290
  H        0.6160650     2.6819120     0.9264900
units angstrom
no_reorient  #important for SAPT in psi4, default
symmetry c1  #important for SAPT in psi4, default
}

set PROPERTIES_ORIGIN ["COM"]
properties('MP2/aug-cc-pvtz', properties = ['dipole'])
--------------------------------------------------------------------------

    Molecular point group: c1
  Charge       = -4
  Multiplicity = 1
  Basis Set: AUG-CC-PVTZ
    Blend: AUG-CC-PVTZ
  Basis Set: (AUG-CC-PVTZ AUX)
    Blend: AUG-CC-PVTZ-JKFIT

    Orbital Energies [Eh]
    ---------------------

    Doubly Occupied:

       1A    -79.573485     2A    -79.529125     3A    -79.479866
       4A    -20.086531     5A    -20.039742     6A    -20.003728
       7A    -20.003228     8A    -19.996535     9A    -19.952115
      10A    -19.947534    11A    -19.923978    12A    -19.918756
      13A    -19.913995    14A    -10.812792    15A     -7.087308
      16A     -7.042073    17A     -6.993374    18A     -4.986258
      19A     -4.985316    20A     -4.984489    21A     -4.941340
      22A     -4.939971    23A     -4.939030    24A     -4.892787
      25A     -4.890788    26A     -4.890369    27A     -0.902899
      28A     -0.847245    29A     -0.808050    30A     -0.779066
      31A     -0.758408    32A     -0.743293    33A     -0.715317
      34A     -0.701804    35A     -0.665513    36A     -0.654012
      37A     -0.467877    38A     -0.295279    39A     -0.236009
      40A     -0.185332    41A     -0.165085    42A     -0.149774
      43A     -0.127083    44A     -0.100463    45A     -0.083995
      46A     -0.065798    47A     -0.053202    48A     -0.045417
      49A     -0.033274    50A     -0.017040    51A     -0.007644
      52A     -0.000339    53A      0.009541    54A      0.014565
      55A      0.019497    56A      0.036501    57A      0.047232
      58A      0.052575    59A      0.065588    60A      0.069374
      61A      0.089247    62A      0.101079    63A      0.101836
      64A      0.103087    65A      0.113051    66A      0.123798
      67A      0.142414    68A      0.153334    69A      0.174818

  @DF-RHF Final Energy: -1810.68775276484780

   => Energetics <=

    Nuclear Repulsion Energy =           1461.9280200589039396
    One-Electron Energy =               -5499.3391569961140704
    Two-Electron Energy =                2226.7233841723627847
    Total Energy =                      -1810.6877527648475734
  Basis Set: (AUG-CC-PVTZ AUX)
    Blend: AUG-CC-PVTZ-RI
    Molecular point group: c1

    Geometry (in Angstrom), charge = -4, multiplicity = 1:

       Center              X                  Y                   Z               Mass
    ------------   -----------------  -----------------  -----------------  -----------------
         P            2.600598625959     0.103055056446    -0.333238776868    30.973761998420
         P           -0.165615374041    -1.123148943554     0.315464223132    30.973761998420
         P           -2.691121374041     0.495912056446    -0.178029776868    30.973761998420
         O            1.971185625959     1.627283056446    -0.161592776868    15.994914619570
         O            1.268671625959    -0.857778943554    -0.522339776868    15.994914619570
         O            3.285659625959     0.113240056446    -1.675180776868    15.994914619570
         O            3.346662625959    -0.272978943554     0.924947223132    15.994914619570
         O           -0.970438374041     0.181721056446    -0.199848776868    15.994914619570
         O            0.111014625959    -1.059371943554     1.804877223132    15.994914619570
         O           -0.697332374041    -2.410094943554    -0.277722776868    15.994914619570
         O           -3.215039374041    -0.248075943554     1.064083223132    15.994914619570
         O           -2.724082374041     2.032058856446    -0.148267576868    15.994914619570
         O           -3.205224974041     0.021180956446    -1.549028876868    15.994914619570
         C            1.439397625959     1.988600056446     1.127967223132    12.000000000000
         H            1.034674625959     1.122123056446     1.650546223132     1.007825032230
         H            2.220445625959     2.459660056446     1.732997223132     1.007825032230
         H            0.633796625959     2.702355056446     0.949158223132     1.007825032230

  Basis Set: AUG-CC-PVTZ
    Blend: AUG-CC-PVTZ
  Basis Set: (AUG-CC-PVTZ AUX)
    Blend: AUG-CC-PVTZ-JKFIT
	 Reference Energy          =   -1810.6877527648478008 [Eh]
	 Singles Energy            =      -0.0000000000000000 [Eh]
	 Same-Spin Energy          =      -0.9130084078590236 [Eh]
	 Opposite-Spin Energy      =      -2.5257862410441052 [Eh]
	 Correlation Energy        =      -3.4387946489031287 [Eh]
	 Total Energy              =   -1814.1265474137510409 [Eh]

	 ================> DF-SCS-MP2 Energies <==================
	-----------------------------------------------------------
	 SCS Same-Spin Scale       =       0.3333333333333333 [-]
	 SCS Opposite-Spin Scale   =       1.2000000000000000 [-]
	 SCS Same-Spin Energy      =      -0.3043361359530078 [Eh]
	 SCS Opposite-Spin Energy  =      -3.0309434892529263 [Eh]
	 SCS Correlation Energy    =      -3.3352796252059340 [Eh]
	 SCS Total Energy          =   -1814.0230323900536860 [Eh]
	-----------------------------------------------------------

  Dipole Moment: [D]
     X:     9.4095      Y:     2.1051      Z:     1.8909     Total:     9.8257

*** Psi4 exiting successfully. Buy a developer a beer!
