                               Psi4 1.3.2 release

  ==> Input File <==

--------------------------------------------------------------------------
#psi4
#
memory 32 gb

molecule  {
-4 1
  P        2.6149412     0.0485859    -0.4287384
  P       -0.2055852    -1.2026658     0.2313854
  P       -2.7088530     0.4754690    -0.2006980
  O        1.9534540     1.6068400    -0.1842610
  O        1.2509400    -0.8782220    -0.5450080
  O        3.2679280     0.0927970    -1.6978490
  O        3.3289310    -0.2934220     0.9022790
  O       -0.9881700     0.1612780    -0.2225170
  O        0.0932830    -1.0798150     1.7822090
  O       -0.7150640    -2.4305380    -0.3003910
  O       -3.2327710    -0.2685190     1.0414150
  O       -2.7128520     2.0086770    -0.0959300
  O       -3.2113930    -0.0752120    -1.5473660
  C        1.4216660     1.9681570     1.1052990
  H        1.0169430     1.1016800     1.6278780
  H        2.2027140     2.4392170     1.7103290
  H        0.6160650     2.6819120     0.9264900
units angstrom
no_reorient  #important for SAPT in psi4, default
symmetry c1  #important for SAPT in psi4, default
}

set PROPERTIES_ORIGIN ["COM"]
properties('MP2/aug-cc-pvtz', properties = ['dipole'])
--------------------------------------------------------------------------

    Molecular point group: c1
  Charge       = -4
  Multiplicity = 1
  Basis Set: AUG-CC-PVTZ
    Blend: AUG-CC-PVTZ
  Basis Set: (AUG-CC-PVTZ AUX)
    Blend: AUG-CC-PVTZ-JKFIT

    Orbital Energies [Eh]
    ---------------------

    Doubly Occupied:

       1A    -79.571024     2A    -79.525067     3A    -79.476824
       4A    -20.067346     5A    -20.035221     6A    -20.019114
       7A    -19.995728     8A    -19.988428     9A    -19.961716
      10A    -19.934842    11A    -19.920967    12A    -19.918531
      13A    -19.914871    14A    -10.797004    15A     -7.086037
      16A     -7.039215    17A     -6.990371    18A     -4.984746
      19A     -4.984359    20A     -4.983035    21A     -4.938355
      22A     -4.937363    23A     -4.935837    24A     -4.889780
      25A     -4.887686    26A     -4.887538    27A     -0.891618
      28A     -0.839037    29A     -0.823964    30A     -0.783520
      31A     -0.765273    32A     -0.745997    33A     -0.716360
      34A     -0.675044    35A     -0.661148    36A     -0.657327
      37A     -0.448939    38A     -0.294079    39A     -0.220112
      40A     -0.174678    41A     -0.150966    42A     -0.135582
      43A     -0.126401    44A     -0.102370    45A     -0.088564
      46A     -0.066280    47A     -0.053429    48A     -0.036766
      49A     -0.026678    50A     -0.017411    51A     -0.009220
      52A     -0.001199    53A      0.005577    54A      0.017063
      55A      0.021763    56A      0.034362    57A      0.049203
      58A      0.062874    59A      0.066317    60A      0.071892
      61A      0.074949    62A      0.102809    63A      0.105945
      64A      0.107555    65A      0.127026    66A      0.131338
      67A      0.146986    68A      0.153714    69A      0.173955

  @DF-RHF Final Energy: -1810.66590483383334

   => Energetics <=

    Nuclear Repulsion Energy =           1459.8663067177205903
    One-Electron Energy =               -5495.6051528196276195
    Two-Electron Energy =                2225.0729412680739188
    Total Energy =                      -1810.6659048338333378
  Basis Set: (AUG-CC-PVTZ AUX)
    Blend: AUG-CC-PVTZ-RI
    Molecular point group: c1

    Geometry (in Angstrom), charge = -4, multiplicity = 1:

       Center              X                  Y                   Z               Mass
    ------------   -----------------  -----------------  -----------------  -----------------
         P            2.629115964795     0.084503261956    -0.396480206905    30.973761998420
         P           -0.191410435205    -1.166748438044     0.263643593095    30.973761998420
         P           -2.694678235205     0.511386361956    -0.168439806905    30.973761998420
         O            1.967628764795     1.642757361956    -0.152002806905    15.994914619570
         O            1.265114764795    -0.842304638044    -0.512749806905    15.994914619570
         O            3.282102764795     0.128714361956    -1.665590806905    15.994914619570
         O            3.343105764795    -0.257504638044     0.934537193095    15.994914619570
         O           -0.973995235205     0.197195361956    -0.190258806905    15.994914619570
         O            0.107457764795    -1.043897638044     1.814467193095    15.994914619570
         O           -0.700889235205    -2.394620638044    -0.268132806905    15.994914619570
         O           -3.218596235205    -0.232601638044     1.073673193095    15.994914619570
         O           -2.698677235205     2.044594361956    -0.063671806905    15.994914619570
         O           -3.197218235205    -0.039294638044    -1.515107806905    15.994914619570
         C            1.435840764795     2.004074361956     1.137557193095    12.000000000000
         H            1.031117764795     1.137597361956     1.660136193095     1.007825032230
         H            2.216888764795     2.475134361956     1.742587193095     1.007825032230
         H            0.630239764795     2.717829361956     0.958748193095     1.007825032230

  Basis Set: AUG-CC-PVTZ
    Blend: AUG-CC-PVTZ
  Basis Set: (AUG-CC-PVTZ AUX)
    Blend: AUG-CC-PVTZ-JKFIT
	 Reference Energy          =   -1810.6659048338333378 [Eh]
	 Singles Energy            =      -0.0000000000000000 [Eh]
	 Same-Spin Energy          =      -0.9124866470585036 [Eh]
	 Opposite-Spin Energy      =      -2.5250379252106461 [Eh]
	 Correlation Energy        =      -3.4375245722691496 [Eh]
	 Total Energy              =   -1814.1034294061025776 [Eh]

	 ================> DF-SCS-MP2 Energies <==================
	-----------------------------------------------------------
	 SCS Same-Spin Scale       =       0.3333333333333333 [-]
	 SCS Opposite-Spin Scale   =       1.2000000000000000 [-]
	 SCS Same-Spin Energy      =      -0.3041622156861679 [Eh]
	 SCS Opposite-Spin Energy  =      -3.0300455102527750 [Eh]
	 SCS Correlation Energy    =      -3.3342077259389429 [Eh]
	 SCS Total Energy          =   -1814.0001125597723330 [Eh]
	-----------------------------------------------------------

  Dipole Moment: [D]
     X:     9.4616      Y:     1.1501      Z:    -0.1745     Total:     9.5328

*** Psi4 exiting successfully. Buy a developer a beer!
