                               Psi4 1.3.2 release

  ==> Input File <==

--------------------------------------------------------------------------
#psi4
#
memory 32 gb

molecule  {
-4 1
  P        2.5828670     0.0826120    -0.3559070
  P       -0.1833470    -1.1435920     0.2927960
  P       -2.7088530     0.4754690    -0.2006980
  O        1.9534540     1.6068400    -0.1842610
  O        1.2509400    -0.8782220    -0.5450080
  O        3.2679280     0.0927970    -1.6978490
  O        3.3289310    -0.2934220     0.9022790
  O       -0.9881700     0.1612780    -0.2225170
  O        0.1297723    -1.0714024     1.9786721
  O       -0.7150640    -2.4305380    -0.3003910
  O       -3.2327710    -0.2685190     1.0414150
  O       -2.7128520     2.0086770    -0.0959300
  O       -3.2113930    -0.0752120    -1.5473660
  C        1.4216660     1.9681570     1.1052990
  H        1.0169430     1.1016800     1.6278780
  H        2.2027140     2.4392170     1.7103290
  H        0.6160650     2.6819120     0.9264900
units angstrom
no_reorient  #important for SAPT in psi4, default
symmetry c1  #important for SAPT in psi4, default
}

set PROPERTIES_ORIGIN ["COM"]
properties('MP2/aug-cc-pvtz', properties = ['dipole'])
--------------------------------------------------------------------------

    Molecular point group: c1
  Charge       = -4
  Multiplicity = 1
  Basis Set: AUG-CC-PVTZ
    Blend: AUG-CC-PVTZ
  Basis Set: (AUG-CC-PVTZ AUX)
    Blend: AUG-CC-PVTZ-JKFIT

    Orbital Energies [Eh]
    ---------------------

    Doubly Occupied:

       1A    -79.576292     2A    -79.556096     3A    -79.484851
       4A    -20.087269     5A    -20.051091     6A    -20.007141
       7A    -20.005961     8A    -20.003812     9A    -19.962241
      10A    -19.957995    11A    -19.927778    12A    -19.924138
      13A    -19.920588    14A    -10.810447    15A     -7.090148
      16A     -7.065222    17A     -6.998450    18A     -4.989081
      19A     -4.988197    20A     -4.987268    21A     -4.964564
      22A     -4.963163    23A     -4.961535    24A     -4.897974
      25A     -4.895652    26A     -4.895508    27A     -0.904869
      28A     -0.850600    29A     -0.811090    30A     -0.784458
      31A     -0.759573    32A     -0.740871    33A     -0.720470
      34A     -0.667503    35A     -0.663093    36A     -0.652686
      37A     -0.466544    38A     -0.303711    39A     -0.240566
      40A     -0.189148    41A     -0.165040    42A     -0.150118
      43A     -0.129287    44A     -0.103193    45A     -0.087320
      46A     -0.070017    47A     -0.054589    48A     -0.045003
      49A     -0.033519    50A     -0.021040    51A     -0.009678
      52A      0.000283    53A      0.007840    54A      0.014201
      55A      0.019468    56A      0.035612    57A      0.050857
      58A      0.054274    59A      0.067455    60A      0.081732
      61A      0.083720    62A      0.097672    63A      0.099009
      64A      0.102492    65A      0.124166    66A      0.129896
      67A      0.140320    68A      0.145879    69A      0.168225

  @DF-RHF Final Energy: -1810.65167939693652

   => Energetics <=

    Nuclear Repulsion Energy =           1453.5723315288735193
    One-Electron Energy =               -5482.1013284805667354
    Two-Electron Energy =                2217.8773175547571554
    Total Energy =                      -1810.6516793969362880
  Basis Set: (AUG-CC-PVTZ AUX)
    Blend: AUG-CC-PVTZ-RI
    Molecular point group: c1

    Geometry (in Angstrom), charge = -4, multiplicity = 1:

       Center              X                  Y                   Z               Mass
    ------------   -----------------  -----------------  -----------------  -----------------
         P            2.596000362556     0.107262913256    -0.350899856929    30.973761998420
         P           -0.170213637444    -1.118941086744     0.297803143071    30.973761998420
         P           -2.695719637444     0.500119913256    -0.195690856929    30.973761998420
         O            1.966587362556     1.631490913256    -0.179253856929    15.994914619570
         O            1.264073362556    -0.853571086744    -0.540000856929    15.994914619570
         O            3.281061362556     0.117447913256    -1.692841856929    15.994914619570
         O            3.342064362556    -0.268771086744     0.907286143071    15.994914619570
         O           -0.975036637444     0.185928913256    -0.217509856929    15.994914619570
         O            0.142905662556    -1.046751486744     1.983679243071    15.994914619570
         O           -0.701930637444    -2.405887086744    -0.295383856929    15.994914619570
         O           -3.219637637444    -0.243868086744     1.046422143071    15.994914619570
         O           -2.699718637444     2.033327913256    -0.090922856929    15.994914619570
         O           -3.198259637444    -0.050561086744    -1.542358856929    15.994914619570
         C            1.434799362556     1.992807913256     1.110306143071    12.000000000000
         H            1.030076362556     1.126330913256     1.632885143071     1.007825032230
         H            2.215847362556     2.463867913256     1.715336143071     1.007825032230
         H            0.629198362556     2.706562913256     0.931497143071     1.007825032230

  Basis Set: AUG-CC-PVTZ
    Blend: AUG-CC-PVTZ
  Basis Set: (AUG-CC-PVTZ AUX)
    Blend: AUG-CC-PVTZ-JKFIT
	 Reference Energy          =   -1810.6516793969365153 [Eh]
	 Singles Energy            =      -0.0000000000000000 [Eh]
	 Same-Spin Energy          =      -0.9164870956255319 [Eh]
	 Opposite-Spin Energy      =      -2.5351843484216774 [Eh]
	 Correlation Energy        =      -3.4516714440472094 [Eh]
	 Total Energy              =   -1814.1033508409836941 [Eh]

	 ================> DF-SCS-MP2 Energies <==================
	-----------------------------------------------------------
	 SCS Same-Spin Scale       =       0.3333333333333333 [-]
	 SCS Opposite-Spin Scale   =       1.2000000000000000 [-]
	 SCS Same-Spin Energy      =      -0.3054956985418439 [Eh]
	 SCS Opposite-Spin Energy  =      -3.0422212181060129 [Eh]
	 SCS Correlation Energy    =      -3.3477169166478569 [Eh]
	 SCS Total Energy          =   -1813.9993963135843842 [Eh]
	-----------------------------------------------------------

  Dipole Moment: [D]
     X:     8.9562      Y:     2.4264      Z:     0.4404     Total:     9.2895

*** Psi4 exiting successfully. Buy a developer a beer!
