                               Psi4 1.3.2 release

  ==> Input File <==

--------------------------------------------------------------------------
#psi4
#
memory 32 gb

molecule  {
-4 1
  P        2.5828670     0.0826120    -0.3559070
  P       -0.1833470    -1.1435920     0.2927960
  P       -2.7088530     0.4754690    -0.2006980
  O        1.9534540     1.6068400    -0.1842610
  O        1.2509400    -0.8782220    -0.5450080
  O        3.2679280     0.0927970    -1.6978490
  O        3.3289310    -0.2934220     0.9022790
  O       -0.9881700     0.1612780    -0.2225170
  O        0.0772116    -1.1300644     1.7864054
  O       -0.7140083    -2.4521123    -0.2521784
  O       -3.2327710    -0.2685190     1.0414150
  O       -2.7128520     2.0086770    -0.0959300
  O       -3.2113930    -0.0752120    -1.5473660
  C        1.4216660     1.9681570     1.1052990
  H        1.0169430     1.1016800     1.6278780
  H        2.2027140     2.4392170     1.7103290
  H        0.6160650     2.6819120     0.9264900
units angstrom
no_reorient  #important for SAPT in psi4, default
symmetry c1  #important for SAPT in psi4, default
}

set PROPERTIES_ORIGIN ["COM"]
properties('MP2/aug-cc-pvtz', properties = ['dipole'])
--------------------------------------------------------------------------

    Molecular point group: c1
  Charge       = -4
  Multiplicity = 1
  Basis Set: AUG-CC-PVTZ
    Blend: AUG-CC-PVTZ
  Basis Set: (AUG-CC-PVTZ AUX)
    Blend: AUG-CC-PVTZ-JKFIT

    Orbital Energies [Eh]
    ---------------------

    Doubly Occupied:

       1A    -79.574152     2A    -79.526328     3A    -79.480946
       4A    -20.087324     5A    -20.040959     6A    -20.004033
       7A    -20.003805     8A    -19.996630     9A    -19.946337
      10A    -19.941654    11A    -19.924992    12A    -19.920311
      13A    -19.917661    14A    -10.813810    15A     -7.087969
      16A     -7.039285    17A     -6.994476    18A     -4.986921
      19A     -4.985981    20A     -4.985142    21A     -4.938530
      22A     -4.937038    23A     -4.936343    24A     -4.893955
      25A     -4.891734    26A     -4.891581    27A     -0.903588
      28A     -0.846906    29A     -0.807998    30A     -0.779777
      31A     -0.758813    32A     -0.742207    33A     -0.715119
      34A     -0.694061    35A     -0.664406    36A     -0.659702
      37A     -0.468677    38A     -0.295655    39A     -0.236583
      40A     -0.185757    41A     -0.165627    42A     -0.150496
      43A     -0.126734    44A     -0.099096    45A     -0.083980
      46A     -0.065945    47A     -0.052483    48A     -0.045235
      49A     -0.032319    50A     -0.017462    51A     -0.008188
      52A     -0.000415    53A      0.008991    54A      0.014242
      55A      0.020608    56A      0.036330    57A      0.047596
      58A      0.052385    59A      0.066411    60A      0.071188
      61A      0.090673    62A      0.100293    63A      0.101479
      64A      0.103218    65A      0.116564    66A      0.129666
      67A      0.143763    68A      0.149627    69A      0.171321

  @DF-RHF Final Energy: -1810.68828336340789

   => Energetics <=

    Nuclear Repulsion Energy =           1461.8849224160762788
    One-Electron Energy =               -5499.2848650090018054
    Two-Electron Energy =                2226.7116592295178634
    Total Energy =                      -1810.6882833634076633
  Basis Set: (AUG-CC-PVTZ AUX)
    Blend: AUG-CC-PVTZ-RI
    Molecular point group: c1

    Geometry (in Angstrom), charge = -4, multiplicity = 1:

       Center              X                  Y                   Z               Mass
    ------------   -----------------  -----------------  -----------------  -----------------
         P            2.599075527967     0.112053514061    -0.342298940793    30.973761998420
         P           -0.167138472033    -1.114150485939     0.306404059207    30.973761998420
         P           -2.692644472033     0.504910514061    -0.187089940793    30.973761998420
         O            1.969662527967     1.636281514061    -0.170652940793    15.994914619570
         O            1.267148527967    -0.848780485939    -0.531399940793    15.994914619570
         O            3.284136527967     0.122238514061    -1.684240940793    15.994914619570
         O            3.345139527967    -0.263980485939     0.915887059207    15.994914619570
         O           -0.971961472033     0.190719514061    -0.208908940793    15.994914619570
         O            0.093420127967    -1.100622885939     1.800013459207    15.994914619570
         O           -0.697799772033    -2.422670785939    -0.238570340793    15.994914619570
         O           -3.216562472033    -0.239077485939     1.055023059207    15.994914619570
         O           -2.696643472033     2.038118514061    -0.082321940793    15.994914619570
         O           -3.195184472033    -0.045770485939    -1.533757940793    15.994914619570
         C            1.437874527967     1.997598514061     1.118907059207    12.000000000000
         H            1.033151527967     1.131121514061     1.641486059207     1.007825032230
         H            2.218922527967     2.468658514061     1.723937059207     1.007825032230
         H            0.632273527967     2.711353514061     0.940098059207     1.007825032230

  Basis Set: AUG-CC-PVTZ
    Blend: AUG-CC-PVTZ
  Basis Set: (AUG-CC-PVTZ AUX)
    Blend: AUG-CC-PVTZ-JKFIT
	 Reference Energy          =   -1810.6882833634078906 [Eh]
	 Singles Energy            =      -0.0000000000000000 [Eh]
	 Same-Spin Energy          =      -0.9128843468302893 [Eh]
	 Opposite-Spin Energy      =      -2.5255946000002010 [Eh]
	 Correlation Energy        =      -3.4384789468304904 [Eh]
	 Total Energy              =   -1814.1267623102382913 [Eh]

	 ================> DF-SCS-MP2 Energies <==================
	-----------------------------------------------------------
	 SCS Same-Spin Scale       =       0.3333333333333333 [-]
	 SCS Opposite-Spin Scale   =       1.2000000000000000 [-]
	 SCS Same-Spin Energy      =      -0.3042947822767631 [Eh]
	 SCS Opposite-Spin Energy  =      -3.0307135200002411 [Eh]
	 SCS Correlation Energy    =      -3.3350083022770041 [Eh]
	 SCS Total Energy          =   -1814.0232916656848374 [Eh]
	-----------------------------------------------------------

  Dipole Moment: [D]
     X:     9.2925      Y:     2.5576      Z:     1.4848     Total:     9.7518

*** Psi4 exiting successfully. Buy a developer a beer!
