                               Psi4 1.3.2 release

  ==> Input File <==

--------------------------------------------------------------------------
#psi4
#
memory 32 gb

molecule  {
-4 1
  P        2.5828670     0.0826120    -0.3559070
  P       -0.1833470    -1.1435920     0.2927960
  P       -2.7088530     0.4754690    -0.2006980
  O        1.9534540     1.6068400    -0.1842610
  O        1.2509400    -0.8782220    -0.5450080
  O        3.2679280     0.0927970    -1.6978490
  O        3.3289310    -0.2934220     0.9022790
  O       -0.9881700     0.1612780    -0.2225170
  O        0.0690556    -1.1551992     1.7878214
  O       -0.7132379    -2.4623031    -0.2278194
  O       -3.2327710    -0.2685190     1.0414150
  O       -2.7128520     2.0086770    -0.0959300
  O       -3.2113930    -0.0752120    -1.5473660
  C        1.4216660     1.9681570     1.1052990
  H        1.0169430     1.1016800     1.6278780
  H        2.2027140     2.4392170     1.7103290
  H        0.6160650     2.6819120     0.9264900
units angstrom
no_reorient  #important for SAPT in psi4, default
symmetry c1  #important for SAPT in psi4, default
}

set PROPERTIES_ORIGIN ["COM"]
properties('MP2/aug-cc-pvtz', properties = ['dipole'])
--------------------------------------------------------------------------

    Molecular point group: c1
  Charge       = -4
  Multiplicity = 1
  Basis Set: AUG-CC-PVTZ
    Blend: AUG-CC-PVTZ
  Basis Set: (AUG-CC-PVTZ AUX)
    Blend: AUG-CC-PVTZ-JKFIT

    Orbital Energies [Eh]
    ---------------------

    Doubly Occupied:

       1A    -79.574937     2A    -79.526049     3A    -79.481487
       4A    -20.088146     5A    -20.042269     6A    -20.004623
       7A    -20.004426     8A    -19.998429     9A    -19.944354
      10A    -19.939761    11A    -19.925527    12A    -19.920864
      13A    -19.917811    14A    -10.814836    15A     -7.088752
      16A     -7.039025    17A     -6.995030    18A     -4.987704
      19A     -4.986767    20A     -4.985919    21A     -4.938252
      22A     -4.936707    23A     -4.936130    24A     -4.894517
      25A     -4.892279    26A     -4.892124    27A     -0.904406
      28A     -0.847555    29A     -0.808691    30A     -0.780639
      31A     -0.759406    32A     -0.742281    33A     -0.715892
      34A     -0.691071    35A     -0.664893    36A     -0.660018
      37A     -0.469588    38A     -0.296572    39A     -0.237550
      40A     -0.186597    41A     -0.166439    42A     -0.151336
      43A     -0.127125    44A     -0.099175    45A     -0.084564
      46A     -0.066398    47A     -0.052793    48A     -0.045783
      49A     -0.032568    50A     -0.018103    51A     -0.008934
      52A     -0.000727    53A      0.008603    54A      0.014062
      55A      0.020181    56A      0.035785    57A      0.047750
      58A      0.051849    59A      0.066010    60A      0.071488
      61A      0.090498    62A      0.099930    63A      0.101171
      64A      0.102937    65A      0.118155    66A      0.132163
      67A      0.143453    68A      0.149292    69A      0.170951

  @DF-RHF Final Energy: -1810.68712382971125

   => Energetics <=

    Nuclear Repulsion Energy =           1461.3962261076501363
    One-Electron Energy =               -5498.2636001420523826
    Two-Electron Energy =                2226.1802502046907648
    Total Energy =                      -1810.6871238297112541
  Basis Set: (AUG-CC-PVTZ AUX)
    Blend: AUG-CC-PVTZ-RI
    Molecular point group: c1

    Geometry (in Angstrom), charge = -4, multiplicity = 1:

       Center              X                  Y                   Z               Mass
    ------------   -----------------  -----------------  -----------------  -----------------
         P            2.599516493730     0.114162669740    -0.343837866887    30.973761998420
         P           -0.166697506270    -1.112041330260     0.304865133113    30.973761998420
         P           -2.692203506270     0.507019669740    -0.188628866887    30.973761998420
         O            1.970103493730     1.638390669740    -0.172191866887    15.994914619570
         O            1.267589493730    -0.846671330260    -0.532938866887    15.994914619570
         O            3.284577493730     0.124347669740    -1.685779866887    15.994914619570
         O            3.345580493730    -0.261871330260     0.914348133113    15.994914619570
         O           -0.971520506270     0.192828669740    -0.210447866887    15.994914619570
         O            0.085705093730    -1.123648530260     1.799890533113    15.994914619570
         O           -0.696588406270    -2.430752430260    -0.215750266887    15.994914619570
         O           -3.216121506270    -0.236968330260     1.053484133113    15.994914619570
         O           -2.696202506270     2.040227669740    -0.083860866887    15.994914619570
         O           -3.194743506270    -0.043661330260    -1.535296866887    15.994914619570
         C            1.438315493730     1.999707669740     1.117368133113    12.000000000000
         H            1.033592493730     1.133230669740     1.639947133113     1.007825032230
         H            2.219363493730     2.470767669740     1.722398133113     1.007825032230
         H            0.632714493730     2.713462669740     0.938559133113     1.007825032230

  Basis Set: AUG-CC-PVTZ
    Blend: AUG-CC-PVTZ
  Basis Set: (AUG-CC-PVTZ AUX)
    Blend: AUG-CC-PVTZ-JKFIT
	 Reference Energy          =   -1810.6871238297112541 [Eh]
	 Singles Energy            =      -0.0000000000000000 [Eh]
	 Same-Spin Energy          =      -0.9128680460214387 [Eh]
	 Opposite-Spin Energy      =      -2.5255925829036805 [Eh]
	 Correlation Energy        =      -3.4384606289251192 [Eh]
	 Total Energy              =   -1814.1255844586364674 [Eh]

	 ================> DF-SCS-MP2 Energies <==================
	-----------------------------------------------------------
	 SCS Same-Spin Scale       =       0.3333333333333333 [-]
	 SCS Opposite-Spin Scale   =       1.2000000000000000 [-]
	 SCS Same-Spin Energy      =      -0.3042893486738129 [Eh]
	 SCS Opposite-Spin Energy  =      -3.0307110994844164 [Eh]
	 SCS Correlation Energy    =      -3.3350004481582292 [Eh]
	 SCS Total Energy          =   -1814.0221242778695796 [Eh]
	-----------------------------------------------------------

  Dipole Moment: [D]
     X:     9.3098      Y:     2.6661      Z:     1.4230     Total:     9.7881

*** Psi4 exiting successfully. Buy a developer a beer!
