                               Psi4 1.3.2 release

  ==> Input File <==

--------------------------------------------------------------------------
#psi4
#
memory 32 gb

molecule  {
-4 1
  P        2.5828670     0.0826120    -0.3559070
  P       -0.1833470    -1.1435920     0.2927960
  P       -2.7088530     0.4754690    -0.2006980
  O        1.9534540     1.6068400    -0.1842610
  O        1.2411225    -0.9275084    -0.5753691
  O        3.2679280     0.0927970    -1.6978490
  O        3.3289310    -0.2934220     0.9022790
  O       -0.9881700     0.1612780    -0.2225170
  O        0.0932830    -1.0798150     1.7822090
  O       -0.6729192    -2.4322028    -0.3322040
  O       -3.2327710    -0.2685190     1.0414150
  O       -2.7128520     2.0086770    -0.0959300
  O       -3.2113930    -0.0752120    -1.5473660
  C        1.4216660     1.9681570     1.1052990
  H        1.0169430     1.1016800     1.6278780
  H        2.2027140     2.4392170     1.7103290
  H        0.6160650     2.6819120     0.9264900
units angstrom
no_reorient  #important for SAPT in psi4, default
symmetry c1  #important for SAPT in psi4, default
}

set PROPERTIES_ORIGIN ["COM"]
properties('MP2/aug-cc-pvtz', properties = ['dipole'])
--------------------------------------------------------------------------

    Molecular point group: c1
  Charge       = -4
  Multiplicity = 1
  Basis Set: AUG-CC-PVTZ
    Blend: AUG-CC-PVTZ
  Basis Set: (AUG-CC-PVTZ AUX)
    Blend: AUG-CC-PVTZ-JKFIT

    Orbital Energies [Eh]
    ---------------------

    Doubly Occupied:

       1A    -79.575089     2A    -79.524128     3A    -79.480413
       4A    -20.089295     5A    -20.036052     6A    -20.005399
       7A    -20.002985     8A    -19.993723     9A    -19.952322
      10A    -19.940393    11A    -19.924400    12A    -19.919468
      13A    -19.918196    14A    -10.813590    15A     -7.088592
      16A     -7.037293    17A     -6.993918    18A     -4.987456
      19A     -4.986533    20A     -4.985757    21A     -4.936533
      22A     -4.935211    23A     -4.934239    24A     -4.893382
      25A     -4.891192    26A     -4.891040    27A     -0.901664
      28A     -0.841478    29A     -0.806771    30A     -0.776604
      31A     -0.758775    32A     -0.739253    33A     -0.713762
      34A     -0.698214    35A     -0.663962    36A     -0.659597
      37A     -0.468800    38A     -0.284966    39A     -0.235619
      40A     -0.183752    41A     -0.164691    42A     -0.150299
      43A     -0.125858    44A     -0.098335    45A     -0.079598
      46A     -0.063587    47A     -0.052275    48A     -0.043811
      49A     -0.032999    50A     -0.014543    51A     -0.005945
      52A     -0.000279    53A      0.008908    54A      0.015905
      55A      0.022410    56A      0.036244    57A      0.047213
      58A      0.052089    59A      0.066935    60A      0.071737
      61A      0.093322    62A      0.100197    63A      0.102094
      64A      0.103444    65A      0.115744    66A      0.125953
      67A      0.143980    68A      0.150103    69A      0.171541

  @DF-RHF Final Energy: -1810.68325785789830

   => Energetics <=

    Nuclear Repulsion Energy =           1461.2630135423526099
    One-Electron Energy =               -5498.1441083325144064
    Two-Electron Energy =                2226.1978369322637263
    Total Energy =                      -1810.6832578578982975
  Basis Set: (AUG-CC-PVTZ AUX)
    Blend: AUG-CC-PVTZ-RI
    Molecular point group: c1

    Geometry (in Angstrom), charge = -4, multiplicity = 1:

       Center              X                  Y                   Z               Mass
    ------------   -----------------  -----------------  -----------------  -----------------
         P            2.596248859565     0.110807297382    -0.335457624691    30.973761998420
         P           -0.169965140435    -1.115396702618     0.313245375309    30.973761998420
         P           -2.695471140435     0.503664297382    -0.180248624691    30.973761998420
         O            1.966835859565     1.635035297382    -0.163811624691    15.994914619570
         O            1.254504359565    -0.899313102618    -0.554919724691    15.994914619570
         O            3.281309859565     0.120992297382    -1.677399624691    15.994914619570
         O            3.342312859565    -0.265226702618     0.922728375309    15.994914619570
         O           -0.974788140435     0.189473297382    -0.202067624691    15.994914619570
         O            0.106664859565    -1.051619702618     1.802658375309    15.994914619570
         O           -0.659537340435    -2.404007502618    -0.311754624691    15.994914619570
         O           -3.219389140435    -0.240323702618     1.061864375309    15.994914619570
         O           -2.699470140435     2.036872297382    -0.075480624691    15.994914619570
         O           -3.198011140435    -0.047016702618    -1.526916624691    15.994914619570
         C            1.435047859565     1.996352297382     1.125748375309    12.000000000000
         H            1.030324859565     1.129875297382     1.648327375309     1.007825032230
         H            2.216095859565     2.467412297382     1.730778375309     1.007825032230
         H            0.629446859565     2.710107297382     0.946939375309     1.007825032230

  Basis Set: AUG-CC-PVTZ
    Blend: AUG-CC-PVTZ
  Basis Set: (AUG-CC-PVTZ AUX)
    Blend: AUG-CC-PVTZ-JKFIT
	 Reference Energy          =   -1810.6832578578982975 [Eh]
	 Singles Energy            =      -0.0000000000000000 [Eh]
	 Same-Spin Energy          =      -0.9136239664275759 [Eh]
	 Opposite-Spin Energy      =      -2.5274424543155027 [Eh]
	 Correlation Energy        =      -3.4410664207430788 [Eh]
	 Total Energy              =   -1814.1243242786413248 [Eh]

	 ================> DF-SCS-MP2 Energies <==================
	-----------------------------------------------------------
	 SCS Same-Spin Scale       =       0.3333333333333333 [-]
	 SCS Opposite-Spin Scale   =       1.2000000000000000 [-]
	 SCS Same-Spin Energy      =      -0.3045413221425253 [Eh]
	 SCS Opposite-Spin Energy  =      -3.0329309451786033 [Eh]
	 SCS Correlation Energy    =      -3.3374722673211288 [Eh]
	 SCS Total Energy          =   -1814.0207301252194156 [Eh]
	-----------------------------------------------------------

  Dipole Moment: [D]
     X:     9.3086      Y:     2.5190      Z:     1.7381     Total:     9.7988

*** Psi4 exiting successfully. Buy a developer a beer!
