                               Psi4 1.3.2 release

  ==> Input File <==

--------------------------------------------------------------------------
#psi4
#
memory 32 gb

molecule  {
-4 1
  P        2.5828670     0.0826120    -0.3559070
  P       -0.1833470    -1.1435920     0.2927960
  P       -2.7088530     0.4754690    -0.2006980
  O        1.9534540     1.6068400    -0.1842610
  O        1.2509400    -0.8782220    -0.5450080
  O        3.2679280     0.0927970    -1.6978490
  O        3.3289310    -0.2934220     0.9022790
  O       -0.9881700     0.1612780    -0.2225170
  O        0.0932830    -1.0798150     1.7822090
  O       -0.7150640    -2.4305380    -0.3003910
  O       -3.2327710    -0.2685190     1.0414150
  O       -2.7176819     2.0094590    -0.1084166
  O       -3.2134168    -0.0626529    -1.5516794
  C        1.4216660     1.9681570     1.1052990
  H        1.0169430     1.1016800     1.6278780
  H        2.2027140     2.4392170     1.7103290
  H        0.6160650     2.6819120     0.9264900
units angstrom
no_reorient  #important for SAPT in psi4, default
symmetry c1  #important for SAPT in psi4, default
}

set PROPERTIES_ORIGIN ["COM"]
properties('MP2/aug-cc-pvtz', properties = ['dipole'])
--------------------------------------------------------------------------

    Molecular point group: c1
  Charge       = -4
  Multiplicity = 1
  Basis Set: AUG-CC-PVTZ
    Blend: AUG-CC-PVTZ
  Basis Set: (AUG-CC-PVTZ AUX)
    Blend: AUG-CC-PVTZ-JKFIT

    Orbital Energies [Eh]
    ---------------------

    Doubly Occupied:

       1A    -79.572708     2A    -79.527284     3A    -79.479845
       4A    -20.085795     5A    -20.038538     6A    -20.002986
       7A    -20.002659     8A    -19.993558     9A    -19.950439
      10A    -19.945630    11A    -19.923091    12A    -19.918484
      13A    -19.918368    14A    -10.811880    15A     -7.086531
      16A     -7.040220    17A     -6.993347    18A     -4.985481
      19A     -4.984536    20A     -4.983717    21A     -4.939496
      22A     -4.938110    23A     -4.937179    24A     -4.892801
      25A     -4.890638    26A     -4.890460    27A     -0.902088
      28A     -0.845917    29A     -0.806872    30A     -0.778192
      31A     -0.757743    32A     -0.742248    33A     -0.713817
      34A     -0.699980    35A     -0.662907    36A     -0.659197
      37A     -0.466991    38A     -0.294063    39A     -0.234848
      40A     -0.184268    41A     -0.164175    42A     -0.148948
      43A     -0.126161    44A     -0.099179    45A     -0.083024
      46A     -0.065152    47A     -0.052131    48A     -0.044285
      49A     -0.032098    50A     -0.016297    51A     -0.006828
      52A      0.000096    53A      0.009676    54A      0.014708
      55A      0.021243    56A      0.037244    57A      0.047354
      58A      0.053354    59A      0.066781    60A      0.070648
      61A      0.090776    62A      0.100787    63A      0.102423
      64A      0.103457    65A      0.113750    66A      0.125063
      67A      0.144368    68A      0.150675    69A      0.172265

  @DF-RHF Final Energy: -1810.68914146771976

   => Energetics <=

    Nuclear Repulsion Energy =           1462.7454609451642682
    One-Electron Energy =               -5501.0761618390024523
    Two-Electron Energy =                2227.6415594261184197
    Total Energy =                      -1810.6891414677197645
  Basis Set: (AUG-CC-PVTZ AUX)
    Blend: AUG-CC-PVTZ-RI
    Molecular point group: c1

    Geometry (in Angstrom), charge = -4, multiplicity = 1:

       Center              X                  Y                   Z               Mass
    ------------   -----------------  -----------------  -----------------  -----------------
         P            2.598588206346     0.106968651481    -0.338166737649    30.973761998420
         P           -0.167625793654    -1.119235348519     0.310536262351    30.973761998420
         P           -2.693131793654     0.499825651481    -0.182957737649    30.973761998420
         O            1.969175206346     1.631196651481    -0.166520737649    15.994914619570
         O            1.266661206346    -0.853865348519    -0.527267737649    15.994914619570
         O            3.283649206346     0.117153651481    -1.680108737649    15.994914619570
         O            3.344652206346    -0.269065348519     0.920019262351    15.994914619570
         O           -0.972448793654     0.185634651481    -0.204776737649    15.994914619570
         O            0.109004206346    -1.055458348519     1.799949262351    15.994914619570
         O           -0.699342793654    -2.406181348519    -0.282650737649    15.994914619570
         O           -3.217049793654    -0.244162348519     1.059155262351    15.994914619570
         O           -2.701960693654     2.033815651481    -0.090676337649    15.994914619570
         O           -3.197695593654    -0.038296248519    -1.533939137649    15.994914619570
         C            1.437387206346     1.992513651481     1.123039262351    12.000000000000
         H            1.032664206346     1.126036651481     1.645618262351     1.007825032230
         H            2.218435206346     2.463573651481     1.728069262351     1.007825032230
         H            0.631786206346     2.706268651481     0.944230262351     1.007825032230

  Basis Set: AUG-CC-PVTZ
    Blend: AUG-CC-PVTZ
  Basis Set: (AUG-CC-PVTZ AUX)
    Blend: AUG-CC-PVTZ-JKFIT
	 Reference Energy          =   -1810.6891414677197645 [Eh]
	 Singles Energy            =      -0.0000000000000000 [Eh]
	 Same-Spin Energy          =      -0.9129871030659349 [Eh]
	 Opposite-Spin Energy      =      -2.5257305974900897 [Eh]
	 Correlation Energy        =      -3.4387177005560243 [Eh]
	 Total Energy              =   -1814.1278591682757906 [Eh]

	 ================> DF-SCS-MP2 Energies <==================
	-----------------------------------------------------------
	 SCS Same-Spin Scale       =       0.3333333333333333 [-]
	 SCS Opposite-Spin Scale   =       1.2000000000000000 [-]
	 SCS Same-Spin Energy      =      -0.3043290343553116 [Eh]
	 SCS Opposite-Spin Energy  =      -3.0308767169881077 [Eh]
	 SCS Correlation Energy    =      -3.3352057513434192 [Eh]
	 SCS Total Energy          =   -1814.0243472190632019 [Eh]
	-----------------------------------------------------------

  Dipole Moment: [D]
     X:     9.2817      Y:     2.2999      Z:     1.6563     Total:     9.7048

*** Psi4 exiting successfully. Buy a developer a beer!
