                               Psi4 1.3.2 release

  ==> Input File <==

--------------------------------------------------------------------------
#psi4
#
memory 32 gb

molecule  {
-4 1
  P        2.5828670     0.0826120    -0.3559070
  P       -0.2078316    -1.1553560     0.3004746
  P       -2.7134086     0.4481456    -0.1878620
  O        1.9534540     1.6068400    -0.1842610
  O        1.2509400    -0.8782220    -0.5450080
  O        3.2679280     0.0927970    -1.6978490
  O        3.3289310    -0.2934220     0.9022790
  O       -0.9881700     0.1612780    -0.2225170
  O        0.0932830    -1.0798150     1.7822090
  O       -0.7150640    -2.4305380    -0.3003910
  O       -3.2327710    -0.2685190     1.0414150
  O       -2.7128520     2.0086770    -0.0959300
  O       -3.2113930    -0.0752120    -1.5473660
  C        1.4216660     1.9681570     1.1052990
  H        1.0169430     1.1016800     1.6278780
  H        2.2027140     2.4392170     1.7103290
  H        0.6160650     2.6819120     0.9264900
units angstrom
no_reorient  #important for SAPT in psi4, default
symmetry c1  #important for SAPT in psi4, default
}

set PROPERTIES_ORIGIN ["COM"]
properties('MP2/aug-cc-pvtz', properties = ['dipole'])
--------------------------------------------------------------------------

    Molecular point group: c1
  Charge       = -4
  Multiplicity = 1
  Basis Set: AUG-CC-PVTZ
    Blend: AUG-CC-PVTZ
  Basis Set: (AUG-CC-PVTZ AUX)
    Blend: AUG-CC-PVTZ-JKFIT

    Orbital Energies [Eh]
    ---------------------

    Doubly Occupied:

       1A    -79.568503     2A    -79.527419     3A    -79.480704
       4A    -20.082799     5A    -20.031441     6A    -19.999924
       7A    -19.999504     8A    -19.995774     9A    -19.952459
      10A    -19.950745    11A    -19.923811    12A    -19.920187
      13A    -19.919648    14A    -10.809788    15A     -7.082329
      16A     -7.040810    17A     -6.994358    18A     -4.981289
      19A     -4.980302    20A     -4.979552    21A     -4.940036
      22A     -4.938629    23A     -4.937788    24A     -4.893792
      25A     -4.891675    26A     -4.891442    27A     -0.898124
      28A     -0.841168    29A     -0.806455    30A     -0.775006
      31A     -0.754693    32A     -0.744607    33A     -0.717480
      34A     -0.707214    35A     -0.668447    36A     -0.654852
      37A     -0.464616    38A     -0.287024    39A     -0.232209
      40A     -0.180574    41A     -0.161406    42A     -0.146067
      43A     -0.124054    44A     -0.100728    45A     -0.079151
      46A     -0.065126    47A     -0.051449    48A     -0.042305
      49A     -0.032541    50A     -0.015585    51A     -0.003581
      52A     -0.000919    53A      0.010733    54A      0.017092
      55A      0.019391    56A      0.039361    57A      0.045418
      58A      0.056358    59A      0.065277    60A      0.071935
      61A      0.087535    62A      0.098520    63A      0.100427
      64A      0.105548    65A      0.109747    66A      0.120360
      67A      0.141759    68A      0.150342    69A      0.171314

  @DF-RHF Final Energy: -1810.68803478754899

   => Energetics <=

    Nuclear Repulsion Energy =           1462.6489680279180448
    One-Electron Energy =               -5500.9560676992223307
    Two-Electron Energy =                2227.6190648837550725
    Total Energy =                      -1810.6880347875489861
  Basis Set: (AUG-CC-PVTZ AUX)
    Blend: AUG-CC-PVTZ-RI
    Molecular point group: c1

    Geometry (in Angstrom), charge = -4, multiplicity = 1:

       Center              X                  Y                   Z               Mass
    ------------   -----------------  -----------------  -----------------  -----------------
         P            2.601536611947     0.112284463231    -0.341541688997    30.973761998420
         P           -0.189161988053    -1.125683536769     0.314839911003    30.973761998420
         P           -2.694738988053     0.477818063231    -0.173496688997    30.973761998420
         O            1.972123611947     1.636512463231    -0.169895688997    15.994914619570
         O            1.269609611947    -0.848549536769    -0.530642688997    15.994914619570
         O            3.286597611947     0.122469463231    -1.683483688997    15.994914619570
         O            3.347600611947    -0.263749536769     0.916644311003    15.994914619570
         O           -0.969500388053     0.190950463231    -0.208151688997    15.994914619570
         O            0.111952611947    -1.050142536769     1.796574311003    15.994914619570
         O           -0.696394388053    -2.400865536769    -0.286025688997    15.994914619570
         O           -3.214101388053    -0.238846536769     1.055780311003    15.994914619570
         O           -2.694182388053     2.038349463231    -0.081564688997    15.994914619570
         O           -3.192723388053    -0.045539536769    -1.533000688997    15.994914619570
         C            1.440335611947     1.997829463231     1.119664311003    12.000000000000
         H            1.035612611947     1.131352463231     1.642243311003     1.007825032230
         H            2.221383611947     2.468889463231     1.724694311003     1.007825032230
         H            0.634734611947     2.711584463231     0.940855311003     1.007825032230

  Basis Set: AUG-CC-PVTZ
    Blend: AUG-CC-PVTZ
  Basis Set: (AUG-CC-PVTZ AUX)
    Blend: AUG-CC-PVTZ-JKFIT
	 Reference Energy          =   -1810.6880347875489861 [Eh]
	 Singles Energy            =      -0.0000000000000000 [Eh]
	 Same-Spin Energy          =      -0.9130338554167693 [Eh]
	 Opposite-Spin Energy      =      -2.5258927263127253 [Eh]
	 Correlation Energy        =      -3.4389265817294947 [Eh]
	 Total Energy              =   -1814.1269613692784333 [Eh]

	 ================> DF-SCS-MP2 Energies <==================
	-----------------------------------------------------------
	 SCS Same-Spin Scale       =       0.3333333333333333 [-]
	 SCS Opposite-Spin Scale   =       1.2000000000000000 [-]
	 SCS Same-Spin Energy      =      -0.3043446184722564 [Eh]
	 SCS Opposite-Spin Energy  =      -3.0310712715752701 [Eh]
	 SCS Correlation Energy    =      -3.3354158900475266 [Eh]
	 SCS Total Energy          =   -1814.0234506775964292 [Eh]
	-----------------------------------------------------------

  Dipole Moment: [D]
     X:     8.8133      Y:     1.7579      Z:     1.8437     Total:     9.1741

*** Psi4 exiting successfully. Buy a developer a beer!
