                               Psi4 1.3.2 release

  ==> Input File <==

--------------------------------------------------------------------------
#psi4
#
memory 32 gb

molecule  {
-4 1
  P        2.5828670     0.0826120    -0.3559070
  P       -0.1833470    -1.1435920     0.2927960
  P       -2.7088530     0.4754690    -0.2006980
  O        1.9534540     1.6068400    -0.1842610
  O        1.2509400    -0.8782220    -0.5450080
  O        3.2679280     0.0927970    -1.6978490
  O        3.3289310    -0.2934220     0.9022790
  O       -0.9881700     0.1612780    -0.2225170
  O        0.0932830    -1.0798150     1.7822090
  O       -0.7150640    -2.4305380    -0.3003910
  O       -3.2603079    -0.3013485     1.0089734
  O       -2.7128520     2.0086770    -0.0959300
  O       -3.2394059    -0.1124452    -1.5206151
  C        1.4216660     1.9681570     1.1052990
  H        1.0169430     1.1016800     1.6278780
  H        2.2027140     2.4392170     1.7103290
  H        0.6160650     2.6819120     0.9264900
units angstrom
no_reorient  #important for SAPT in psi4, default
symmetry c1  #important for SAPT in psi4, default
}

set PROPERTIES_ORIGIN ["COM"]
properties('MP2/aug-cc-pvtz', properties = ['dipole'])
--------------------------------------------------------------------------

    Molecular point group: c1
  Charge       = -4
  Multiplicity = 1
  Basis Set: AUG-CC-PVTZ
    Blend: AUG-CC-PVTZ
  Basis Set: (AUG-CC-PVTZ AUX)
    Blend: AUG-CC-PVTZ-JKFIT

    Orbital Energies [Eh]
    ---------------------

    Doubly Occupied:

       1A    -79.573159     2A    -79.527624     3A    -79.479729
       4A    -20.086447     5A    -20.038974     6A    -20.003396
       7A    -20.003097     8A    -19.995109     9A    -19.950871
      10A    -19.945051    11A    -19.928245    12A    -19.915783
      13A    -19.913929    14A    -10.812616    15A     -7.086986
      16A     -7.040553    17A     -6.993235    18A     -4.985938
      19A     -4.984990    20A     -4.984170    21A     -4.939826
      22A     -4.938453    23A     -4.937499    24A     -4.892662
      25A     -4.890482    26A     -4.890396    27A     -0.902682
      28A     -0.846438    29A     -0.807440    30A     -0.778623
      31A     -0.758165    32A     -0.742334    33A     -0.714452
      34A     -0.699796    35A     -0.666547    36A     -0.653701
      37A     -0.467711    38A     -0.294584    39A     -0.235623
      40A     -0.185054    41A     -0.164878    42A     -0.149647
      43A     -0.126533    44A     -0.099242    45A     -0.083378
      46A     -0.065177    47A     -0.052656    48A     -0.044773
      49A     -0.032409    50A     -0.016965    51A     -0.007264
      52A      0.000846    53A      0.008859    54A      0.013978
      55A      0.021582    56A      0.036913    57A      0.047022
      58A      0.052923    59A      0.066572    60A      0.070442
      61A      0.090429    62A      0.100088    63A      0.101986
      64A      0.104912    65A      0.113931    66A      0.125270
      67A      0.142881    68A      0.153263    69A      0.174347

  @DF-RHF Final Energy: -1810.68805504356465

   => Energetics <=

    Nuclear Repulsion Energy =           1462.4980906675120877
    One-Electron Energy =               -5500.5541945439417759
    Two-Electron Energy =                2227.3680488328650426
    Total Energy =                      -1810.6880550435648729
  Basis Set: (AUG-CC-PVTZ AUX)
    Blend: AUG-CC-PVTZ-RI
    Molecular point group: c1

    Geometry (in Angstrom), charge = -4, multiplicity = 1:

       Center              X                  Y                   Z               Mass
    ------------   -----------------  -----------------  -----------------  -----------------
         P            2.601495663143     0.111948371525    -0.338830031214    30.973761998420
         P           -0.164718336857    -1.114255628475     0.309872968786    30.973761998420
         P           -2.690224336857     0.504805371525    -0.183621031214    30.973761998420
         O            1.972082663143     1.636176371525    -0.167184031214    15.994914619570
         O            1.269568663143    -0.848885628475    -0.527931031214    15.994914619570
         O            3.286556663143     0.122133371525    -1.680772031214    15.994914619570
         O            3.347559663143    -0.264085628475     0.919355968786    15.994914619570
         O           -0.969541336857     0.190614371525    -0.205440031214    15.994914619570
         O            0.111911663143    -1.050478628475     1.799285968786    15.994914619570
         O           -0.696435336857    -2.401201628475    -0.283314031214    15.994914619570
         O           -3.241679236857    -0.272012128475     1.026050368786    15.994914619570
         O           -2.694223336857     2.038013371525    -0.078853031214    15.994914619570
         O           -3.220777236857    -0.083108828475    -1.503538131214    15.994914619570
         C            1.440294663143     1.997493371525     1.122375968786    12.000000000000
         H            1.035571663143     1.131016371525     1.644954968786     1.007825032230
         H            2.221342663143     2.468553371525     1.727405968786     1.007825032230
         H            0.634693663143     2.711248371525     0.943566968786     1.007825032230

  Basis Set: AUG-CC-PVTZ
    Blend: AUG-CC-PVTZ
  Basis Set: (AUG-CC-PVTZ AUX)
    Blend: AUG-CC-PVTZ-JKFIT
	 Reference Energy          =   -1810.6880550435646455 [Eh]
	 Singles Energy            =      -0.0000000000000000 [Eh]
	 Same-Spin Energy          =      -0.9130165124019645 [Eh]
	 Opposite-Spin Energy      =      -2.5257863792157975 [Eh]
	 Correlation Energy        =      -3.4388028916177618 [Eh]
	 Total Energy              =   -1814.1268579351824428 [Eh]

	 ================> DF-SCS-MP2 Energies <==================
	-----------------------------------------------------------
	 SCS Same-Spin Scale       =       0.3333333333333333 [-]
	 SCS Opposite-Spin Scale   =       1.2000000000000000 [-]
	 SCS Same-Spin Energy      =      -0.3043388374673215 [Eh]
	 SCS Opposite-Spin Energy  =      -3.0309436550589570 [Eh]
	 SCS Correlation Energy    =      -3.3352824925262787 [Eh]
	 SCS Total Energy          =   -1814.0233375360908212 [Eh]
	-----------------------------------------------------------

  Dipole Moment: [D]
     X:     9.4184      Y:     2.5121      Z:     1.6279     Total:     9.8827

*** Psi4 exiting successfully. Buy a developer a beer!
