                               Psi4 1.4a3.dev225

  ==> Input File <==

--------------------------------------------------------------------------
#psi4
#
memory 32 gb

molecule  {
-4 1
  P       -2.5202440    -0.2449420     0.3712220
  P        0.3565170    -0.5960480    -0.3589090
  P        3.1750170     0.3881900     0.1554910
  O       -2.7927880     1.3311510    -0.1150520
  O       -0.9169740    -0.0836090     0.6422800
  O       -3.1856250    -0.4605710     1.7148300
  O       -2.8507450    -1.1694890    -0.7786080
  O        1.4707402     0.0807158     0.5770392
  O        0.2127210     0.0849480    -1.7048820
  O        0.4027150    -2.1095660    -0.2874290
  O        3.5327910    -0.6840640    -0.8835370
  O        3.1643710     1.8286230    -0.3742880
  O        3.8338960     0.2099350     1.5311200
  C       -4.1398760     1.5889580    -0.5252390
  H       -4.4292020     0.9309370    -1.3496150
  H       -4.8386320     1.4471050     0.3059850
  H       -4.1840730     2.6280350    -0.8559160
units angstrom
no_reorient  #important for SAPT in psi4, default
symmetry c1  #important for SAPT in psi4, default
}

set PROPERTIES_ORIGIN ["COM"]
properties('MP2/aug-cc-pvtz', properties = ['dipole'])
--------------------------------------------------------------------------

    Molecular point group: c1
  Charge       = -4
  Multiplicity = 1
  Basis Set: AUG-CC-PVTZ
    Blend: AUG-CC-PVTZ
  Basis Set: (AUG-CC-PVTZ AUX)
    Blend: AUG-CC-PVTZ-JKFIT

    Orbital Energies [Eh]
    ---------------------

    Doubly Occupied:

       1A    -79.579367     2A    -79.514130     3A    -79.478178
       4A    -20.118262     5A    -20.039599     6A    -20.014048
       7A    -20.003985     8A    -19.983500     9A    -19.935208
      10A    -19.934024    11A    -19.924113    12A    -19.919219
      13A    -19.915350    14A    -10.882732    15A     -7.093670
      16A     -7.027526    17A     -6.991801    18A     -4.992817
      19A     -4.991494    20A     -4.990607    21A     -4.926941
      22A     -4.925345    23A     -4.924195    24A     -4.891184
      25A     -4.889052    26A     -4.888926    27A     -0.930367
      28A     -0.852402    29A     -0.806429    30A     -0.776409
      31A     -0.760226    32A     -0.736772    33A     -0.706330
      34A     -0.685630    35A     -0.663835    36A     -0.659118
      37A     -0.527500    38A     -0.307158    39A     -0.250808
      40A     -0.220002    41A     -0.195211    42A     -0.163957
      43A     -0.138627    44A     -0.107219    45A     -0.094188
      46A     -0.078460    47A     -0.062628    48A     -0.051087
      49A     -0.034455    50A     -0.024590    51A     -0.011812
      52A     -0.009226    53A      0.010364    54A      0.011549
      55A      0.021547    56A      0.035355    57A      0.049087
      58A      0.055211    59A      0.063127    60A      0.082218
      61A      0.097624    62A      0.101820    63A      0.106228
      64A      0.107536    65A      0.125857    66A      0.135829
      67A      0.146082    68A      0.152923    69A      0.172617

  @DF-RHF Final Energy: -1810.67492460317180

   => Energetics <=

    Nuclear Repulsion Energy =           1425.6543117801713834
    One-Electron Energy =               -5426.3489869692548382
    Two-Electron Energy =                2190.0197505859118792
    Total Energy =                      -1810.6749246031718030
  Basis Set: (AUG-CC-PVTZ AUX)
    Blend: AUG-CC-PVTZ-RI
    Molecular point group: c1

    Geometry (in Angstrom), charge = -4, multiplicity = 1:

       Center              X                  Y                   Z               Mass
    ------------   -----------------  -----------------  -----------------  -----------------
         P           -2.572543844593    -0.224568075263     0.363300283684    30.973761998420
         P            0.304217155407    -0.575674075263    -0.366830716316    30.973761998420
         P            3.122717155407     0.408563924737     0.147569283684    30.973761998420
         O           -2.845087844593     1.351524924737    -0.122973716316    15.994914619570
         O           -0.969273844593    -0.063235075263     0.634358283684    15.994914619570
         O           -3.237924844593    -0.440197075263     1.706908283684    15.994914619570
         O           -2.903044844593    -1.149115075263    -0.786529716316    15.994914619570
         O            1.418440355407     0.101089724737     0.569117483684    15.994914619570
         O            0.160421155407     0.105321924737    -1.712803716316    15.994914619570
         O            0.350415155407    -2.089192075263    -0.295350716316    15.994914619570
         O            3.480491155407    -0.663690075263    -0.891458716316    15.994914619570
         O            3.112071155407     1.848996924737    -0.382209716316    15.994914619570
         O            3.781596155407     0.230308924737     1.523198283684    15.994914619570
         C           -4.192175844593     1.609331924737    -0.533160716316    12.000000000000
         H           -4.481501844593     0.951310924737    -1.357536716316     1.007825032230
         H           -4.890931844593     1.467478924737     0.298063283684     1.007825032230
         H           -4.236372844593     2.648408924737    -0.863837716316     1.007825032230

  Basis Set: AUG-CC-PVTZ
    Blend: AUG-CC-PVTZ
  Basis Set: (AUG-CC-PVTZ AUX)
    Blend: AUG-CC-PVTZ-JKFIT
	 Reference Energy          =   -1810.6749246031718030 [Eh]
	 Singles Energy            =      -0.0000000000000000 [Eh]
	 Same-Spin Energy          =      -0.9124579450210631 [Eh]
	 Opposite-Spin Energy      =      -2.5254069286561434 [Eh]
	 Correlation Energy        =      -3.4378648736772064 [Eh]
	 Total Energy              =   -1814.1127894768490023 [Eh]

	 ================> DF-SCS-MP2 Energies <==================
	-----------------------------------------------------------
	 SCS Same-Spin Scale       =       0.3333333333333333 [-]
	 SCS Opposite-Spin Scale   =       1.2000000000000000 [-]
	 SCS Same-Spin Energy      =      -0.3041526483403544 [Eh]
	 SCS Opposite-Spin Energy  =      -3.0304883143873718 [Eh]
	 SCS Correlation Energy    =      -3.3346409627277263 [Eh]
	 SCS Total Energy          =   -1814.0095655658994929 [Eh]
	-----------------------------------------------------------

  Dipole Moment: [D]
     X:   -14.7496      Y:     2.7728      Z:     0.0176     Total:    15.0080

*** Psi4 exiting successfully. Buy a developer a beer!
