                               Psi4 1.3.2 release

  ==> Input File <==

--------------------------------------------------------------------------
#psi4
#
memory 32 gb

molecule  {
-4 1
  P        2.5828670     0.0826120    -0.3559070
  P       -0.1833470    -1.1435920     0.2927960
  P       -2.7088530     0.4754690    -0.2006980
  O        1.9534540     1.6068400    -0.1842610
  O        1.2509400    -0.8782220    -0.5450080
  O        3.2679280     0.0927970    -1.6978490
  O        3.3289310    -0.2934220     0.9022790
  O       -0.9823316     0.2118844    -0.2986221
  O        0.0932830    -1.0798150     1.7822090
  O       -0.7150640    -2.4305380    -0.3003910
  O       -3.3067764    -0.2421215     1.0233953
  O       -2.7128520     2.0086770    -0.0959300
  O       -3.2113930    -0.0752120    -1.5473660
  C        1.4216660     1.9681570     1.1052990
  H        1.0169430     1.1016800     1.6278780
  H        2.2027140     2.4392170     1.7103290
  H        0.6160650     2.6819120     0.9264900
units angstrom
no_reorient  #important for SAPT in psi4, default
symmetry c1  #important for SAPT in psi4, default
}

set PROPERTIES_ORIGIN ["COM"]
properties('MP2/aug-cc-pvtz', properties = ['dipole'])
--------------------------------------------------------------------------

    Molecular point group: c1
  Charge       = -4
  Multiplicity = 1
  Basis Set: AUG-CC-PVTZ
    Blend: AUG-CC-PVTZ
  Basis Set: (AUG-CC-PVTZ AUX)
    Blend: AUG-CC-PVTZ-JKFIT

    Orbital Energies [Eh]
    ---------------------

    Doubly Occupied:

       1A    -79.574353     2A    -79.537102     3A    -79.475433
       4A    -20.086633     5A    -20.041540     6A    -20.004734
       7A    -20.003869     8A    -19.998375     9A    -19.960759
      10A    -19.952733    11A    -19.919673    12A    -19.917070
      13A    -19.912200    14A    -10.812897    15A     -7.088175
      16A     -7.049223    17A     -6.989187    18A     -4.987118
      19A     -4.986190    20A     -4.985356    21A     -4.948560
      22A     -4.946859    23A     -4.946199    24A     -4.888509
      25A     -4.886521    26A     -4.886349    27A     -0.903228
      28A     -0.845897    29A     -0.803672    30A     -0.775842
      31A     -0.759273    32A     -0.746604    33A     -0.710863
      34A     -0.706759    35A     -0.659376    36A     -0.655046
      37A     -0.467936    38A     -0.295414    39A     -0.232724
      40A     -0.179825    41A     -0.162530    42A     -0.149161
      43A     -0.128771    44A     -0.102353    45A     -0.084635
      46A     -0.065423    47A     -0.052190    48A     -0.044494
      49A     -0.030331    50A     -0.015801    51A     -0.007530
      52A     -0.000061    53A      0.008589    54A      0.013299
      55A      0.020823    56A      0.036953    57A      0.046773
      58A      0.051563    59A      0.062676    60A      0.068194
      61A      0.086895    62A      0.097881    63A      0.105777
      64A      0.107759    65A      0.110339    66A      0.119385
      67A      0.146856    68A      0.154902    69A      0.176190

  @DF-RHF Final Energy: -1810.68079548901915

   => Energetics <=

    Nuclear Repulsion Energy =           1459.6082893738209805
    One-Electron Energy =               -5494.6651600246714224
    Two-Electron Energy =                2224.3760751618310678
    Total Energy =                      -1810.6807954890191468
  Basis Set: (AUG-CC-PVTZ AUX)
    Blend: AUG-CC-PVTZ-RI
    Molecular point group: c1

    Geometry (in Angstrom), charge = -4, multiplicity = 1:

       Center              X                  Y                   Z               Mass
    ------------   -----------------  -----------------  -----------------  -----------------
         P            2.602248987617     0.103167590603    -0.333549971308    30.973761998420
         P           -0.163965012383    -1.123036409397     0.315153028692    30.973761998420
         P           -2.689471012383     0.496024590603    -0.178340971308    30.973761998420
         O            1.972835987617     1.627395590603    -0.161903971308    15.994914619570
         O            1.270321987617    -0.857666409397    -0.522650971308    15.994914619570
         O            3.287309987617     0.113352590603    -1.675491971308    15.994914619570
         O            3.348312987617    -0.272866409397     0.924636028692    15.994914619570
         O           -0.962949612383     0.232439990603    -0.276265071308    15.994914619570
         O            0.112664987617    -1.059259409397     1.804566028692    15.994914619570
         O           -0.695682012383    -2.409982409397    -0.278033971308    15.994914619570
         O           -3.287394412383    -0.221565909397     1.045752328692    15.994914619570
         O           -2.693470012383     2.029232590603    -0.073572971308    15.994914619570
         O           -3.192011012383    -0.054656409397    -1.525008971308    15.994914619570
         C            1.441047987617     1.988712590603     1.127656028692    12.000000000000
         H            1.036324987617     1.122235590603     1.650235028692     1.007825032230
         H            2.222095987617     2.459772590603     1.732686028692     1.007825032230
         H            0.635446987617     2.702467590603     0.948847028692     1.007825032230

  Basis Set: AUG-CC-PVTZ
    Blend: AUG-CC-PVTZ
  Basis Set: (AUG-CC-PVTZ AUX)
    Blend: AUG-CC-PVTZ-JKFIT
	 Reference Energy          =   -1810.6807954890191468 [Eh]
	 Singles Energy            =      -0.0000000000000000 [Eh]
	 Same-Spin Energy          =      -0.9139989820300707 [Eh]
	 Opposite-Spin Energy      =      -2.5284850991766166 [Eh]
	 Correlation Energy        =      -3.4424840812066870 [Eh]
	 Total Energy              =   -1814.1232795702258045 [Eh]

	 ================> DF-SCS-MP2 Energies <==================
	-----------------------------------------------------------
	 SCS Same-Spin Scale       =       0.3333333333333333 [-]
	 SCS Opposite-Spin Scale   =       1.2000000000000000 [-]
	 SCS Same-Spin Energy      =      -0.3046663273433569 [Eh]
	 SCS Opposite-Spin Energy  =      -3.0341821190119398 [Eh]
	 SCS Correlation Energy    =      -3.3388484463552968 [Eh]
	 SCS Total Energy          =   -1814.0196439353744609 [Eh]
	-----------------------------------------------------------

  Dipole Moment: [D]
     X:     9.7590      Y:     1.9690      Z:     1.8452     Total:    10.1252

*** Psi4 exiting successfully. Buy a developer a beer!
