                               Psi4 1.3.2 release

  ==> Input File <==

--------------------------------------------------------------------------
#psi4
#
memory 32 gb

molecule  {
-4 1
  P        2.5828670     0.0826120    -0.3559070
  P       -0.1833470    -1.1435920     0.2927960
  P       -2.7088530     0.4754690    -0.2006980
  O        1.9534540     1.6068400    -0.1842610
  O        1.2509400    -0.8782220    -0.5450080
  O        3.2679280     0.0927970    -1.6978490
  O        3.3289310    -0.2934220     0.9022790
  O       -0.9881700     0.1612780    -0.2225170
  O        0.0932830    -1.0798150     1.7822090
  O       -0.7150640    -2.4305380    -0.3003910
  O       -3.2327710    -0.2685190     1.0414150
  O       -2.7128520     2.0086770    -0.0959300
  O       -3.2113930    -0.0752120    -1.5473660
  C        1.4216660     1.9681570     1.1052990
  H        1.0110221     1.1001102     1.6206031
  H        2.2039776     2.4457842     1.7035094
  H        0.6160650     2.6819120     0.9264900
units angstrom
no_reorient  #important for SAPT in psi4, default
symmetry c1  #important for SAPT in psi4, default
}

set PROPERTIES_ORIGIN ["COM"]
properties('MP2/aug-cc-pvtz', properties = ['dipole'])
--------------------------------------------------------------------------

    Molecular point group: c1
  Charge       = -4
  Multiplicity = 1
  Basis Set: AUG-CC-PVTZ
    Blend: AUG-CC-PVTZ
  Basis Set: (AUG-CC-PVTZ AUX)
    Blend: AUG-CC-PVTZ-JKFIT

    Orbital Energies [Eh]
    ---------------------

    Doubly Occupied:

       1A    -79.572476     2A    -79.526967     3A    -79.479881
       4A    -20.085353     5A    -20.038302     6A    -20.002763
       7A    -20.002487     8A    -19.993030     9A    -19.950196
      10A    -19.945280    11A    -19.923930    12A    -19.919220
      13A    -19.917400    14A    -10.811612    15A     -7.086299
      16A     -7.039904    17A     -6.993386    18A     -4.985248
      19A     -4.984305    20A     -4.983486    21A     -4.939181
      22A     -4.937792    23A     -4.936864    24A     -4.892848
      25A     -4.890660    26A     -4.890511    27A     -0.901832
      28A     -0.845650    29A     -0.806637    30A     -0.778027
      31A     -0.757542    32A     -0.742093    33A     -0.713576
      34A     -0.699678    35A     -0.663464    36A     -0.659076
      37A     -0.466671    38A     -0.293729    39A     -0.234310
      40A     -0.183879    41A     -0.164904    42A     -0.148711
      43A     -0.125775    44A     -0.098954    45A     -0.082906
      46A     -0.065042    47A     -0.051837    48A     -0.044005
      49A     -0.031697    50A     -0.016181    51A     -0.006454
      52A      0.000084    53A      0.009674    54A      0.014806
      55A      0.021556    56A      0.037442    57A      0.047360
      58A      0.053594    59A      0.067027    60A      0.070902
      61A      0.091023    62A      0.100480    63A      0.102301
      64A      0.103881    65A      0.113890    66A      0.125234
      67A      0.144493    68A      0.150467    69A      0.172044

  @DF-RHF Final Energy: -1810.68894658758700

   => Energetics <=

    Nuclear Repulsion Energy =           1462.9504725595581931
    One-Electron Energy =               -5501.5073311279038535
    Two-Electron Energy =                2227.8679119807588904
    Total Energy =                      -1810.6889465875869973
  Basis Set: (AUG-CC-PVTZ AUX)
    Blend: AUG-CC-PVTZ-RI
    Molecular point group: c1

    Geometry (in Angstrom), charge = -4, multiplicity = 1:

       Center              X                  Y                   Z               Mass
    ------------   -----------------  -----------------  -----------------  -----------------
         P            2.598196519189     0.107746396868    -0.339116777081    30.973761998420
         P           -0.168017480811    -1.118457603132     0.309586222919    30.973761998420
         P           -2.693523480811     0.500603396868    -0.183907777081    30.973761998420
         O            1.968783519189     1.631974396868    -0.167470777081    15.994914619570
         O            1.266269519189    -0.853087603132    -0.528217777081    15.994914619570
         O            3.283257519189     0.117931396868    -1.681058777081    15.994914619570
         O            3.344260519189    -0.268287603132     0.919069222919    15.994914619570
         O           -0.972840480811     0.186412396868    -0.205726777081    15.994914619570
         O            0.108612519189    -1.054680603132     1.798999222919    15.994914619570
         O           -0.699734480811    -2.405403603132    -0.283600777081    15.994914619570
         O           -3.217441480811    -0.243384603132     1.058205222919    15.994914619570
         O           -2.697522480811     2.033811396868    -0.079139777081    15.994914619570
         O           -3.196063480811    -0.050077603132    -1.530575777081    15.994914619570
         C            1.436995519189     1.993291396868     1.122089222919    12.000000000000
         H            1.026351619189     1.125244596868     1.637393322919     1.007825032230
         H            2.219307119189     2.470918596868     1.720299622919     1.007825032230
         H            0.631394519189     2.707046396868     0.943280222919     1.007825032230

  Basis Set: AUG-CC-PVTZ
    Blend: AUG-CC-PVTZ
  Basis Set: (AUG-CC-PVTZ AUX)
    Blend: AUG-CC-PVTZ-JKFIT
	 Reference Energy          =   -1810.6889465875869973 [Eh]
	 Singles Energy            =      -0.0000000000000000 [Eh]
	 Same-Spin Energy          =      -0.9130176365356164 [Eh]
	 Opposite-Spin Energy      =      -2.5257867244625123 [Eh]
	 Correlation Energy        =      -3.4388043609981285 [Eh]
	 Total Energy              =   -1814.1277509485851169 [Eh]

	 ================> DF-SCS-MP2 Energies <==================
	-----------------------------------------------------------
	 SCS Same-Spin Scale       =       0.3333333333333333 [-]
	 SCS Opposite-Spin Scale   =       1.2000000000000000 [-]
	 SCS Same-Spin Energy      =      -0.3043392121785388 [Eh]
	 SCS Opposite-Spin Energy  =      -3.0309440693550145 [Eh]
	 SCS Correlation Energy    =      -3.3352832815335534 [Eh]
	 SCS Total Energy          =   -1814.0242298691205178 [Eh]
	-----------------------------------------------------------

  Dipole Moment: [D]
     X:     9.2510      Y:     2.3402      Z:     1.6071     Total:     9.6768

*** Psi4 exiting successfully. Buy a developer a beer!
