                               Psi4 1.3.2 release

  ==> Input File <==

--------------------------------------------------------------------------
#psi4
#
memory 32 gb

molecule  {
-4 1
  P        2.5828670     0.0826120    -0.3559070
  P       -0.1833470    -1.1435920     0.2927960
  P       -2.7088530     0.4754690    -0.2006980
  O        1.9534540     1.6068400    -0.1842610
  O        1.2919498    -0.8698605    -0.4675239
  O        3.2679280     0.0927970    -1.6978490
  O        3.3289310    -0.2934220     0.9022790
  O       -0.9881700     0.1612780    -0.2225170
  O        0.1695140    -1.0655000     1.7653222
  O       -0.7150640    -2.4305380    -0.3003910
  O       -3.2327710    -0.2685190     1.0414150
  O       -2.7128520     2.0086770    -0.0959300
  O       -3.2113930    -0.0752120    -1.5473660
  C        1.4216660     1.9681570     1.1052990
  H        1.0169430     1.1016800     1.6278780
  H        2.2027140     2.4392170     1.7103290
  H        0.6160650     2.6819120     0.9264900
units angstrom
no_reorient  #important for SAPT in psi4, default
symmetry c1  #important for SAPT in psi4, default
}

set PROPERTIES_ORIGIN ["COM"]
properties('MP2/aug-cc-pvtz', properties = ['dipole'])
--------------------------------------------------------------------------

    Molecular point group: c1
  Charge       = -4
  Multiplicity = 1
  Basis Set: AUG-CC-PVTZ
    Blend: AUG-CC-PVTZ
  Basis Set: (AUG-CC-PVTZ AUX)
    Blend: AUG-CC-PVTZ-JKFIT

    Orbital Energies [Eh]
    ---------------------

    Doubly Occupied:

       1A    -79.564682     2A    -79.531190     3A    -79.482813
       4A    -20.080684     5A    -20.032788     6A    -19.999492
       7A    -19.998208     8A    -19.992595     9A    -19.952571
      10A    -19.947447    11A    -19.926090    12A    -19.921764
      13A    -19.920550    14A    -10.807879    15A     -7.079050
      16A     -7.043829    17A     -6.996337    18A     -4.978101
      19A     -4.977147    20A     -4.976203    21A     -4.943248
      22A     -4.941739    23A     -4.940672    24A     -4.895817
      25A     -4.893588    26A     -4.893449    27A     -0.900724
      28A     -0.848404    29A     -0.807148    30A     -0.777968
      31A     -0.751201    32A     -0.743959    33A     -0.716621
      34A     -0.703094    35A     -0.665893    36A     -0.661969
      37A     -0.463055    38A     -0.300136    39A     -0.232937
      40A     -0.186245    41A     -0.162031    42A     -0.145914
      43A     -0.121828    44A     -0.099566    45A     -0.084861
      46A     -0.066717    47A     -0.050400    48A     -0.044670
      49A     -0.031107    50A     -0.019219    51A     -0.004344
      52A      0.000621    53A      0.008861    54A      0.017856
      55A      0.020271    56A      0.039140    57A      0.045058
      58A      0.061014    59A      0.067575    60A      0.075690
      61A      0.087438    62A      0.098246    63A      0.099957
      64A      0.101781    65A      0.112227    66A      0.122161
      67A      0.141623    68A      0.147567    69A      0.169413

  @DF-RHF Final Energy: -1810.69132964390496

   => Energetics <=

    Nuclear Repulsion Energy =           1465.0344449078916114
    One-Electron Energy =               -5505.6686633799608899
    Two-Electron Energy =                2229.9428888281645413
    Total Energy =                      -1810.6913296439047372
  Basis Set: (AUG-CC-PVTZ AUX)
    Blend: AUG-CC-PVTZ-RI
    Molecular point group: c1

    Geometry (in Angstrom), charge = -4, multiplicity = 1:

       Center              X                  Y                   Z               Mass
    ------------   -----------------  -----------------  -----------------  -----------------
         P            2.591179001141     0.106411270660    -0.342787832685    30.973761998420
         P           -0.175034998859    -1.119792729340     0.305915167315    30.973761998420
         P           -2.700540998859     0.499268270660    -0.187578832685    30.973761998420
         O            1.961766001141     1.630639270660    -0.171141832685    15.994914619570
         O            1.300261801141    -0.846061229340    -0.454404732685    15.994914619570
         O            3.276240001141     0.116596270660    -1.684729832685    15.994914619570
         O            3.337243001141    -0.269622729340     0.915398167315    15.994914619570
         O           -0.979857998859     0.185077270660    -0.209397832685    15.994914619570
         O            0.177826001141    -1.041700729340     1.778441367315    15.994914619570
         O           -0.706751998859    -2.406738729340    -0.287271832685    15.994914619570
         O           -3.224458998859    -0.244719729340     1.054534167315    15.994914619570
         O           -2.704539998859     2.032476270660    -0.082810832685    15.994914619570
         O           -3.203080998859    -0.051412729340    -1.534246832685    15.994914619570
         C            1.429978001141     1.991956270660     1.118418167315    12.000000000000
         H            1.025255001141     1.125479270660     1.640997167315     1.007825032230
         H            2.211026001141     2.463016270660     1.723448167315     1.007825032230
         H            0.624377001141     2.705711270660     0.939609167315     1.007825032230

  Basis Set: AUG-CC-PVTZ
    Blend: AUG-CC-PVTZ
  Basis Set: (AUG-CC-PVTZ AUX)
    Blend: AUG-CC-PVTZ-JKFIT
	 Reference Energy          =   -1810.6913296439049645 [Eh]
	 Singles Energy            =      -0.0000000000000000 [Eh]
	 Same-Spin Energy          =      -0.9125433351857157 [Eh]
	 Opposite-Spin Energy      =      -2.5242054336570887 [Eh]
	 Correlation Energy        =      -3.4367487688428042 [Eh]
	 Total Energy              =   -1814.1280784127477546 [Eh]

	 ================> DF-SCS-MP2 Energies <==================
	-----------------------------------------------------------
	 SCS Same-Spin Scale       =       0.3333333333333333 [-]
	 SCS Opposite-Spin Scale   =       1.2000000000000000 [-]
	 SCS Same-Spin Energy      =      -0.3041811117285719 [Eh]
	 SCS Opposite-Spin Energy  =      -3.0290465203885062 [Eh]
	 SCS Correlation Energy    =      -3.3332276321170782 [Eh]
	 SCS Total Energy          =   -1814.0245572760220512 [Eh]
	-----------------------------------------------------------

  Dipole Moment: [D]
     X:     8.6892      Y:     2.1332      Z:     1.4989     Total:     9.0719

*** Psi4 exiting successfully. Buy a developer a beer!
