                               Psi4 1.3.2 release

  ==> Input File <==

--------------------------------------------------------------------------
#psi4
#
memory 32 gb

molecule  {
-4 1
  P        2.5828670     0.0826120    -0.3559070
  P       -0.1833470    -1.1435920     0.2927960
  P       -2.7088530     0.4754690    -0.2006980
  O        1.9534540     1.6068400    -0.1842610
  O        1.2509400    -0.8782220    -0.5450080
  O        3.2679280     0.0927970    -1.6978490
  O        3.3289310    -0.2934220     0.9022790
  O       -0.9881700     0.1612780    -0.2225170
  O        0.0932830    -1.0798150     1.7822090
  O       -0.7150640    -2.4305380    -0.3003910
  O       -3.2327710    -0.2685190     1.0414150
  O       -2.7128520     2.0086770    -0.0959300
  O       -3.2113930    -0.0752120    -1.5473660
  C        1.3478548     2.0183071     1.2842875
  H        1.0169430     1.1016800     1.6278780
  H        2.2027140     2.4392170     1.7103290
  H        0.6160650     2.6819120     0.9264900
units angstrom
no_reorient  #important for SAPT in psi4, default
symmetry c1  #important for SAPT in psi4, default
}

set PROPERTIES_ORIGIN ["COM"]
properties('MP2/aug-cc-pvtz', properties = ['dipole'])
--------------------------------------------------------------------------

    Molecular point group: c1
  Charge       = -4
  Multiplicity = 1
  Basis Set: AUG-CC-PVTZ
    Blend: AUG-CC-PVTZ
  Basis Set: (AUG-CC-PVTZ AUX)
    Blend: AUG-CC-PVTZ-JKFIT

    Orbital Energies [Eh]
    ---------------------

    Doubly Occupied:

       1A    -79.563152     2A    -79.525605     3A    -79.479939
       4A    -20.070609     5A    -20.032676     6A    -19.996849
       7A    -19.995930     8A    -19.992194     9A    -19.950387
      10A    -19.943859    11A    -19.924608    12A    -19.919044
      13A    -19.917586    14A    -10.819180    15A     -7.076911
      16A     -7.038500    17A     -6.993441    18A     -4.975744
      19A     -4.974992    20A     -4.974214    21A     -4.937745
      22A     -4.936416    23A     -4.935503    24A     -4.892893
      25A     -4.890730    26A     -4.890569    27A     -0.874031
      28A     -0.827313    29A     -0.791448    30A     -0.771682
      31A     -0.751359    32A     -0.740774    33A     -0.713260
      34A     -0.698921    35A     -0.663886    36A     -0.659083
      37A     -0.490689    38A     -0.286156    39A     -0.218478
      40A     -0.183207    41A     -0.174549    42A     -0.139370
      43A     -0.110838    44A     -0.096536    45A     -0.086432
      46A     -0.064053    47A     -0.053963    48A     -0.035980
      49A     -0.028235    50A     -0.013669    51A     -0.005619
      52A      0.000298    53A      0.012866    54A      0.019701
      55A      0.022162    56A      0.043306    57A      0.049940
      58A      0.061595    59A      0.070459    60A      0.075026
      61A      0.092461    62A      0.100391    63A      0.102343
      64A      0.104021    65A      0.114449    66A      0.125415
      67A      0.144242    68A      0.150596    69A      0.171823

  @DF-RHF Final Energy: -1810.65733886650992

   => Energetics <=

    Nuclear Repulsion Energy =           1458.8737916970712831
    One-Electron Energy =               -5493.7268337909090405
    Two-Electron Energy =                2224.1957032273276127
    Total Energy =                      -1810.6573388665101447
  Basis Set: (AUG-CC-PVTZ AUX)
    Blend: AUG-CC-PVTZ-RI
    Molecular point group: c1

    Geometry (in Angstrom), charge = -4, multiplicity = 1:

       Center              X                  Y                   Z               Mass
    ------------   -----------------  -----------------  -----------------  -----------------
         P            2.601485286244     0.105518781088    -0.347187385375    30.973761998420
         P           -0.164728713756    -1.120685218912     0.301515614625    30.973761998420
         P           -2.690234713756     0.498375781088    -0.191978385375    30.973761998420
         O            1.972072286244     1.629746781088    -0.175541385375    15.994914619570
         O            1.269558286244    -0.855315218912    -0.536288385375    15.994914619570
         O            3.286546286244     0.115703781088    -1.689129385375    15.994914619570
         O            3.347549286244    -0.270515218912     0.910998614625    15.994914619570
         O           -0.969551713756     0.184184781088    -0.213797385375    15.994914619570
         O            0.111901286244    -1.056908218912     1.790928614625    15.994914619570
         O           -0.696445713756    -2.407631218912    -0.291671385375    15.994914619570
         O           -3.214152713756    -0.245612218912     1.050134614625    15.994914619570
         O           -2.694233713756     2.031583781088    -0.087210385375    15.994914619570
         O           -3.192774713756    -0.052305218912    -1.538646385375    15.994914619570
         C            1.366473086244     2.041213881088     1.293007114625    12.000000000000
         H            1.035561286244     1.124586781088     1.636597614625     1.007825032230
         H            2.221332286244     2.462123781088     1.719048614625     1.007825032230
         H            0.634683286244     2.704818781088     0.935209614625     1.007825032230

  Basis Set: AUG-CC-PVTZ
    Blend: AUG-CC-PVTZ
  Basis Set: (AUG-CC-PVTZ AUX)
    Blend: AUG-CC-PVTZ-JKFIT
	 Reference Energy          =   -1810.6573388665099174 [Eh]
	 Singles Energy            =      -0.0000000000000000 [Eh]
	 Same-Spin Energy          =      -0.9139623886143233 [Eh]
	 Opposite-Spin Energy      =      -2.5298533381676762 [Eh]
	 Correlation Energy        =      -3.4438157267819998 [Eh]
	 Total Energy              =   -1814.1011545932919944 [Eh]

	 ================> DF-SCS-MP2 Energies <==================
	-----------------------------------------------------------
	 SCS Same-Spin Scale       =       0.3333333333333333 [-]
	 SCS Opposite-Spin Scale   =       1.2000000000000000 [-]
	 SCS Same-Spin Energy      =      -0.3046541295381078 [Eh]
	 SCS Opposite-Spin Energy  =      -3.0358240058012114 [Eh]
	 SCS Correlation Energy    =      -3.3404781353393194 [Eh]
	 SCS Total Energy          =   -1813.9978170018491710 [Eh]
	-----------------------------------------------------------

  Dipole Moment: [D]
     X:     9.0466      Y:     2.7203      Z:     2.1628     Total:     9.6911

*** Psi4 exiting successfully. Buy a developer a beer!
