                               Psi4 1.3.2 release

  ==> Input File <==

--------------------------------------------------------------------------
#psi4
#
memory 32 gb

molecule  {
-4 1
  P        2.5828670     0.0826120    -0.3559070
  P       -0.1833470    -1.1435920     0.2927960
  P       -2.7088530     0.4754690    -0.2006980
  O        1.9534540     1.6068400    -0.1842610
  O        1.2394678    -0.8537013    -0.5563667
  O        3.2679280     0.0927970    -1.6978490
  O        3.3289310    -0.2934220     0.9022790
  O       -0.9657070     0.1687564    -0.2378902
  O        0.0932830    -1.0798150     1.7822090
  O       -0.7150640    -2.4305380    -0.3003910
  O       -3.2327710    -0.2685190     1.0414150
  O       -2.7128520     2.0086770    -0.0959300
  O       -3.2113930    -0.0752120    -1.5473660
  C        1.4216660     1.9681570     1.1052990
  H        1.0169430     1.1016800     1.6278780
  H        2.2027140     2.4392170     1.7103290
  H        0.6160650     2.6819120     0.9264900
units angstrom
no_reorient  #important for SAPT in psi4, default
symmetry c1  #important for SAPT in psi4, default
}

set PROPERTIES_ORIGIN ["COM"]
properties('MP2/aug-cc-pvtz', properties = ['dipole'])
--------------------------------------------------------------------------

    Molecular point group: c1
  Charge       = -4
  Multiplicity = 1
  Basis Set: AUG-CC-PVTZ
    Blend: AUG-CC-PVTZ
  Basis Set: (AUG-CC-PVTZ AUX)
    Blend: AUG-CC-PVTZ-JKFIT

    Orbital Energies [Eh]
    ---------------------

    Doubly Occupied:

       1A    -79.571086     2A    -79.525647     3A    -79.481402
       4A    -20.083271     5A    -20.035811     6A    -20.002798
       7A    -20.001223     8A    -19.991468     9A    -19.950737
      10A    -19.945963    11A    -19.924772    12A    -19.920298
      13A    -19.919734    14A    -10.810461    15A     -7.084930
      16A     -7.038703    17A     -6.994801    18A     -4.983898
      19A     -4.982920    20A     -4.982143    21A     -4.938026
      22A     -4.936512    23A     -4.935681    24A     -4.894219
      25A     -4.892054    26A     -4.891913    27A     -0.900520
      28A     -0.844139    29A     -0.804475    30A     -0.775596
      31A     -0.756910    32A     -0.742453    33A     -0.713613
      34A     -0.699986    35A     -0.664393    36A     -0.660435
      37A     -0.465406    38A     -0.292939    39A     -0.231489
      40A     -0.180037    41A     -0.161843    42A     -0.146957
      43A     -0.126050    44A     -0.099464    45A     -0.081783
      46A     -0.065320    47A     -0.050802    48A     -0.042197
      49A     -0.030174    50A     -0.014846    51A     -0.005518
      52A      0.000311    53A      0.010641    54A      0.015234
      55A      0.020668    56A      0.039278    57A      0.048119
      58A      0.053843    59A      0.066795    60A      0.071538
      61A      0.091180    62A      0.099690    63A      0.101868
      64A      0.103925    65A      0.113480    66A      0.124954
      67A      0.142999    68A      0.149302    69A      0.170791

  @DF-RHF Final Energy: -1810.68746786395764

   => Energetics <=

    Nuclear Repulsion Energy =           1462.9603832944101214
    One-Electron Energy =               -5501.5893021409483481
    Two-Electron Energy =                2227.9414509825805908
    Total Energy =                      -1810.6874678639574086
  Basis Set: (AUG-CC-PVTZ AUX)
    Blend: AUG-CC-PVTZ-RI
    Molecular point group: c1

    Geometry (in Angstrom), charge = -4, multiplicity = 1:

       Center              X                  Y                   Z               Mass
    ------------   -----------------  -----------------  -----------------  -----------------
         P            2.597522779898     0.105854654078    -0.337573742108    30.973761998420
         P           -0.168691220102    -1.120349345922     0.311129257892    30.973761998420
         P           -2.694197220102     0.498711654078    -0.182364742108    30.973761998420
         O            1.968109779898     1.630082654078    -0.165927742108    15.994914619570
         O            1.254123579898    -0.830458645922    -0.538033442108    15.994914619570
         O            3.282583779898     0.116039654078    -1.679515742108    15.994914619570
         O            3.343586779898    -0.270179345922     0.920612257892    15.994914619570
         O           -0.951051220102     0.191999054078    -0.219556942108    15.994914619570
         O            0.107938779898    -1.056572345922     1.800542257892    15.994914619570
         O           -0.700408220102    -2.407295345922    -0.282057742108    15.994914619570
         O           -3.218115220102    -0.245276345922     1.059748257892    15.994914619570
         O           -2.698196220102     2.031919654078    -0.077596742108    15.994914619570
         O           -3.196737220102    -0.051969345922    -1.529032742108    15.994914619570
         C            1.436321779898     1.991399654078     1.123632257892    12.000000000000
         H            1.031598779898     1.124922654078     1.646211257892     1.007825032230
         H            2.217369779898     2.462459654078     1.728662257892     1.007825032230
         H            0.630720779898     2.705154654078     0.944823257892     1.007825032230

  Basis Set: AUG-CC-PVTZ
    Blend: AUG-CC-PVTZ
  Basis Set: (AUG-CC-PVTZ AUX)
    Blend: AUG-CC-PVTZ-JKFIT
	 Reference Energy          =   -1810.6874678639576359 [Eh]
	 Singles Energy            =      -0.0000000000000000 [Eh]
	 Same-Spin Energy          =      -0.9132950674580560 [Eh]
	 Opposite-Spin Energy      =      -2.5264656918762673 [Eh]
	 Correlation Energy        =      -3.4397607593343231 [Eh]
	 Total Energy              =   -1814.1272286232920123 [Eh]

	 ================> DF-SCS-MP2 Energies <==================
	-----------------------------------------------------------
	 SCS Same-Spin Scale       =       0.3333333333333333 [-]
	 SCS Opposite-Spin Scale   =       1.2000000000000000 [-]
	 SCS Same-Spin Energy      =      -0.3044316891526853 [Eh]
	 SCS Opposite-Spin Energy  =      -3.0317588302515208 [Eh]
	 SCS Correlation Energy    =      -3.3361905194042061 [Eh]
	 SCS Total Energy          =   -1814.0236583833618624 [Eh]
	-----------------------------------------------------------

  Dipole Moment: [D]
     X:     9.1028      Y:     2.3042      Z:     1.6355     Total:     9.5313

*** Psi4 exiting successfully. Buy a developer a beer!
