                               Psi4 1.3.2 release

  ==> Input File <==

--------------------------------------------------------------------------
#psi4
#
memory 32 gb

molecule  {
-4 1
  P        2.5828670     0.0826120    -0.3559070
  P       -0.1833470    -1.1435920     0.2927960
  P       -2.7088530     0.4754690    -0.2006980
  O        1.9534540     1.6068400    -0.1842610
  O        1.2509400    -0.8782220    -0.5450080
  O        3.2679280     0.0927970    -1.6978490
  O        3.3289310    -0.2934220     0.9022790
  O       -0.9881700     0.1612780    -0.2225170
  O        0.0932830    -1.0798150     1.7822090
  O       -0.7150640    -2.4305380    -0.3003910
  O       -3.2327710    -0.2685190     1.0414150
  O       -2.7128520     2.0086770    -0.0959300
  O       -3.2113930    -0.0752120    -1.5473660
  C        1.3847604     1.9932321     1.1947932
  H        1.0169430     1.1016800     1.6278780
  H        2.2027140     2.4392170     1.7103290
  H        0.6160650     2.6819120     0.9264900
units angstrom
no_reorient  #important for SAPT in psi4, default
symmetry c1  #important for SAPT in psi4, default
}

set PROPERTIES_ORIGIN ["COM"]
properties('MP2/aug-cc-pvtz', properties = ['dipole'])
--------------------------------------------------------------------------

    Molecular point group: c1
  Charge       = -4
  Multiplicity = 1
  Basis Set: AUG-CC-PVTZ
    Blend: AUG-CC-PVTZ
  Basis Set: (AUG-CC-PVTZ AUX)
    Blend: AUG-CC-PVTZ-JKFIT

    Orbital Energies [Eh]
    ---------------------

    Doubly Occupied:

       1A    -79.567590     2A    -79.526177     3A    -79.479865
       4A    -20.078107     5A    -20.035268     6A    -19.999654
       7A    -19.999068     8A    -19.992518     9A    -19.950186
      10A    -19.944474    11A    -19.924247    12A    -19.919088
      13A    -19.917447    14A    -10.813382    15A     -7.081371
      16A     -7.039091    17A     -6.993368    18A     -4.980256
      19A     -4.979420    20A     -4.978624    21A     -4.938351
      22A     -4.936994    23A     -4.936073    24A     -4.892825
      25A     -4.890651    26A     -4.890495    27A     -0.883864
      28A     -0.835404    29A     -0.799698    30A     -0.775253
      31A     -0.754309    32A     -0.741363    33A     -0.713342
      34A     -0.699204    35A     -0.663644    36A     -0.659035
      37A     -0.478907    38A     -0.289400    39A     -0.224697
      40A     -0.180912    41A     -0.167320    42A     -0.138294
      43A     -0.120794    44A     -0.098124    45A     -0.083567
      46A     -0.065538    47A     -0.053873    48A     -0.041639
      49A     -0.032473    50A     -0.014966    51A     -0.007363
      52A     -0.000341    53A      0.010990    54A      0.017105
      55A      0.021646    56A      0.040354    57A      0.048277
      58A      0.057617    59A      0.068998    60A      0.072603
      61A      0.091815    62A      0.100493    63A      0.102369
      64A      0.103993    65A      0.114223    66A      0.125372
      67A      0.144406    68A      0.150583    69A      0.171970

  @DF-RHF Final Energy: -1810.67823729981910

   => Energetics <=

    Nuclear Repulsion Energy =           1460.8593205669094459
    One-Electron Energy =               -5497.5449036257587068
    Two-Electron Energy =                2226.0073457590301587
    Total Energy =                      -1810.6782372998191022
  Basis Set: (AUG-CC-PVTZ AUX)
    Blend: AUG-CC-PVTZ-RI
    Molecular point group: c1

    Geometry (in Angstrom), charge = -4, multiplicity = 1:

       Center              X                  Y                   Z               Mass
    ------------   -----------------  -----------------  -----------------  -----------------
         P            2.599832142264     0.106641986924    -0.343178590957    30.973761998420
         P           -0.166381857736    -1.119562013076     0.305524409043    30.973761998420
         P           -2.691887857736     0.499498986924    -0.187969590957    30.973761998420
         O            1.970419142264     1.630869986924    -0.171532590957    15.994914619570
         O            1.267905142264    -0.854192013076    -0.532279590957    15.994914619570
         O            3.284893142264     0.116826986924    -1.685120590957    15.994914619570
         O            3.345896142264    -0.269392013076     0.915007409043    15.994914619570
         O           -0.971204857736     0.185307986924    -0.209788590957    15.994914619570
         O            0.110248142264    -1.055785013076     1.794937409043    15.994914619570
         O           -0.698098857736    -2.406508013076    -0.287662590957    15.994914619570
         O           -3.215805857736    -0.244489013076     1.054143409043    15.994914619570
         O           -2.695886857736     2.032706986924    -0.083201590957    15.994914619570
         O           -3.194427857736    -0.051182013076    -1.534637590957    15.994914619570
         C            1.401725542264     2.017262086924     1.207521609043    12.000000000000
         H            1.033908142264     1.125709986924     1.640606409043     1.007825032230
         H            2.219679142264     2.463246986924     1.723057409043     1.007825032230
         H            0.633030142264     2.705941986924     0.939218409043     1.007825032230

  Basis Set: AUG-CC-PVTZ
    Blend: AUG-CC-PVTZ
  Basis Set: (AUG-CC-PVTZ AUX)
    Blend: AUG-CC-PVTZ-JKFIT
	 Reference Energy          =   -1810.6782372998191022 [Eh]
	 Singles Energy            =      -0.0000000000000000 [Eh]
	 Same-Spin Energy          =      -0.9132611002707558 [Eh]
	 Opposite-Spin Energy      =      -2.5274301895226134 [Eh]
	 Correlation Energy        =      -3.4406912897933690 [Eh]
	 Total Energy              =   -1814.1189285896125511 [Eh]

	 ================> DF-SCS-MP2 Energies <==================
	-----------------------------------------------------------
	 SCS Same-Spin Scale       =       0.3333333333333333 [-]
	 SCS Opposite-Spin Scale   =       1.2000000000000000 [-]
	 SCS Same-Spin Energy      =      -0.3044203667569186 [Eh]
	 SCS Opposite-Spin Energy  =      -3.0329162274271360 [Eh]
	 SCS Correlation Energy    =      -3.3373365941840545 [Eh]
	 SCS Total Energy          =   -1814.0155738940031824 [Eh]
	-----------------------------------------------------------

  Dipole Moment: [D]
     X:     9.1435      Y:     2.5690      Z:     1.9299     Total:     9.6916

*** Psi4 exiting successfully. Buy a developer a beer!
