                               Psi4 1.3.2 release

  ==> Input File <==

--------------------------------------------------------------------------
#psi4
#
memory 32 gb

molecule  {
-4 1
  P        2.5828670     0.0826120    -0.3559070
  P       -0.1833470    -1.1435920     0.2927960
  P       -2.7088530     0.4754690    -0.2006980
  O        1.9534540     1.6068400    -0.1842610
  O        1.2509400    -0.8782220    -0.5450080
  O        3.2679280     0.0927970    -1.6978490
  O        3.3289310    -0.2934220     0.9022790
  O       -0.9881700     0.1612780    -0.2225170
  O        0.0932830    -1.0798150     1.7822090
  O       -0.7150640    -2.4305380    -0.3003910
  O       -3.2236834    -0.3150966     1.0161868
  O       -2.6926109     2.0111816    -0.1455427
  O       -3.2113930    -0.0752120    -1.5473660
  C        1.4216660     1.9681570     1.1052990
  H        1.0169430     1.1016800     1.6278780
  H        2.2027140     2.4392170     1.7103290
  H        0.6160650     2.6819120     0.9264900
units angstrom
no_reorient  #important for SAPT in psi4, default
symmetry c1  #important for SAPT in psi4, default
}

set PROPERTIES_ORIGIN ["COM"]
properties('MP2/aug-cc-pvtz', properties = ['dipole'])
--------------------------------------------------------------------------

    Molecular point group: c1
  Charge       = -4
  Multiplicity = 1
  Basis Set: AUG-CC-PVTZ
    Blend: AUG-CC-PVTZ
  Basis Set: (AUG-CC-PVTZ AUX)
    Blend: AUG-CC-PVTZ-JKFIT

    Orbital Energies [Eh]
    ---------------------

    Doubly Occupied:

       1A    -79.572035     2A    -79.525643     3A    -79.479894
       4A    -20.085289     5A    -20.037456     6A    -20.002423
       7A    -20.002044     8A    -19.990847     9A    -19.949417
      10A    -19.943815    11A    -19.926915    12A    -19.920475
      13A    -19.914667    14A    -10.811640    15A     -7.085856
      16A     -7.038589    17A     -6.993418    18A     -4.984808
      19A     -4.983858    20A     -4.983045    21A     -4.937868
      22A     -4.936466    23A     -4.935555    24A     -4.892912
      25A     -4.890689    26A     -4.890522    27A     -0.901466
      28A     -0.844792    29A     -0.805899    30A     -0.777501
      31A     -0.757155    32A     -0.741483    33A     -0.712537
      34A     -0.698503    35A     -0.667209    36A     -0.656351
      37A     -0.466688    38A     -0.293007    39A     -0.233902
      40A     -0.183361    41A     -0.163647    42A     -0.148517
      43A     -0.125491    44A     -0.098285    45A     -0.082184
      46A     -0.064625    47A     -0.051232    48A     -0.043575
      49A     -0.030984    50A     -0.016020    51A     -0.006170
      52A      0.001043    53A      0.009824    54A      0.014962
      55A      0.021180    56A      0.037986    57A      0.049267
      58A      0.053959    59A      0.067633    60A      0.071478
      61A      0.091220    62A      0.101283    63A      0.102325
      64A      0.103658    65A      0.114977    66A      0.126407
      67A      0.141600    68A      0.152882    69A      0.172091

  @DF-RHF Final Energy: -1810.68721599351466

   => Energetics <=

    Nuclear Repulsion Energy =           1463.5194966793139884
    One-Electron Energy =               -5502.7075122346395801
    Two-Electron Energy =                2228.5007995618107088
    Total Energy =                      -1810.6872159935146556
  Basis Set: (AUG-CC-PVTZ AUX)
    Blend: AUG-CC-PVTZ-RI
    Molecular point group: c1

    Geometry (in Angstrom), charge = -4, multiplicity = 1:

       Center              X                  Y                   Z               Mass
    ------------   -----------------  -----------------  -----------------  -----------------
         P            2.596427894435     0.110396626521    -0.334701338792    30.973761998420
         P           -0.169786105565    -1.115807373479     0.314001661208    30.973761998420
         P           -2.695292105565     0.503253626521    -0.179492338792    30.973761998420
         O            1.967014894435     1.634624626521    -0.163055338792    15.994914619570
         O            1.264500894435    -0.850437373479    -0.523802338792    15.994914619570
         O            3.281488894435     0.120581626521    -1.676643338792    15.994914619570
         O            3.342491894435    -0.265637373479     0.923484661208    15.994914619570
         O           -0.974609105565     0.189062626521    -0.201311338792    15.994914619570
         O            0.106843894435    -1.052030373479     1.803414661208    15.994914619570
         O           -0.701503105565    -2.402753373479    -0.279185338792    15.994914619570
         O           -3.210122505565    -0.287311973479     1.037392461208    15.994914619570
         O           -2.679050005565     2.038966226521    -0.124337038792    15.994914619570
         O           -3.197832105565    -0.047427373479    -1.526160338792    15.994914619570
         C            1.435226894435     1.995941626521     1.126504661208    12.000000000000
         H            1.030503894435     1.129464626521     1.649083661208     1.007825032230
         H            2.216274894435     2.467001626521     1.731534661208     1.007825032230
         H            0.629625894435     2.709696626521     0.947695661208     1.007825032230

  Basis Set: AUG-CC-PVTZ
    Blend: AUG-CC-PVTZ
  Basis Set: (AUG-CC-PVTZ AUX)
    Blend: AUG-CC-PVTZ-JKFIT
	 Reference Energy          =   -1810.6872159935146556 [Eh]
	 Singles Energy            =      -0.0000000000000000 [Eh]
	 Same-Spin Energy          =      -0.9131749281076882 [Eh]
	 Opposite-Spin Energy      =      -2.5260601029156939 [Eh]
	 Correlation Energy        =      -3.4392350310233821 [Eh]
	 Total Energy              =   -1814.1264510245380279 [Eh]

	 ================> DF-SCS-MP2 Energies <==================
	-----------------------------------------------------------
	 SCS Same-Spin Scale       =       0.3333333333333333 [-]
	 SCS Opposite-Spin Scale   =       1.2000000000000000 [-]
	 SCS Same-Spin Energy      =      -0.3043916427025627 [Eh]
	 SCS Opposite-Spin Energy  =      -3.0312721234988325 [Eh]
	 SCS Correlation Energy    =      -3.3356637662013950 [Eh]
	 SCS Total Energy          =   -1814.0228797597160337 [Eh]
	-----------------------------------------------------------

  Dipole Moment: [D]
     X:     9.1640      Y:     2.4563      Z:     1.8026     Total:     9.6572

*** Psi4 exiting successfully. Buy a developer a beer!
