                               Psi4 1.3.2 release

  ==> Input File <==

--------------------------------------------------------------------------
#psi4
#
memory 32 gb

molecule  {
-4 1
  P        2.5828670     0.0826120    -0.3559070
  P       -0.1833470    -1.1435920     0.2927960
  P       -2.7088530     0.4754690    -0.2006980
  O        1.9534540     1.6068400    -0.1842610
  O        1.2462490    -0.9028285    -0.5603185
  O        3.2679280     0.0927970    -1.6978490
  O        3.3289310    -0.2934220     0.9022790
  O       -0.9881700     0.1612780    -0.2225170
  O        0.0932830    -1.0798150     1.7822090
  O       -0.6940694    -2.4315666    -0.3163903
  O       -3.2327710    -0.2685190     1.0414150
  O       -2.7128520     2.0086770    -0.0959300
  O       -3.2113930    -0.0752120    -1.5473660
  C        1.4216660     1.9681570     1.1052990
  H        1.0169430     1.1016800     1.6278780
  H        2.2027140     2.4392170     1.7103290
  H        0.6160650     2.6819120     0.9264900
units angstrom
no_reorient  #important for SAPT in psi4, default
symmetry c1  #important for SAPT in psi4, default
}

set PROPERTIES_ORIGIN ["COM"]
properties('MP2/aug-cc-pvtz', properties = ['dipole'])
--------------------------------------------------------------------------

    Molecular point group: c1
  Charge       = -4
  Multiplicity = 1
  Basis Set: AUG-CC-PVTZ
    Blend: AUG-CC-PVTZ
  Basis Set: (AUG-CC-PVTZ AUX)
    Blend: AUG-CC-PVTZ-JKFIT

    Orbital Energies [Eh]
    ---------------------

    Doubly Occupied:

       1A    -79.573881     2A    -79.525495     3A    -79.480124
       4A    -20.087514     5A    -20.037207     6A    -20.004140
       7A    -20.002770     8A    -19.993328     9A    -19.951201
      10A    -19.942837    11A    -19.924149    12A    -19.919324
      13A    -19.917777    14A    -10.812662    15A     -7.087530
      16A     -7.038543    17A     -6.993629    18A     -4.986437
      19A     -4.985503    20A     -4.984709    21A     -4.937801
      22A     -4.936448    23A     -4.935498    24A     -4.893092
      25A     -4.890904    26A     -4.890753    27A     -0.901685
      28A     -0.843577    29A     -0.806693    30A     -0.777336
      31A     -0.758214    32A     -0.740681    33A     -0.713615
      34A     -0.699016    35A     -0.663693    36A     -0.659318
      37A     -0.467825    38A     -0.289266    39A     -0.235190
      40A     -0.183938    41A     -0.164372    42A     -0.149560
      43A     -0.125915    44A     -0.098623    45A     -0.081175
      46A     -0.064263    47A     -0.052129    48A     -0.043892
      49A     -0.032442    50A     -0.015373    51A     -0.006308
      52A     -0.000117    53A      0.009325    54A      0.015297
      55A      0.021960    56A      0.036791    57A      0.047295
      58A      0.052771    59A      0.067146    60A      0.071134
      61A      0.092269    62A      0.100370    63A      0.102198
      64A      0.103675    65A      0.114649    66A      0.125571
      67A      0.144256    68A      0.150307    69A      0.171811

  @DF-RHF Final Energy: -1810.68661394584592

   => Energetics <=

    Nuclear Repulsion Energy =           1462.0845632444845705
    One-Electron Energy =               -5499.7810567975629965
    Two-Electron Energy =                2227.0098796072329606
    Total Energy =                      -1810.6866139458456928
  Basis Set: (AUG-CC-PVTZ AUX)
    Blend: AUG-CC-PVTZ-RI
    Molecular point group: c1

    Geometry (in Angstrom), charge = -4, multiplicity = 1:

       Center              X                  Y                   Z               Mass
    ------------   -----------------  -----------------  -----------------  -----------------
         P            2.597205573049     0.109295770442    -0.337300413310    30.973761998420
         P           -0.169008426951    -1.116908229558     0.311402586690    30.973761998420
         P           -2.694514426951     0.502152770442    -0.182091413310    30.973761998420
         O            1.967792573049     1.633523770442    -0.165654413310    15.994914619570
         O            1.260587573049    -0.876144729558    -0.541711913310    15.994914619570
         O            3.282266573049     0.119480770442    -1.679242413310    15.994914619570
         O            3.343269573049    -0.266738229558     0.920885586690    15.994914619570
         O           -0.973831426951     0.187961770442    -0.203910413310    15.994914619570
         O            0.107621573049    -1.053131229558     1.800815586690    15.994914619570
         O           -0.679730826951    -2.404882829558    -0.297783713310    15.994914619570
         O           -3.218432426951    -0.241835229558     1.060021586690    15.994914619570
         O           -2.698513426951     2.035360770442    -0.077323413310    15.994914619570
         O           -3.197054426951    -0.048528229558    -1.528759413310    15.994914619570
         C            1.436004573049     1.994840770442     1.123905586690    12.000000000000
         H            1.031281573049     1.128363770442     1.646484586690     1.007825032230
         H            2.217052573049     2.465900770442     1.728935586690     1.007825032230
         H            0.630403573049     2.708595770442     0.945096586690     1.007825032230

  Basis Set: AUG-CC-PVTZ
    Blend: AUG-CC-PVTZ
  Basis Set: (AUG-CC-PVTZ AUX)
    Blend: AUG-CC-PVTZ-JKFIT
	 Reference Energy          =   -1810.6866139458459202 [Eh]
	 Singles Energy            =      -0.0000000000000000 [Eh]
	 Same-Spin Energy          =      -0.9132898219133562 [Eh]
	 Opposite-Spin Energy      =      -2.5265506869607495 [Eh]
	 Correlation Energy        =      -3.4398405088741058 [Eh]
	 Total Energy              =   -1814.1264544547200330 [Eh]

	 ================> DF-SCS-MP2 Energies <==================
	-----------------------------------------------------------
	 SCS Same-Spin Scale       =       0.3333333333333333 [-]
	 SCS Opposite-Spin Scale   =       1.2000000000000000 [-]
	 SCS Same-Spin Energy      =      -0.3044299406377854 [Eh]
	 SCS Opposite-Spin Energy  =      -3.0318608243528993 [Eh]
	 SCS Correlation Energy    =      -3.3362907649906846 [Eh]
	 SCS Total Energy          =   -1814.0229047108366558 [Eh]
	-----------------------------------------------------------

  Dipole Moment: [D]
     X:     9.2851      Y:     2.4303      Z:     1.6736     Total:     9.7427

*** Psi4 exiting successfully. Buy a developer a beer!
