                               Psi4 1.4a3.dev225

  ==> Input File <==

--------------------------------------------------------------------------
#psi4
#
memory 32 gb

molecule  {
-4 1
  P       -2.5202440    -0.2449420     0.3712220
  P        0.3565170    -0.5960480    -0.3589090
  P        3.1750170     0.3881900     0.1554910
  O       -2.7927880     1.3311510    -0.1150520
  O       -0.9169740    -0.0836090     0.6422800
  O       -3.1856250    -0.4605710     1.7148300
  O       -2.8507450    -1.1694890    -0.7786080
  O        1.4898640     0.0841660     0.5723090
  O        0.2127210     0.0849480    -1.7048820
  O        0.4027150    -2.1095660    -0.2874290
  O        3.5327910    -0.6840640    -0.8835370
  O        3.1643710     1.8286230    -0.3742880
  O        3.8338960     0.2099350     1.5311200
  C       -4.1869257     1.5979624    -0.5395656
  H       -4.4292020     0.9309370    -1.3496150
  H       -4.8386320     1.4471050     0.3059850
  H       -4.1840730     2.6280350    -0.8559160
units angstrom
no_reorient  #important for SAPT in psi4, default
symmetry c1  #important for SAPT in psi4, default
}

set PROPERTIES_ORIGIN ["COM"]
properties('MP2/aug-cc-pvtz', properties = ['dipole'])
--------------------------------------------------------------------------

    Molecular point group: c1
  Charge       = -4
  Multiplicity = 1
  Basis Set: AUG-CC-PVTZ
    Blend: AUG-CC-PVTZ
  Basis Set: (AUG-CC-PVTZ AUX)
    Blend: AUG-CC-PVTZ-JKFIT

    Orbital Energies [Eh]
    ---------------------

    Doubly Occupied:

       1A    -79.578591     2A    -79.516445     3A    -79.475024
       4A    -20.116467     5A    -20.040629     6A    -20.013576
       7A    -20.003568     8A    -19.983664     9A    -19.936261
      10A    -19.934477    11A    -19.921602    12A    -19.916660
      13A    -19.912816    14A    -10.882048    15A     -7.092837
      16A     -7.029506    17A     -6.988779    18A     -4.991942
      19A     -4.990709    20A     -4.989804    21A     -4.928904
      22A     -4.927330    23A     -4.926187    24A     -4.888173
      25A     -4.886069    26A     -4.885940    27A     -0.917667
      28A     -0.849221    29A     -0.805009    30A     -0.776930
      31A     -0.759816    32A     -0.735843    33A     -0.705340
      34A     -0.686251    35A     -0.661600    36A     -0.656879
      37A     -0.535285    38A     -0.303202    39A     -0.250350
      40A     -0.223892    41A     -0.192676    42A     -0.157935
      43A     -0.140454    44A     -0.109575    45A     -0.094391
      46A     -0.078171    47A     -0.062984    48A     -0.050783
      49A     -0.034592    50A     -0.025952    51A     -0.011612
      52A     -0.009043    53A      0.010671    54A      0.012684
      55A      0.023554    56A      0.035907    57A      0.049759
      58A      0.055403    59A      0.063457    60A      0.081992
      61A      0.098048    62A      0.103766    63A      0.107542
      64A      0.108715    65A      0.125562    66A      0.135929
      67A      0.148418    68A      0.154823    69A      0.174911

  @DF-RHF Final Energy: -1810.67056354796682

   => Energetics <=

    Nuclear Repulsion Energy =           1424.3637465549379613
    One-Electron Energy =               -5423.8639804683671173
    Two-Electron Energy =                2188.8296703654623343
    Total Energy =                      -1810.6705635479665943
  Basis Set: (AUG-CC-PVTZ AUX)
    Blend: AUG-CC-PVTZ-RI
    Molecular point group: c1

    Geometry (in Angstrom), charge = -4, multiplicity = 1:

       Center              X                  Y                   Z               Mass
    ------------   -----------------  -----------------  -----------------  -----------------
         P           -2.571578115830    -0.225177415192     0.364224449328    30.973761998420
         P            0.305182884170    -0.576283415192    -0.365906550672    30.973761998420
         P            3.123682884170     0.407954584808     0.148493449328    30.973761998420
         O           -2.844122115830     1.350915584808    -0.122049550672    15.994914619570
         O           -0.968308115830    -0.063844415192     0.635282449328    15.994914619570
         O           -3.236959115830    -0.440806415192     1.707832449328    15.994914619570
         O           -2.902079115830    -1.149724415192    -0.785605550672    15.994914619570
         O            1.438529884170     0.103930584808     0.565311449328    15.994914619570
         O            0.161386884170     0.104712584808    -1.711879550672    15.994914619570
         O            0.351380884170    -2.089801415192    -0.294426550672    15.994914619570
         O            3.481456884170    -0.664299415192    -0.890534550672    15.994914619570
         O            3.113036884170     1.848387584808    -0.381285550672    15.994914619570
         O            3.782561884170     0.229699584808     1.524122449328    15.994914619570
         C           -4.238259815830     1.617726984808    -0.546563150672    12.000000000000
         H           -4.480536115830     0.950701584808    -1.356612550672     1.007825032230
         H           -4.889966115830     1.466869584808     0.298987449328     1.007825032230
         H           -4.235407115830     2.647799584808    -0.862913550672     1.007825032230

  Basis Set: AUG-CC-PVTZ
    Blend: AUG-CC-PVTZ
  Basis Set: (AUG-CC-PVTZ AUX)
    Blend: AUG-CC-PVTZ-JKFIT
	 Reference Energy          =   -1810.6705635479668217 [Eh]
	 Singles Energy            =      -0.0000000000000000 [Eh]
	 Same-Spin Energy          =      -0.9125415697905774 [Eh]
	 Opposite-Spin Energy      =      -2.5261665053213966 [Eh]
	 Correlation Energy        =      -3.4387080751119741 [Eh]
	 Total Energy              =   -1814.1092716230787119 [Eh]

	 ================> DF-SCS-MP2 Energies <==================
	-----------------------------------------------------------
	 SCS Same-Spin Scale       =       0.3333333333333333 [-]
	 SCS Opposite-Spin Scale   =       1.2000000000000000 [-]
	 SCS Same-Spin Energy      =      -0.3041805232635258 [Eh]
	 SCS Opposite-Spin Energy  =      -3.0313998063856760 [Eh]
	 SCS Correlation Energy    =      -3.3355803296492019 [Eh]
	 SCS Total Energy          =   -1814.0061438776160685 [Eh]
	-----------------------------------------------------------

  Dipole Moment: [D]
     X:   -15.1701      Y:     2.8065      Z:    -0.0574     Total:    15.4276

*** Psi4 exiting successfully. Buy a developer a beer!
