                               Psi4 1.4a3.dev225

  ==> Input File <==

--------------------------------------------------------------------------
#psi4
#
memory 32 gb

molecule  {
-4 1
  P       -2.5202440    -0.2449420     0.3712220
  P        0.3565170    -0.5960480    -0.3589090
  P        3.1750170     0.3881900     0.1554910
  O       -2.7927880     1.3311510    -0.1150520
  O       -0.9169740    -0.0836090     0.6422800
  O       -3.1856250    -0.4605710     1.7148300
  O       -2.8507450    -1.1694890    -0.7786080
  O        1.5249111     0.1052006     0.6011056
  O        0.2127210     0.0849480    -1.7048820
  O        0.4027150    -2.1095660    -0.2874290
  O        3.5327910    -0.6840640    -0.8835370
  O        3.1643710     1.8286230    -0.3742880
  O        3.8338960     0.2099350     1.5311200
  C       -4.1398760     1.5889580    -0.5252390
  H       -4.4292020     0.9309370    -1.3496150
  H       -4.8386320     1.4471050     0.3059850
  H       -4.1840730     2.6280350    -0.8559160
units angstrom
no_reorient  #important for SAPT in psi4, default
symmetry c1  #important for SAPT in psi4, default
}

set PROPERTIES_ORIGIN ["COM"]
properties('MP2/aug-cc-pvtz', properties = ['dipole'])
--------------------------------------------------------------------------

    Molecular point group: c1
  Charge       = -4
  Multiplicity = 1
  Basis Set: AUG-CC-PVTZ
    Blend: AUG-CC-PVTZ
  Basis Set: (AUG-CC-PVTZ AUX)
    Blend: AUG-CC-PVTZ-JKFIT

    Orbital Energies [Eh]
    ---------------------

    Doubly Occupied:

       1A    -79.583415     2A    -79.525646     3A    -79.469095
       4A    -20.120936     5A    -20.046049     6A    -20.017052
       7A    -20.007279     8A    -19.985647     9A    -19.942534
      10A    -19.940661    11A    -19.915994    12A    -19.912447
      13A    -19.910577    14A    -10.884852    15A     -7.097657
      16A     -7.037831    17A     -6.983227    18A     -4.996801
      19A     -4.995511    20A     -4.994575    21A     -4.937230
      22A     -4.935530    23A     -4.934529    24A     -4.882606
      25A     -4.880576    26A     -4.880453    27A     -0.933265
      28A     -0.855261    29A     -0.806265    30A     -0.777745
      31A     -0.763420    32A     -0.737599    33A     -0.702517
      34A     -0.691707    35A     -0.657407    36A     -0.654125
      37A     -0.529745    38A     -0.310940    39A     -0.253521
      40A     -0.222267    41A     -0.196555    42A     -0.165704
      43A     -0.141137    44A     -0.110054    45A     -0.095197
      46A     -0.080826    47A     -0.063300    48A     -0.052557
      49A     -0.035140    50A     -0.027058    51A     -0.012277
      52A     -0.010379    53A      0.007565    54A      0.011336
      55A      0.025352    56A      0.032230    57A      0.045784
      58A      0.055063    59A      0.059780    60A      0.078413
      61A      0.095764    62A      0.106103    63A      0.108902
      64A      0.111788    65A      0.121577    66A      0.131856
      67A      0.151974    68A      0.157861    69A      0.178369

  @DF-RHF Final Energy: -1810.67201620875835

   => Energetics <=

    Nuclear Repulsion Energy =           1424.5159903022797607
    One-Electron Energy =               -5423.9261013269588148
    Two-Electron Energy =                2188.7380948159207037
    Total Energy =                      -1810.6720162087585777
  Basis Set: (AUG-CC-PVTZ AUX)
    Blend: AUG-CC-PVTZ-RI
    Molecular point group: c1

    Geometry (in Angstrom), charge = -4, multiplicity = 1:

       Center              X                  Y                   Z               Mass
    ------------   -----------------  -----------------  -----------------  -----------------
         P           -2.575778180637    -0.226029968478     0.361863371524    30.973761998420
         P            0.300982819363    -0.577135968478    -0.368267628476    30.973761998420
         P            3.119482819363     0.407102031522     0.146132371524    30.973761998420
         O           -2.848322180637     1.350063031522    -0.124410628476    15.994914619570
         O           -0.972508180637    -0.064696968478     0.632921371524    15.994914619570
         O           -3.241159180637    -0.441658968478     1.705471371524    15.994914619570
         O           -2.906279180637    -1.150576968478    -0.787966628476    15.994914619570
         O            1.469376919363     0.124112631522     0.591746971524    15.994914619570
         O            0.157186819363     0.103860031522    -1.714240628476    15.994914619570
         O            0.347180819363    -2.090653968478    -0.296787628476    15.994914619570
         O            3.477256819363    -0.665151968478    -0.892895628476    15.994914619570
         O            3.108836819363     1.847535031522    -0.383646628476    15.994914619570
         O            3.778361819363     0.228847031522     1.521761371524    15.994914619570
         C           -4.195410180637     1.607870031522    -0.534597628476    12.000000000000
         H           -4.484736180637     0.949849031522    -1.358973628476     1.007825032230
         H           -4.894166180637     1.466017031522     0.296626371524     1.007825032230
         H           -4.239607180637     2.646947031522    -0.865274628476     1.007825032230

  Basis Set: AUG-CC-PVTZ
    Blend: AUG-CC-PVTZ
  Basis Set: (AUG-CC-PVTZ AUX)
    Blend: AUG-CC-PVTZ-JKFIT
	 Reference Energy          =   -1810.6720162087583503 [Eh]
	 Singles Energy            =      -0.0000000000000000 [Eh]
	 Same-Spin Energy          =      -0.9127817976903033 [Eh]
	 Opposite-Spin Energy      =      -2.5263381620585625 [Eh]
	 Correlation Energy        =      -3.4391199597488660 [Eh]
	 Total Energy              =   -1814.1111361685073007 [Eh]

	 ================> DF-SCS-MP2 Energies <==================
	-----------------------------------------------------------
	 SCS Same-Spin Scale       =       0.3333333333333333 [-]
	 SCS Opposite-Spin Scale   =       1.2000000000000000 [-]
	 SCS Same-Spin Energy      =      -0.3042605992301011 [Eh]
	 SCS Opposite-Spin Energy  =      -3.0316057944702748 [Eh]
	 SCS Correlation Energy    =      -3.3358663937003761 [Eh]
	 SCS Total Energy          =   -1814.0078826024587215 [Eh]
	-----------------------------------------------------------

  Dipole Moment: [D]
     X:   -15.5073      Y:     2.5361      Z:    -0.1304     Total:    15.7138

*** Psi4 exiting successfully. Buy a developer a beer!
