                               Psi4 1.3.2 release

  ==> Input File <==

--------------------------------------------------------------------------
#psi4
#
memory 32 gb

molecule  {
-4 1
  P        2.5828670     0.0826120    -0.3559070
  P       -0.1833470    -1.1435920     0.2927960
  P       -2.7088530     0.4754690    -0.2006980
  O        1.9642287     1.6139316    -0.2101638
  O        1.2509400    -0.8782220    -0.5450080
  O        3.2606901     0.1178689    -1.7010960
  O        3.3289310    -0.2934220     0.9022790
  O       -0.9881700     0.1612780    -0.2225170
  O        0.0932830    -1.0798150     1.7822090
  O       -0.7150640    -2.4305380    -0.3003910
  O       -3.2327710    -0.2685190     1.0414150
  O       -2.7128520     2.0086770    -0.0959300
  O       -3.2113930    -0.0752120    -1.5473660
  C        1.4216660     1.9681570     1.1052990
  H        1.0169430     1.1016800     1.6278780
  H        2.2027140     2.4392170     1.7103290
  H        0.6160650     2.6819120     0.9264900
units angstrom
no_reorient  #important for SAPT in psi4, default
symmetry c1  #important for SAPT in psi4, default
}

set PROPERTIES_ORIGIN ["COM"]
properties('MP2/aug-cc-pvtz', properties = ['dipole'])
--------------------------------------------------------------------------

    Molecular point group: c1
  Charge       = -4
  Multiplicity = 1
  Basis Set: AUG-CC-PVTZ
    Blend: AUG-CC-PVTZ
  Basis Set: (AUG-CC-PVTZ AUX)
    Blend: AUG-CC-PVTZ-JKFIT

    Orbital Energies [Eh]
    ---------------------

    Doubly Occupied:

       1A    -79.571624     2A    -79.527319     3A    -79.479961
       4A    -20.085769     5A    -20.038957     6A    -20.004164
       7A    -20.000248     8A    -19.993161     9A    -19.950596
      10A    -19.945559    11A    -19.923993    12A    -19.919254
      13A    -19.917515    14A    -10.813479    15A     -7.085519
      16A     -7.040249    17A     -6.993466    18A     -4.984462
      19A     -4.983544    20A     -4.982679    21A     -4.939530
      22A     -4.938135    23A     -4.937209    24A     -4.892929
      25A     -4.890740    26A     -4.890591    27A     -0.897394
      28A     -0.843901    29A     -0.805097    30A     -0.777822
      31A     -0.757564    32A     -0.742315    33A     -0.713730
      34A     -0.700003    35A     -0.663530    36A     -0.659153
      37A     -0.466754    38A     -0.293491    39A     -0.232251
      40A     -0.182416    41A     -0.160973    42A     -0.143676
      43A     -0.125828    44A     -0.099053    45A     -0.081930
      46A     -0.065402    47A     -0.051856    48A     -0.045344
      49A     -0.032576    50A     -0.016106    51A     -0.007346
      52A     -0.000435    53A      0.009516    54A      0.014942
      55A      0.021241    56A      0.038739    57A      0.047267
      58A      0.052969    59A      0.066905    60A      0.070828
      61A      0.090823    62A      0.100345    63A      0.102173
      64A      0.103774    65A      0.113587    66A      0.124910
      67A      0.144400    68A      0.150383    69A      0.171972

  @DF-RHF Final Energy: -1810.68690183173658

   => Energetics <=

    Nuclear Repulsion Energy =           1462.3675982678153105
    One-Electron Energy =               -5500.3653579536867255
    Two-Electron Energy =                2227.3108578541350653
    Total Energy =                      -1810.6869018317365772
  Basis Set: (AUG-CC-PVTZ AUX)
    Blend: AUG-CC-PVTZ-RI
    Molecular point group: c1

    Geometry (in Angstrom), charge = -4, multiplicity = 1:

       Center              X                  Y                   Z               Mass
    ------------   -----------------  -----------------  -----------------  -----------------
         P            2.597967829563     0.105844838386    -0.337429378600    30.973761998420
         P           -0.168246170437    -1.120359161614     0.311273621400    30.973761998420
         P           -2.693752170437     0.498701838386    -0.182220378600    30.973761998420
         O            1.979329529563     1.637164438386    -0.191686178600    15.994914619570
         O            1.266040829563    -0.854989161614    -0.526530378600    15.994914619570
         O            3.275790929563     0.141101738386    -1.682618378600    15.994914619570
         O            3.344031829563    -0.270189161614     0.920756621400    15.994914619570
         O           -0.973069170437     0.184510838386    -0.204039378600    15.994914619570
         O            0.108383829563    -1.056582161614     1.800686621400    15.994914619570
         O           -0.699963170437    -2.407305161614    -0.281913378600    15.994914619570
         O           -3.217670170437    -0.245286161614     1.059892621400    15.994914619570
         O           -2.697751170437     2.031909838386    -0.077452378600    15.994914619570
         O           -3.196292170437    -0.051979161614    -1.528888378600    15.994914619570
         C            1.436766829563     1.991389838386     1.123776621400    12.000000000000
         H            1.032043829563     1.124912838386     1.646355621400     1.007825032230
         H            2.217814829563     2.462449838386     1.728806621400     1.007825032230
         H            0.631165829563     2.705144838386     0.944967621400     1.007825032230

  Basis Set: AUG-CC-PVTZ
    Blend: AUG-CC-PVTZ
  Basis Set: (AUG-CC-PVTZ AUX)
    Blend: AUG-CC-PVTZ-JKFIT
	 Reference Energy          =   -1810.6869018317365772 [Eh]
	 Singles Energy            =      -0.0000000000000000 [Eh]
	 Same-Spin Energy          =      -0.9132339221165826 [Eh]
	 Opposite-Spin Energy      =      -2.5266074015888540 [Eh]
	 Correlation Energy        =      -3.4398413237054366 [Eh]
	 Total Energy              =   -1814.1267431554420000 [Eh]

	 ================> DF-SCS-MP2 Energies <==================
	-----------------------------------------------------------
	 SCS Same-Spin Scale       =       0.3333333333333333 [-]
	 SCS Opposite-Spin Scale   =       1.2000000000000000 [-]
	 SCS Same-Spin Energy      =      -0.3044113073721942 [Eh]
	 SCS Opposite-Spin Energy  =      -3.0319288819066248 [Eh]
	 SCS Correlation Energy    =      -3.3363401892788191 [Eh]
	 SCS Total Energy          =   -1814.0232420210154487 [Eh]
	-----------------------------------------------------------

  Dipole Moment: [D]
     X:     9.2338      Y:     2.2964      Z:     1.6934     Total:     9.6646

*** Psi4 exiting successfully. Buy a developer a beer!
