                               Psi4 1.4a3.dev225

  ==> Input File <==

--------------------------------------------------------------------------
#psi4
#
memory 32 gb

molecule  {
-4 1
  P       -2.5202440    -0.2449420     0.3712220
  P        0.3565170    -0.5960480    -0.3589090
  P        3.1750170     0.3881900     0.1554910
  O       -2.7927880     1.3311510    -0.1150520
  O       -0.9019833    -0.0896411     0.6304947
  O       -3.1856250    -0.4605710     1.7148300
  O       -2.8507450    -1.1694890    -0.7786080
  O        1.4898640     0.0841660     0.5723090
  O        0.2127210     0.0849480    -1.7048820
  O        0.4027150    -2.1095660    -0.2874290
  O        3.5327910    -0.6840640    -0.8835370
  O        3.1643710     1.8286230    -0.3742880
  O        3.8338960     0.2099350     1.5311200
  C       -4.1398760     1.5889580    -0.5252390
  H       -4.4292020     0.9309370    -1.3496150
  H       -4.8386320     1.4471050     0.3059850
  H       -4.1840730     2.6280350    -0.8559160
units angstrom
no_reorient  #important for SAPT in psi4, default
symmetry c1  #important for SAPT in psi4, default
}

set PROPERTIES_ORIGIN ["COM"]
properties('MP2/aug-cc-pvtz', properties = ['dipole'])
--------------------------------------------------------------------------

    Molecular point group: c1
  Charge       = -4
  Multiplicity = 1
  Basis Set: AUG-CC-PVTZ
    Blend: AUG-CC-PVTZ
  Basis Set: (AUG-CC-PVTZ AUX)
    Blend: AUG-CC-PVTZ-JKFIT

    Orbital Energies [Eh]
    ---------------------

    Doubly Occupied:

       1A    -79.583927     2A    -79.514212     3A    -79.474463
       4A    -20.120817     5A    -20.042136     6A    -20.017766
       7A    -20.006086     8A    -19.982498     9A    -19.934631
      10A    -19.932978    11A    -19.921195    12A    -19.916263
      13A    -19.912306    14A    -10.884662    15A     -7.097907
      16A     -7.027538    17A     -6.988217    18A     -4.997053
      19A     -4.995741    20A     -4.994835    21A     -4.926971
      22A     -4.925382    23A     -4.924227    24A     -4.887603
      25A     -4.885514    26A     -4.885385    27A     -0.932556
      28A     -0.854864    29A     -0.808018    30A     -0.777663
      31A     -0.762717    32A     -0.734783    33A     -0.704468
      34A     -0.685073    35A     -0.661189    36A     -0.656408
      37A     -0.529519    38A     -0.310587    39A     -0.253331
      40A     -0.221981    41A     -0.196872    42A     -0.165735
      43A     -0.140744    44A     -0.108920    45A     -0.093783
      46A     -0.080424    47A     -0.063664    48A     -0.052605
      49A     -0.034323    50A     -0.026727    51A     -0.011960
      52A     -0.008954    53A      0.008235    54A      0.012085
      55A      0.023949    56A      0.033457    57A      0.047018
      58A      0.056182    59A      0.061002    60A      0.082100
      61A      0.098850    62A      0.104225    63A      0.108237
      64A      0.109462    65A      0.126722    66A      0.137030
      67A      0.148967    68A      0.155449    69A      0.175345

  @DF-RHF Final Energy: -1810.67480920782350

   => Energetics <=

    Nuclear Repulsion Energy =           1425.9912110987447704
    One-Electron Energy =               -5426.9923079517839142
    Two-Electron Energy =                2190.3262876452154160
    Total Energy =                      -1810.6748092078237278
  Basis Set: (AUG-CC-PVTZ AUX)
    Blend: AUG-CC-PVTZ-RI
    Molecular point group: c1

    Geometry (in Angstrom), charge = -4, multiplicity = 1:

       Center              X                  Y                   Z               Mass
    ------------   -----------------  -----------------  -----------------  -----------------
         P           -2.574580690150    -0.224413919947     0.364286360655    30.973761998420
         P            0.302180309850    -0.575519919947    -0.365844639345    30.973761998420
         P            3.120680309850     0.408718080053     0.148555360655    30.973761998420
         O           -2.847124690150     1.351679080053    -0.121987639345    15.994914619570
         O           -0.956319990150    -0.069113019947     0.623559060655    15.994914619570
         O           -3.239961690150    -0.440042919947     1.707894360655    15.994914619570
         O           -2.905081690150    -1.148960919947    -0.785543639345    15.994914619570
         O            1.435527309850     0.104694080053     0.565373360655    15.994914619570
         O            0.158384309850     0.105476080053    -1.711817639345    15.994914619570
         O            0.348378309850    -2.089037919947    -0.294364639345    15.994914619570
         O            3.478454309850    -0.663535919947    -0.890472639345    15.994914619570
         O            3.110034309850     1.849151080053    -0.381223639345    15.994914619570
         O            3.779559309850     0.230463080053     1.524184360655    15.994914619570
         C           -4.194212690150     1.609486080053    -0.532174639345    12.000000000000
         H           -4.483538690150     0.951465080053    -1.356550639345     1.007825032230
         H           -4.892968690150     1.467633080053     0.299049360655     1.007825032230
         H           -4.238409690150     2.648563080053    -0.862851639345     1.007825032230

  Basis Set: AUG-CC-PVTZ
    Blend: AUG-CC-PVTZ
  Basis Set: (AUG-CC-PVTZ AUX)
    Blend: AUG-CC-PVTZ-JKFIT
	 Reference Energy          =   -1810.6748092078235004 [Eh]
	 Singles Energy            =      -0.0000000000000000 [Eh]
	 Same-Spin Energy          =      -0.9122937831984275 [Eh]
	 Opposite-Spin Energy      =      -2.5250106526797702 [Eh]
	 Correlation Energy        =      -3.4373044358781977 [Eh]
	 Total Energy              =   -1814.1121136437016048 [Eh]

	 ================> DF-SCS-MP2 Energies <==================
	-----------------------------------------------------------
	 SCS Same-Spin Scale       =       0.3333333333333333 [-]
	 SCS Opposite-Spin Scale   =       1.2000000000000000 [-]
	 SCS Same-Spin Energy      =      -0.3040979277328091 [Eh]
	 SCS Opposite-Spin Energy  =      -3.0300127832157240 [Eh]
	 SCS Correlation Energy    =      -3.3341107109485333 [Eh]
	 SCS Total Energy          =   -1814.0089199187721078 [Eh]
	-----------------------------------------------------------

  Dipole Moment: [D]
     X:   -15.2010      Y:     2.7505      Z:     0.0725     Total:    15.4480

*** Psi4 exiting successfully. Buy a developer a beer!
