                               Psi4 1.3.2 release

  ==> Input File <==

--------------------------------------------------------------------------
#psi4
#
memory 32 gb

molecule  {
-4 1
  P        2.5828670     0.0826120    -0.3559070
  P       -0.1833470    -1.1435920     0.2927960
  P       -2.7088530     0.4754690    -0.2006980
  O        1.9534540     1.6068400    -0.1842610
  O        1.2509400    -0.8782220    -0.5450080
  O        3.2679280     0.0927970    -1.6978490
  O        3.3289310    -0.2934220     0.9022790
  O       -0.9881700     0.1612780    -0.2225170
  O        0.0932830    -1.0798150     1.7822090
  O       -0.7150640    -2.4305380    -0.3003910
  O       -3.2327710    -0.2685190     1.0414150
  O       -2.7321661     2.0111038    -0.1459147
  O       -3.2192571    -0.0247336    -1.5640012
  C        1.4216660     1.9681570     1.1052990
  H        1.0169430     1.1016800     1.6278780
  H        2.2027140     2.4392170     1.7103290
  H        0.6160650     2.6819120     0.9264900
units angstrom
no_reorient  #important for SAPT in psi4, default
symmetry c1  #important for SAPT in psi4, default
}

set PROPERTIES_ORIGIN ["COM"]
properties('MP2/aug-cc-pvtz', properties = ['dipole'])
--------------------------------------------------------------------------

    Molecular point group: c1
  Charge       = -4
  Multiplicity = 1
  Basis Set: AUG-CC-PVTZ
    Blend: AUG-CC-PVTZ
  Basis Set: (AUG-CC-PVTZ AUX)
    Blend: AUG-CC-PVTZ-JKFIT

    Orbital Energies [Eh]
    ---------------------

    Doubly Occupied:

       1A    -79.573175     2A    -79.528391     3A    -79.479849
       4A    -20.086238     5A    -20.039262     6A    -20.003432
       7A    -20.003001     8A    -19.995347     9A    -19.951447
      10A    -19.946776    11A    -19.921797    12A    -19.920541
      13A    -19.915795    14A    -10.812429    15A     -7.086998
      16A     -7.041334    17A     -6.993351    18A     -4.985948
      19A     -4.985005    20A     -4.984181    21A     -4.940605
      22A     -4.939229    23A     -4.938292    24A     -4.892781
      25A     -4.890712    26A     -4.890399    27A     -0.902576
      28A     -0.846714    29A     -0.807575    30A     -0.778707
      31A     -0.758142    32A     -0.742866    33A     -0.714710
      34A     -0.701078    35A     -0.664022    36A     -0.656671
      37A     -0.467524    38A     -0.294793    39A     -0.235544
      40A     -0.184903    41A     -0.164721    42A     -0.149445
      43A     -0.126713    44A     -0.099945    45A     -0.083605
      46A     -0.065544    47A     -0.052774    48A     -0.044962
      49A     -0.032804    50A     -0.016738    51A     -0.007315
      52A     -0.000148    53A      0.009593    54A      0.014591
      55A      0.020184    56A      0.036792    57A      0.047253
      58A      0.052886    59A      0.066075    60A      0.069869
      61A      0.089875    62A      0.101461    63A      0.102007
      64A      0.102847    65A      0.113276    66A      0.124324
      67A      0.143340    68A      0.152009    69A      0.173461

  @DF-RHF Final Energy: -1810.68874326307855

   => Energetics <=

    Nuclear Repulsion Energy =           1462.2418638903034207
    One-Electron Energy =               -5500.0071940314537642
    Two-Electron Energy =                2227.0765868780717938
    Total Energy =                      -1810.6887432630783223
  Basis Set: (AUG-CC-PVTZ AUX)
    Blend: AUG-CC-PVTZ-RI
    Molecular point group: c1

    Geometry (in Angstrom), charge = -4, multiplicity = 1:

       Center              X                  Y                   Z               Mass
    ------------   -----------------  -----------------  -----------------  -----------------
         P            2.599801704053     0.104606431272    -0.335192183076    30.973761998420
         P           -0.166412295947    -1.121597568728     0.313510816924    30.973761998420
         P           -2.691918295947     0.497463431272    -0.179983183076    30.973761998420
         O            1.970388704053     1.628834431272    -0.163546183076    15.994914619570
         O            1.267874704053    -0.856227568728    -0.524293183076    15.994914619570
         O            3.284862704053     0.114791431272    -1.677134183076    15.994914619570
         O            3.345865704053    -0.271427568728     0.922993816924    15.994914619570
         O           -0.971235295947     0.183272431272    -0.201802183076    15.994914619570
         O            0.110217704053    -1.057820568728     1.802923816924    15.994914619570
         O           -0.698129295947    -2.408543568728    -0.279676183076    15.994914619570
         O           -3.215836295947    -0.246524568728     1.062129816924    15.994914619570
         O           -2.715231395947     2.033098231272    -0.125199883076    15.994914619570
         O           -3.202322395947    -0.002739168728    -1.543286383076    15.994914619570
         C            1.438600704053     1.990151431272     1.126013816924    12.000000000000
         H            1.033877704053     1.123674431272     1.648592816924     1.007825032230
         H            2.219648704053     2.461211431272     1.731043816924     1.007825032230
         H            0.632999704053     2.703906431272     0.947204816924     1.007825032230

  Basis Set: AUG-CC-PVTZ
    Blend: AUG-CC-PVTZ
  Basis Set: (AUG-CC-PVTZ AUX)
    Blend: AUG-CC-PVTZ-JKFIT
	 Reference Energy          =   -1810.6887432630785497 [Eh]
	 Singles Energy            =      -0.0000000000000000 [Eh]
	 Same-Spin Energy          =      -0.9129747711001223 [Eh]
	 Opposite-Spin Energy      =      -2.5257175535920475 [Eh]
	 Correlation Energy        =      -3.4386923246921697 [Eh]
	 Total Energy              =   -1814.1274355877708331 [Eh]

	 ================> DF-SCS-MP2 Energies <==================
	-----------------------------------------------------------
	 SCS Same-Spin Scale       =       0.3333333333333333 [-]
	 SCS Opposite-Spin Scale   =       1.2000000000000000 [-]
	 SCS Same-Spin Energy      =      -0.3043249237000407 [Eh]
	 SCS Opposite-Spin Energy  =      -3.0308610643104568 [Eh]
	 SCS Correlation Energy    =      -3.3351859880104975 [Eh]
	 SCS Total Energy          =   -1814.0239292510891573 [Eh]
	-----------------------------------------------------------

  Dipole Moment: [D]
     X:     9.3581      Y:     2.1836      Z:     1.7978     Total:     9.7762

*** Psi4 exiting successfully. Buy a developer a beer!
