                               Psi4 1.3.2 release

  ==> Input File <==

--------------------------------------------------------------------------
#psi4
#
memory 32 gb

molecule  {
-4 1
  P        2.5828670     0.0826120    -0.3559070
  P       -0.1833470    -1.1435920     0.2927960
  P       -2.7088530     0.4754690    -0.2006980
  O        1.9534540     1.6068400    -0.1842610
  O        1.2509400    -0.8782220    -0.5450080
  O        3.2679280     0.0927970    -1.6978490
  O        3.3289310    -0.2934220     0.9022790
  O       -0.9881700     0.1612780    -0.2225170
  O        0.0932830    -1.0798150     1.7822090
  O       -0.6799335    -2.3455095    -0.2611991
  O       -3.2327710    -0.2685190     1.0414150
  O       -2.7128520     2.0086770    -0.0959300
  O       -3.2113930    -0.0752120    -1.5473660
  C        1.4216660     1.9681570     1.1052990
  H        1.0169430     1.1016800     1.6278780
  H        2.2027140     2.4392170     1.7103290
  H        0.6160650     2.6819120     0.9264900
units angstrom
no_reorient  #important for SAPT in psi4, default
symmetry c1  #important for SAPT in psi4, default
}

set PROPERTIES_ORIGIN ["COM"]
properties('MP2/aug-cc-pvtz', properties = ['dipole'])
--------------------------------------------------------------------------

    Molecular point group: c1
  Charge       = -4
  Multiplicity = 1
  Basis Set: AUG-CC-PVTZ
    Blend: AUG-CC-PVTZ
  Basis Set: (AUG-CC-PVTZ AUX)
    Blend: AUG-CC-PVTZ-JKFIT

    Orbital Energies [Eh]
    ---------------------

    Doubly Occupied:

       1A    -79.568737     2A    -79.505003     3A    -79.477642
       4A    -20.082458     5A    -20.031800     6A    -19.999862
       7A    -19.999832     8A    -19.984786     9A    -19.940810
      10A    -19.939934    11A    -19.921701    12A    -19.918318
      13A    -19.915813    14A    -10.808603    15A     -7.082602
      16A     -7.022960    17A     -6.991101    18A     -4.981555
      19A     -4.980584    20A     -4.979817    21A     -4.921783
      22A     -4.921092    23A     -4.919730    24A     -4.890521
      25A     -4.888411    26A     -4.888277    27A     -0.898716
      28A     -0.847381    29A     -0.806585    30A     -0.774273
      31A     -0.756960    32A     -0.754533    33A     -0.717186
      34A     -0.702496    35A     -0.661637    36A     -0.657790
      37A     -0.463709    38A     -0.287847    39A     -0.229946
      40A     -0.180754    41A     -0.160793    42A     -0.145729
      43A     -0.122831    44A     -0.098110    45A     -0.080088
      46A     -0.064649    47A     -0.050603    48A     -0.041482
      49A     -0.030261    50A     -0.016053    51A     -0.003533
      52A      0.000169    53A      0.008890    54A      0.016771
      55A      0.020446    56A      0.040033    57A      0.047172
      58A      0.056356    59A      0.062256    60A      0.072339
      61A      0.083277    62A      0.101879    63A      0.104650
      64A      0.106539    65A      0.113797    66A      0.124259
      67A      0.146662    68A      0.152631    69A      0.173477

  @DF-RHF Final Energy: -1810.68452054422164

   => Energetics <=

    Nuclear Repulsion Energy =           1468.4472689267479382
    One-Electron Energy =               -5512.8914334314686130
    Two-Electron Energy =                2233.7596439604994885
    Total Energy =                      -1810.6845205442214137
  Basis Set: (AUG-CC-PVTZ AUX)
    Blend: AUG-CC-PVTZ-RI
    Molecular point group: c1

    Geometry (in Angstrom), charge = -4, multiplicity = 1:

       Center              X                  Y                   Z               Mass
    ------------   -----------------  -----------------  -----------------  -----------------
         P            2.596081491276     0.102688472607    -0.341509798598    30.973761998420
         P           -0.170132508724    -1.123515527393     0.307193201402    30.973761998420
         P           -2.695638508724     0.495545472607    -0.186300798598    30.973761998420
         O            1.966668491276     1.626916472607    -0.169863798598    15.994914619570
         O            1.264154491276    -0.858145527393    -0.530610798598    15.994914619570
         O            3.281142491276     0.112873472607    -1.683451798598    15.994914619570
         O            3.342145491276    -0.273345527393     0.916676201402    15.994914619570
         O           -0.974955508724     0.181354472607    -0.208119798598    15.994914619570
         O            0.106497491276    -1.059738527393     1.796606201402    15.994914619570
         O           -0.666719008724    -2.325433027393    -0.246801898598    15.994914619570
         O           -3.219556508724    -0.248442527393     1.055812201402    15.994914619570
         O           -2.699637508724     2.028753472607    -0.081532798598    15.994914619570
         O           -3.198178508724    -0.055135527393    -1.532968798598    15.994914619570
         C            1.434880491276     1.988233472607     1.119696201402    12.000000000000
         H            1.030157491276     1.121756472607     1.642275201402     1.007825032230
         H            2.215928491276     2.459293472607     1.724726201402     1.007825032230
         H            0.629279491276     2.701988472607     0.940887201402     1.007825032230

  Basis Set: AUG-CC-PVTZ
    Blend: AUG-CC-PVTZ
  Basis Set: (AUG-CC-PVTZ AUX)
    Blend: AUG-CC-PVTZ-JKFIT
	 Reference Energy          =   -1810.6845205442216411 [Eh]
	 Singles Energy            =      -0.0000000000000000 [Eh]
	 Same-Spin Energy          =      -0.9111509445155697 [Eh]
	 Opposite-Spin Energy      =      -2.5210530521908590 [Eh]
	 Correlation Energy        =      -3.4322039967064288 [Eh]
	 Total Energy              =   -1814.1167245409280895 [Eh]

	 ================> DF-SCS-MP2 Energies <==================
	-----------------------------------------------------------
	 SCS Same-Spin Scale       =       0.3333333333333333 [-]
	 SCS Opposite-Spin Scale   =       1.2000000000000000 [-]
	 SCS Same-Spin Energy      =      -0.3037169815051899 [Eh]
	 SCS Opposite-Spin Energy  =      -3.0252636626290306 [Eh]
	 SCS Correlation Energy    =      -3.3289806441342202 [Eh]
	 SCS Total Energy          =   -1814.0135011883558036 [Eh]
	-----------------------------------------------------------

  Dipole Moment: [D]
     X:     9.0726      Y:     1.7145      Z:     1.3944     Total:     9.3379

*** Psi4 exiting successfully. Buy a developer a beer!
