                               Psi4 1.3.2 release

  ==> Input File <==

--------------------------------------------------------------------------
#psi4
#
memory 32 gb

molecule  {
-4 1
  P        2.5828670     0.0826120    -0.3559070
  P       -0.1833470    -1.1435920     0.2927960
  P       -2.7088530     0.4754690    -0.2006980
  O        1.9534540     1.6068400    -0.1842610
  O        1.2509400    -0.8782220    -0.5450080
  O        3.2679280     0.0927970    -1.6978490
  O        3.3289310    -0.2934220     0.9022790
  O       -0.9939287     0.1313656    -0.2245598
  O        0.0932830    -1.0798150     1.7822090
  O       -0.7150640    -2.4305380    -0.3003910
  O       -3.2327710    -0.2685190     1.0414150
  O       -2.7396720     2.0083735    -0.0959453
  O       -3.2113930    -0.0752120    -1.5473660
  C        1.4216660     1.9681570     1.1052990
  H        1.0169430     1.1016800     1.6278780
  H        2.2027140     2.4392170     1.7103290
  H        0.6160650     2.6819120     0.9264900
units angstrom
no_reorient  #important for SAPT in psi4, default
symmetry c1  #important for SAPT in psi4, default
}

set PROPERTIES_ORIGIN ["COM"]
properties('MP2/aug-cc-pvtz', properties = ['dipole'])
--------------------------------------------------------------------------

    Molecular point group: c1
  Charge       = -4
  Multiplicity = 1
  Basis Set: AUG-CC-PVTZ
    Blend: AUG-CC-PVTZ
  Basis Set: (AUG-CC-PVTZ AUX)
    Blend: AUG-CC-PVTZ-JKFIT

    Orbital Energies [Eh]
    ---------------------

    Doubly Occupied:

       1A    -79.572767     2A    -79.524911     3A    -79.481220
       4A    -20.086432     5A    -20.038085     6A    -20.003033
       7A    -20.002768     8A    -19.993864     9A    -19.949304
      10A    -19.942674    11A    -19.926220    12A    -19.918638
      13A    -19.916567    14A    -10.812708    15A     -7.086596
      16A     -7.038176    17A     -6.994643    18A     -4.985550
      19A     -4.984596    20A     -4.983781    21A     -4.937429
      22A     -4.936172    23A     -4.935100    24A     -4.894112
      25A     -4.891928    26A     -4.891737    27A     -0.902566
      28A     -0.847199    29A     -0.809083    30A     -0.779093
      31A     -0.757816    32A     -0.741792    33A     -0.715571
      34A     -0.698127    35A     -0.664100    36A     -0.658651
      37A     -0.467797    38A     -0.294546    39A     -0.236883
      40A     -0.186574    41A     -0.165505    42A     -0.149775
      43A     -0.126092    44A     -0.098957    45A     -0.083111
      46A     -0.065535    47A     -0.053239    48A     -0.044936
      49A     -0.033431    50A     -0.017005    51A     -0.007263
      52A      0.000160    53A      0.009646    54A      0.014371
      55A      0.021601    56A      0.036854    57A      0.046393
      58A      0.053243    59A      0.067310    60A      0.071117
      61A      0.091728    62A      0.100089    63A      0.100290
      64A      0.103740    65A      0.115016    66A      0.126620
      67A      0.144006    68A      0.150481    69A      0.172083

  @DF-RHF Final Energy: -1810.69049256993094

   => Energetics <=

    Nuclear Repulsion Energy =           1463.1289388921211412
    One-Electron Energy =               -5501.8210409965968211
    Two-Electron Energy =                2228.0016095345445137
    Total Energy =                      -1810.6904925699309388
  Basis Set: (AUG-CC-PVTZ AUX)
    Blend: AUG-CC-PVTZ-RI
    Molecular point group: c1

    Geometry (in Angstrom), charge = -4, multiplicity = 1:

       Center              X                  Y                   Z               Mass
    ------------   -----------------  -----------------  -----------------  -----------------
         P            2.600124147132     0.109569272388    -0.339046919786    30.973761998420
         P           -0.166089852868    -1.116634727612     0.309656080214    30.973761998420
         P           -2.691595852868     0.502426272388    -0.183837919786    30.973761998420
         O            1.970711147132     1.633797272388    -0.167400919786    15.994914619570
         O            1.268197147132    -0.851264727612    -0.528147919786    15.994914619570
         O            3.285185147132     0.119754272388    -1.680988919786    15.994914619570
         O            3.346188147132    -0.266464727612     0.919139080214    15.994914619570
         O           -0.976671552868     0.158322872388    -0.207699719786    15.994914619570
         O            0.110540147132    -1.052857727612     1.799069080214    15.994914619570
         O           -0.697806852868    -2.403580727612    -0.283530919786    15.994914619570
         O           -3.215513852868    -0.241561727612     1.058275080214    15.994914619570
         O           -2.722414852868     2.035330772388    -0.079085219786    15.994914619570
         O           -3.194135852868    -0.048254727612    -1.530505919786    15.994914619570
         C            1.438923147132     1.995114272388     1.122159080214    12.000000000000
         H            1.034200147132     1.128637272388     1.644738080214     1.007825032230
         H            2.219971147132     2.466174272388     1.727189080214     1.007825032230
         H            0.633322147132     2.708869272388     0.943350080214     1.007825032230

  Basis Set: AUG-CC-PVTZ
    Blend: AUG-CC-PVTZ
  Basis Set: (AUG-CC-PVTZ AUX)
    Blend: AUG-CC-PVTZ-JKFIT
	 Reference Energy          =   -1810.6904925699309388 [Eh]
	 Singles Energy            =      -0.0000000000000000 [Eh]
	 Same-Spin Energy          =      -0.9126420487112759 [Eh]
	 Opposite-Spin Energy      =      -2.5248446256943837 [Eh]
	 Correlation Energy        =      -3.4374866744056596 [Eh]
	 Total Energy              =   -1814.1279792443365295 [Eh]

	 ================> DF-SCS-MP2 Energies <==================
	-----------------------------------------------------------
	 SCS Same-Spin Scale       =       0.3333333333333333 [-]
	 SCS Opposite-Spin Scale   =       1.2000000000000000 [-]
	 SCS Same-Spin Energy      =      -0.3042140162370919 [Eh]
	 SCS Opposite-Spin Energy  =      -3.0298135508332602 [Eh]
	 SCS Correlation Energy    =      -3.3340275670703523 [Eh]
	 SCS Total Energy          =   -1814.0245201370012182 [Eh]
	-----------------------------------------------------------

  Dipole Moment: [D]
     X:     9.2662      Y:     2.4540      Z:     1.5966     Total:     9.7177

*** Psi4 exiting successfully. Buy a developer a beer!
