                               Psi4 1.3.2 release

  ==> Input File <==

--------------------------------------------------------------------------
#psi4
#
memory 32 gb

molecule  {
-4 1
  P        2.5828670     0.0826120    -0.3559070
  P       -0.1833470    -1.1435920     0.2927960
  P       -2.7088530     0.4754690    -0.2006980
  O        1.9003736     1.5844350    -0.1897011
  O        1.2176803    -0.8312961    -0.5403733
  O        3.2679280     0.0927970    -1.6978490
  O        3.3289310    -0.2934220     0.9022790
  O       -0.9881700     0.1612780    -0.2225170
  O        0.0932830    -1.0798150     1.7822090
  O       -0.7150640    -2.4305380    -0.3003910
  O       -3.2327710    -0.2685190     1.0414150
  O       -2.7128520     2.0086770    -0.0959300
  O       -3.2113930    -0.0752120    -1.5473660
  C        1.4216660     1.9681570     1.1052990
  H        1.0169430     1.1016800     1.6278780
  H        2.2027140     2.4392170     1.7103290
  H        0.6160650     2.6819120     0.9264900
units angstrom
no_reorient  #important for SAPT in psi4, default
symmetry c1  #important for SAPT in psi4, default
}

set PROPERTIES_ORIGIN ["COM"]
properties('MP2/aug-cc-pvtz', properties = ['dipole'])
--------------------------------------------------------------------------

    Molecular point group: c1
  Charge       = -4
  Multiplicity = 1
  Basis Set: AUG-CC-PVTZ
    Blend: AUG-CC-PVTZ
  Basis Set: (AUG-CC-PVTZ AUX)
    Blend: AUG-CC-PVTZ-JKFIT

    Orbital Energies [Eh]
    ---------------------

    Doubly Occupied:

       1A    -79.575115     2A    -79.523420     3A    -79.477408
       4A    -20.082639     5A    -20.035217     6A    -20.007079
       7A    -20.006529     8A    -19.988301     9A    -19.947678
      10A    -19.944247    11A    -19.921890    12A    -19.917334
      13A    -19.915400    14A    -10.809915    15A     -7.088777
      16A     -7.036589    17A     -6.990909    18A     -4.987819
      19A     -4.986704    20A     -4.986025    21A     -4.935944
      22A     -4.934464    23A     -4.933580    24A     -4.890342
      25A     -4.888210    26A     -4.888062    27A     -0.903631
      28A     -0.846500    29A     -0.806960    30A     -0.778341
      31A     -0.760978    32A     -0.740632    33A     -0.710990
      34A     -0.698062    35A     -0.661465    36A     -0.657139
      37A     -0.465732    38A     -0.298686    39A     -0.233002
      40A     -0.183010    41A     -0.164220    42A     -0.147045
      43A     -0.129131    44A     -0.098617    45A     -0.084126
      46A     -0.064570    47A     -0.051908    48A     -0.040402
      49A     -0.029949    50A     -0.014936    51A     -0.009168
      52A      0.001691    53A      0.010970    54A      0.014110
      55A      0.023146    56A      0.038539    57A      0.049847
      58A      0.049971    59A      0.064416    60A      0.070828
      61A      0.092584    62A      0.102401    63A      0.104455
      64A      0.106393    65A      0.115889    66A      0.127126
      67A      0.146655    68A      0.152650    69A      0.173962

  @DF-RHF Final Energy: -1810.68778879140564

   => Energetics <=

    Nuclear Repulsion Energy =           1465.4573550923410039
    One-Electron Energy =               -5506.6239580368801398
    Two-Electron Energy =                2230.4788141531334986
    Total Energy =                      -1810.6877887914056373
  Basis Set: (AUG-CC-PVTZ AUX)
    Blend: AUG-CC-PVTZ-RI
    Molecular point group: c1

    Geometry (in Angstrom), charge = -4, multiplicity = 1:

       Center              X                  Y                   Z               Mass
    ------------   -----------------  -----------------  -----------------  -----------------
         P            2.603334033507     0.106301148631    -0.339121713684    30.973761998420
         P           -0.162879966493    -1.119902851369     0.309581286316    30.973761998420
         P           -2.688385966493     0.499158148631    -0.183912713684    30.973761998420
         O            1.920840633507     1.608124148631    -0.172915813684    15.994914619570
         O            1.238147333507    -0.807606951369    -0.523588013684    15.994914619570
         O            3.288395033507     0.116486148631    -1.681063713684    15.994914619570
         O            3.349398033507    -0.269732851369     0.919064286316    15.994914619570
         O           -0.967702966493     0.184967148631    -0.205731713684    15.994914619570
         O            0.113750033507    -1.056125851369     1.798994286316    15.994914619570
         O           -0.694596966493    -2.406848851369    -0.283605713684    15.994914619570
         O           -3.212303966493    -0.244829851369     1.058200286316    15.994914619570
         O           -2.692384966493     2.032366148631    -0.079144713684    15.994914619570
         O           -3.190925966493    -0.051522851369    -1.530580713684    15.994914619570
         C            1.442133033507     1.991846148631     1.122084286316    12.000000000000
         H            1.037410033507     1.125369148631     1.644663286316     1.007825032230
         H            2.223181033507     2.462906148631     1.727114286316     1.007825032230
         H            0.636532033507     2.705601148631     0.943275286316     1.007825032230

  Basis Set: AUG-CC-PVTZ
    Blend: AUG-CC-PVTZ
  Basis Set: (AUG-CC-PVTZ AUX)
    Blend: AUG-CC-PVTZ-JKFIT
	 Reference Energy          =   -1810.6877887914056373 [Eh]
	 Singles Energy            =      -0.0000000000000000 [Eh]
	 Same-Spin Energy          =      -0.9129692945332427 [Eh]
	 Opposite-Spin Energy      =      -2.5252841534380774 [Eh]
	 Correlation Energy        =      -3.4382534479713200 [Eh]
	 Total Energy              =   -1814.1260422393770568 [Eh]

	 ================> DF-SCS-MP2 Energies <==================
	-----------------------------------------------------------
	 SCS Same-Spin Scale       =       0.3333333333333333 [-]
	 SCS Opposite-Spin Scale   =       1.2000000000000000 [-]
	 SCS Same-Spin Energy      =      -0.3043230981777476 [Eh]
	 SCS Opposite-Spin Energy  =      -3.0303409841256927 [Eh]
	 SCS Correlation Energy    =      -3.3346640823034401 [Eh]
	 SCS Total Energy          =   -1814.0224528737089713 [Eh]
	-----------------------------------------------------------

  Dipole Moment: [D]
     X:     9.5866      Y:     2.3194      Z:     1.5322     Total:     9.9815

*** Psi4 exiting successfully. Buy a developer a beer!
