                               Psi4 1.4a3.dev225

  ==> Input File <==

--------------------------------------------------------------------------
#psi4
#
memory 32 gb

molecule  {
-4 1
  P       -2.5202440    -0.2449420     0.3712220
  P        0.3565170    -0.5960480    -0.3589090
  P        3.1750170     0.3881900     0.1554910
  O       -2.7927880     1.3311510    -0.1150520
  O       -0.9169740    -0.0836090     0.6422800
  O       -3.1856250    -0.4605710     1.7148300
  O       -2.8507450    -1.1694890    -0.7786080
  O        1.4898640     0.0841660     0.5723090
  O        0.2127210     0.0849480    -1.7048820
  O        0.4033245    -2.1295345    -0.2864859
  O        3.5327910    -0.6840640    -0.8835370
  O        3.1643710     1.8286230    -0.3742880
  O        3.8338960     0.2099350     1.5311200
  C       -4.1398760     1.5889580    -0.5252390
  H       -4.4292020     0.9309370    -1.3496150
  H       -4.8386320     1.4471050     0.3059850
  H       -4.1840730     2.6280350    -0.8559160
units angstrom
no_reorient  #important for SAPT in psi4, default
symmetry c1  #important for SAPT in psi4, default
}

set PROPERTIES_ORIGIN ["COM"]
properties('MP2/aug-cc-pvtz', properties = ['dipole'])
--------------------------------------------------------------------------

    Molecular point group: c1
  Charge       = -4
  Multiplicity = 1
  Basis Set: AUG-CC-PVTZ
    Blend: AUG-CC-PVTZ
  Basis Set: (AUG-CC-PVTZ AUX)
    Blend: AUG-CC-PVTZ-JKFIT

    Orbital Energies [Eh]
    ---------------------

    Doubly Occupied:

       1A    -79.581251     2A    -79.520991     3A    -79.475977
       4A    -20.119557     5A    -20.043156     6A    -20.015399
       7A    -20.005278     8A    -19.985832     9A    -19.937815
      10A    -19.937130    11A    -19.922378    12A    -19.917579
      13A    -19.913541    14A    -10.883745    15A     -7.095528
      16A     -7.033368    17A     -6.989744    18A     -4.994673
      19A     -4.993369    20A     -4.992451    21A     -4.932829
      22A     -4.931227    23A     -4.929956    24A     -4.889146
      25A     -4.887023    26A     -4.886896    27A     -0.931775
      28A     -0.854023    29A     -0.807162    30A     -0.778683
      31A     -0.761535    32A     -0.735182    33A     -0.705601
      34A     -0.683850    35A     -0.662423    36A     -0.657676
      37A     -0.528576    38A     -0.309392    39A     -0.253038
      40A     -0.221077    41A     -0.197022    42A     -0.165791
      43A     -0.140543    44A     -0.108946    45A     -0.094596
      46A     -0.079661    47A     -0.063269    48A     -0.052309
      49A     -0.035171    50A     -0.025777    51A     -0.013092
      52A     -0.009818    53A      0.009094    54A      0.011756
      55A      0.022925    56A      0.034166    57A      0.047827
      58A      0.055415    59A      0.062056    60A      0.082122
      61A      0.097225    62A      0.103041    63A      0.106724
      64A      0.108540    65A      0.125248    66A      0.135507
      67A      0.147541    68A      0.153855    69A      0.174124

  @DF-RHF Final Energy: -1810.67377057059753

   => Energetics <=

    Nuclear Repulsion Energy =           1424.6180977521537443
    One-Electron Energy =               -5424.1544134604837382
    Two-Electron Energy =                2188.8625451377329227
    Total Energy =                      -1810.6737705705972985
  Basis Set: (AUG-CC-PVTZ AUX)
    Blend: AUG-CC-PVTZ-RI
    Molecular point group: c1

    Geometry (in Angstrom), charge = -4, multiplicity = 1:

       Center              X                  Y                   Z               Mass
    ------------   -----------------  -----------------  -----------------  -----------------
         P           -2.573722044022    -0.223581831116     0.363526396857    30.973761998420
         P            0.303038955978    -0.574687831116    -0.366604603143    30.973761998420
         P            3.121538955978     0.409550168884     0.147795396857    30.973761998420
         O           -2.846266044022     1.352511168884    -0.122747603143    15.994914619570
         O           -0.970452044022    -0.062248831116     0.634584396857    15.994914619570
         O           -3.239103044022    -0.439210831116     1.707134396857    15.994914619570
         O           -2.904223044022    -1.148128831116    -0.786303603143    15.994914619570
         O            1.436385955978     0.105526168884     0.564613396857    15.994914619570
         O            0.159242955978     0.106308168884    -1.712577603143    15.994914619570
         O            0.349846455978    -2.108174331116    -0.294181503143    15.994914619570
         O            3.479312955978    -0.662703831116    -0.891232603143    15.994914619570
         O            3.110892955978     1.849983168884    -0.381983603143    15.994914619570
         O            3.780417955978     0.231295168884     1.523424396857    15.994914619570
         C           -4.193354044022     1.610318168884    -0.532934603143    12.000000000000
         H           -4.482680044022     0.952297168884    -1.357310603143     1.007825032230
         H           -4.892110044022     1.468465168884     0.298289396857     1.007825032230
         H           -4.237551044022     2.649395168884    -0.863611603143     1.007825032230

  Basis Set: AUG-CC-PVTZ
    Blend: AUG-CC-PVTZ
  Basis Set: (AUG-CC-PVTZ AUX)
    Blend: AUG-CC-PVTZ-JKFIT
	 Reference Energy          =   -1810.6737705705975259 [Eh]
	 Singles Energy            =      -0.0000000000000000 [Eh]
	 Same-Spin Energy          =      -0.9127525324821196 [Eh]
	 Opposite-Spin Energy      =      -2.5261947713018720 [Eh]
	 Correlation Energy        =      -3.4389473037839915 [Eh]
	 Total Energy              =   -1814.1127178743815875 [Eh]

	 ================> DF-SCS-MP2 Energies <==================
	-----------------------------------------------------------
	 SCS Same-Spin Scale       =       0.3333333333333333 [-]
	 SCS Opposite-Spin Scale   =       1.2000000000000000 [-]
	 SCS Same-Spin Energy      =      -0.3042508441607065 [Eh]
	 SCS Opposite-Spin Energy  =      -3.0314337255622461 [Eh]
	 SCS Correlation Energy    =      -3.3356845697229525 [Eh]
	 SCS Total Energy          =   -1814.0094551403203695 [Eh]
	-----------------------------------------------------------

  Dipole Moment: [D]
     X:   -14.9823      Y:     2.8430      Z:    -0.0018     Total:    15.2497

*** Psi4 exiting successfully. Buy a developer a beer!
