                               Psi4 1.4a3.dev225

  ==> Input File <==

--------------------------------------------------------------------------
#psi4
#
memory 32 gb

molecule  {
-4 1
  P       -2.5202440    -0.2449420     0.3712220
  P        0.3565170    -0.5960480    -0.3589090
  P        3.1750170     0.3881900     0.1554910
  O       -2.8009394     1.3782895    -0.1295957
  O       -0.9169740    -0.0836090     0.6422800
  O       -3.1856250    -0.4605710     1.7148300
  O       -2.8507450    -1.1694890    -0.7786080
  O        1.4898640     0.0841660     0.5723090
  O        0.2127210     0.0849480    -1.7048820
  O        0.4027150    -2.1095660    -0.2874290
  O        3.5327910    -0.6840640    -0.8835370
  O        3.1643710     1.8286230    -0.3742880
  O        3.8338960     0.2099350     1.5311200
  C       -4.1398760     1.5889580    -0.5252390
  H       -4.4292020     0.9309370    -1.3496150
  H       -4.8386320     1.4471050     0.3059850
  H       -4.1840730     2.6280350    -0.8559160
units angstrom
no_reorient  #important for SAPT in psi4, default
symmetry c1  #important for SAPT in psi4, default
}

set PROPERTIES_ORIGIN ["COM"]
properties('MP2/aug-cc-pvtz', properties = ['dipole'])
--------------------------------------------------------------------------

    Molecular point group: c1
  Charge       = -4
  Multiplicity = 1
  Basis Set: AUG-CC-PVTZ
    Blend: AUG-CC-PVTZ
  Basis Set: (AUG-CC-PVTZ AUX)
    Blend: AUG-CC-PVTZ-JKFIT

    Orbital Energies [Eh]
    ---------------------

    Doubly Occupied:

       1A    -79.586490     2A    -79.518624     3A    -79.476029
       4A    -20.117187     5A    -20.045167     6A    -20.019594
       7A    -20.009714     8A    -19.985305     9A    -19.938368
      10A    -19.936269    11A    -19.922508    12A    -19.917484
      13A    -19.913785    14A    -10.877630    15A     -7.100170
      16A     -7.031706    17A     -6.989790    18A     -4.999241
      19A     -4.997934    20A     -4.997096    21A     -4.931120
      22A     -4.929512    23A     -4.928370    24A     -4.889189
      25A     -4.887073    26A     -4.886944    27A     -0.926124
      28A     -0.857034    29A     -0.810160    30A     -0.779736
      31A     -0.764962    32A     -0.737604    33A     -0.706878
      34A     -0.688176    35A     -0.662494    36A     -0.657800
      37A     -0.519667    38A     -0.308323    39A     -0.251709
      40A     -0.218665    41A     -0.191707    42A     -0.167064
      43A     -0.140838    44A     -0.107879    45A     -0.094233
      46A     -0.080322    47A     -0.062784    48A     -0.051990
      49A     -0.036251    50A     -0.023105    51A     -0.013194
      52A     -0.011021    53A      0.007344    54A      0.010977
      55A      0.022093    56A      0.031274    57A      0.044266
      58A      0.053769    59A      0.058346    60A      0.079634
      61A      0.096438    62A      0.102802    63A      0.106368
      64A      0.107243    65A      0.123669    66A      0.134269
      67A      0.147359    68A      0.153700    69A      0.174016

  @DF-RHF Final Energy: -1810.67393469997410

   => Energetics <=

    Nuclear Repulsion Energy =           1423.8798600566158257
    One-Electron Energy =               -5422.6106842403696646
    Two-Electron Energy =                2188.0568894837797416
    Total Energy =                      -1810.6739346999738700
  Basis Set: (AUG-CC-PVTZ AUX)
    Blend: AUG-CC-PVTZ-RI
    Molecular point group: c1

    Geometry (in Angstrom), charge = -4, multiplicity = 1:

       Center              X                  Y                   Z               Mass
    ------------   -----------------  -----------------  -----------------  -----------------
         P           -2.573198964387    -0.227588531926     0.364451054107    30.973761998420
         P            0.303562035613    -0.578694531926    -0.365679945893    30.973761998420
         P            3.122062035613     0.405543468074     0.148720054107    30.973761998420
         O           -2.853894364387     1.395642968074    -0.136366645893    15.994914619570
         O           -0.969928964387    -0.066255531926     0.635509054107    15.994914619570
         O           -3.238579964387    -0.443217531926     1.708059054107    15.994914619570
         O           -2.903699964387    -1.152135531926    -0.785378945893    15.994914619570
         O            1.436909035613     0.101519468074     0.565538054107    15.994914619570
         O            0.159766035613     0.102301468074    -1.711652945893    15.994914619570
         O            0.349760035613    -2.092212531926    -0.294199945893    15.994914619570
         O            3.479836035613    -0.666710531926    -0.890307945893    15.994914619570
         O            3.111416035613     1.845976468074    -0.381058945893    15.994914619570
         O            3.780941035613     0.227288468074     1.524349054107    15.994914619570
         C           -4.192830964387     1.606311468074    -0.532009945893    12.000000000000
         H           -4.482156964387     0.948290468074    -1.356385945893     1.007825032230
         H           -4.891586964387     1.464458468074     0.299214054107     1.007825032230
         H           -4.237027964387     2.645388468074    -0.862686945893     1.007825032230

  Basis Set: AUG-CC-PVTZ
    Blend: AUG-CC-PVTZ
  Basis Set: (AUG-CC-PVTZ AUX)
    Blend: AUG-CC-PVTZ-JKFIT
	 Reference Energy          =   -1810.6739346999740974 [Eh]
	 Singles Energy            =      -0.0000000000000000 [Eh]
	 Same-Spin Energy          =      -0.9128899864066237 [Eh]
	 Opposite-Spin Energy      =      -2.5264918908782237 [Eh]
	 Correlation Energy        =      -3.4393818772848475 [Eh]
	 Total Energy              =   -1814.1133165772589564 [Eh]

	 ================> DF-SCS-MP2 Energies <==================
	-----------------------------------------------------------
	 SCS Same-Spin Scale       =       0.3333333333333333 [-]
	 SCS Opposite-Spin Scale   =       1.2000000000000000 [-]
	 SCS Same-Spin Energy      =      -0.3042966621355412 [Eh]
	 SCS Opposite-Spin Energy  =      -3.0317902690538685 [Eh]
	 SCS Correlation Energy    =      -3.3360869311894099 [Eh]
	 SCS Total Energy          =   -1814.0100216311634540 [Eh]
	-----------------------------------------------------------

  Dipole Moment: [D]
     X:   -14.8075      Y:     2.4420      Z:     0.0989     Total:    15.0078

*** Psi4 exiting successfully. Buy a developer a beer!
