                               Psi4 1.3.2 release

  ==> Input File <==

--------------------------------------------------------------------------
#psi4
#
memory 32 gb

molecule  {
-4 1
  P        2.5828670     0.0826120    -0.3559070
  P       -0.1833470    -1.1435920     0.2927960
  P       -2.7088530     0.4754690    -0.2006980
  O        1.9534540     1.6068400    -0.1842610
  O        1.2509400    -0.8782220    -0.5450080
  O        3.2679280     0.0927970    -1.6978490
  O        3.3289310    -0.2934220     0.9022790
  O       -0.9881700     0.1612780    -0.2225170
  O        0.0932830    -1.0798150     1.7822090
  O       -0.7150640    -2.4305380    -0.3003910
  O       -3.2327710    -0.2685190     1.0414150
  O       -2.7080218     2.0077783    -0.0834514
  O       -3.2093309    -0.0877291    -1.5429500
  C        1.4216660     1.9681570     1.1052990
  H        1.0169430     1.1016800     1.6278780
  H        2.2027140     2.4392170     1.7103290
  H        0.6160650     2.6819120     0.9264900
units angstrom
no_reorient  #important for SAPT in psi4, default
symmetry c1  #important for SAPT in psi4, default
}

set PROPERTIES_ORIGIN ["COM"]
properties('MP2/aug-cc-pvtz', properties = ['dipole'])
--------------------------------------------------------------------------

    Molecular point group: c1
  Charge       = -4
  Multiplicity = 1
  Basis Set: AUG-CC-PVTZ
    Blend: AUG-CC-PVTZ
  Basis Set: (AUG-CC-PVTZ AUX)
    Blend: AUG-CC-PVTZ-JKFIT

    Orbital Energies [Eh]
    ---------------------

    Doubly Occupied:

       1A    -79.572396     2A    -79.526542     3A    -79.479853
       4A    -20.085500     5A    -20.038053     6A    -20.002686
       7A    -20.002430     8A    -19.992362     9A    -19.949763
      10A    -19.944859    11A    -19.924705    12A    -19.920001
      13A    -19.916247    14A    -10.811513    15A     -7.086218
      16A     -7.039474    17A     -6.993361    18A     -4.985169
      19A     -4.984223    20A     -4.983406    21A     -4.938754
      22A     -4.937360    23A     -4.936434    24A     -4.892830
      25A     -4.890629    26A     -4.890490    27A     -0.901763
      28A     -0.845386    29A     -0.806410    30A     -0.777863
      31A     -0.757475    32A     -0.741848    33A     -0.713225
      34A     -0.699244    35A     -0.664311    36A     -0.658507
      37A     -0.466634    38A     -0.293576    39A     -0.234386
      40A     -0.183849    41A     -0.163811    42A     -0.148616
      43A     -0.125795    44A     -0.098673    45A     -0.082639
      46A     -0.064880    47A     -0.051702    48A     -0.043835
      49A     -0.031628    50A     -0.016014    51A     -0.006506
      52A      0.000236    53A      0.009750    54A      0.014834
      55A      0.021967    56A      0.037555    57A      0.047462
      58A      0.053669    59A      0.067236    60A      0.071193
      61A      0.091338    62A      0.100231    63A      0.102264
      64A      0.104386    65A      0.114144    66A      0.125512
      67A      0.144560    68A      0.150503    69A      0.171971

  @DF-RHF Final Energy: -1810.68871414429827

   => Energetics <=

    Nuclear Repulsion Energy =           1463.1026032736442630
    One-Electron Energy =               -5501.8325916600051642
    Two-Electron Energy =                2228.0412742420621726
    Total Energy =                      -1810.6887141442985012
  Basis Set: (AUG-CC-PVTZ AUX)
    Blend: AUG-CC-PVTZ-RI
    Molecular point group: c1

    Geometry (in Angstrom), charge = -4, multiplicity = 1:

       Center              X                  Y                   Z               Mass
    ------------   -----------------  -----------------  -----------------  -----------------
         P            2.597767485566     0.108566203046    -0.340178512592    30.973761998420
         P           -0.168446514434    -1.117637796954     0.308524487408    30.973761998420
         P           -2.693952514434     0.501423203046    -0.184969512592    30.973761998420
         O            1.968354485566     1.632794203046    -0.168532512592    15.994914619570
         O            1.265840485566    -0.852267796954    -0.529279512592    15.994914619570
         O            3.282828485566     0.118751203046    -1.682120512592    15.994914619570
         O            3.343831485566    -0.267467796954     0.918007487408    15.994914619570
         O           -0.973269514434     0.187232203046    -0.206788512592    15.994914619570
         O            0.108183485566    -1.053860796954     1.797937487408    15.994914619570
         O           -0.700163514434    -2.404583796954    -0.284662512592    15.994914619570
         O           -3.217870514434    -0.242564796954     1.057143487408    15.994914619570
         O           -2.693121314434     2.033732503046    -0.067722912592    15.994914619570
         O           -3.194430414434    -0.061774896954    -1.527221512592    15.994914619570
         C            1.436566485566     1.994111203046     1.121027487408    12.000000000000
         H            1.031843485566     1.127634203046     1.643606487408     1.007825032230
         H            2.217614485566     2.465171203046     1.726057487408     1.007825032230
         H            0.630965485566     2.707866203046     0.942218487408     1.007825032230

  Basis Set: AUG-CC-PVTZ
    Blend: AUG-CC-PVTZ
  Basis Set: (AUG-CC-PVTZ AUX)
    Blend: AUG-CC-PVTZ-JKFIT
	 Reference Energy          =   -1810.6887141442982738 [Eh]
	 Singles Energy            =      -0.0000000000000000 [Eh]
	 Same-Spin Energy          =      -0.9130349492215593 [Eh]
	 Opposite-Spin Energy      =      -2.5258127582360985 [Eh]
	 Correlation Energy        =      -3.4388477074576578 [Eh]
	 Total Energy              =   -1814.1275618517558996 [Eh]

	 ================> DF-SCS-MP2 Energies <==================
	-----------------------------------------------------------
	 SCS Same-Spin Scale       =       0.3333333333333333 [-]
	 SCS Opposite-Spin Scale   =       1.2000000000000000 [-]
	 SCS Same-Spin Energy      =      -0.3043449830738530 [Eh]
	 SCS Opposite-Spin Energy  =      -3.0309753098833183 [Eh]
	 SCS Correlation Energy    =      -3.3353202929571713 [Eh]
	 SCS Total Energy          =   -1814.0240344372555228 [Eh]
	-----------------------------------------------------------

  Dipole Moment: [D]
     X:     9.2314      Y:     2.3765      Z:     1.5610     Total:     9.6593

*** Psi4 exiting successfully. Buy a developer a beer!
