                               Psi4 1.3.2 release

  ==> Input File <==

--------------------------------------------------------------------------
#psi4
#
memory 32 gb

molecule  {
-4 1
  P        2.5828670     0.0826120    -0.3559070
  P       -0.1833470    -1.1435920     0.2927960
  P       -2.7088530     0.4754690    -0.2006980
  O        1.9534540     1.6068400    -0.1842610
  O        1.2152269    -0.8049322    -0.5783048
  O        3.2679280     0.0927970    -1.6978490
  O        3.3289310    -0.2934220     0.9022790
  O       -0.9200728     0.1825117    -0.2681471
  O        0.0932830    -1.0798150     1.7822090
  O       -0.7150640    -2.4305380    -0.3003910
  O       -3.2327710    -0.2685190     1.0414150
  O       -2.7128520     2.0086770    -0.0959300
  O       -3.2113930    -0.0752120    -1.5473660
  C        1.4216660     1.9681570     1.1052990
  H        1.0169430     1.1016800     1.6278780
  H        2.2027140     2.4392170     1.7103290
  H        0.6160650     2.6819120     0.9264900
units angstrom
no_reorient  #important for SAPT in psi4, default
symmetry c1  #important for SAPT in psi4, default
}

set PROPERTIES_ORIGIN ["COM"]
properties('MP2/aug-cc-pvtz', properties = ['dipole'])
--------------------------------------------------------------------------

    Molecular point group: c1
  Charge       = -4
  Multiplicity = 1
  Basis Set: AUG-CC-PVTZ
    Blend: AUG-CC-PVTZ
  Basis Set: (AUG-CC-PVTZ AUX)
    Blend: AUG-CC-PVTZ-JKFIT

    Orbital Energies [Eh]
    ---------------------

    Doubly Occupied:

       1A    -79.568328     2A    -79.523090     3A    -79.484302
       4A    -20.078612     5A    -20.030558     6A    -20.002857
       7A    -19.998775     8A    -19.988010     9A    -19.952012
      10A    -19.947324    11A    -19.926513    12A    -19.924276
      13A    -19.922494    14A    -10.808041    15A     -7.082199
      16A     -7.036394    17A     -6.997546    18A     -4.981192
      19A     -4.980155    20A     -4.979462    21A     -4.935810
      22A     -4.934043    23A     -4.933405    24A     -4.896893
      25A     -4.894745    26A     -4.894620    27A     -0.897700
      28A     -0.840918    29A     -0.800784    30A     -0.770600
      31A     -0.755605    32A     -0.743017    33A     -0.713120
      34A     -0.700698    35A     -0.666403    36A     -0.662957
      37A     -0.462653    38A     -0.290611    39A     -0.225544
      40A     -0.172687    41A     -0.156976    42A     -0.143209
      43A     -0.126255    44A     -0.100179    45A     -0.079429
      46A     -0.065745    47A     -0.048737    48A     -0.038514
      49A     -0.026991    50A     -0.012316    51A     -0.003464
      52A      0.000460    53A      0.011152    54A      0.016875
      55A      0.020083    56A      0.043027    57A      0.050030
      58A      0.054418    59A      0.066360    60A      0.072737
      61A      0.091170    62A      0.097990    63A      0.100195
      64A      0.106347    65A      0.112968    66A      0.124342
      67A      0.139926    68A      0.147224    69A      0.168313

  @DF-RHF Final Energy: -1810.68122243336620

   => Energetics <=

    Nuclear Repulsion Energy =           1463.0144145722395024
    One-Electron Energy =               -5501.8249668458001906
    Two-Electron Energy =                2228.1293298401942593
    Total Energy =                      -1810.6812224333662016
  Basis Set: (AUG-CC-PVTZ AUX)
    Blend: AUG-CC-PVTZ-RI
    Molecular point group: c1

    Geometry (in Angstrom), charge = -4, multiplicity = 1:

       Center              X                  Y                   Z               Mass
    ------------   -----------------  -----------------  -----------------  -----------------
         P            2.596245468255     0.102121562685    -0.334457379451    30.973761998420
         P           -0.169968531745    -1.124082437315     0.314245620549    30.973761998420
         P           -2.695474531745     0.494978562685    -0.179248379451    30.973761998420
         O            1.966832468255     1.626349562685    -0.162811379451    15.994914619570
         O            1.228605368255    -0.785422637315    -0.556855179451    15.994914619570
         O            3.281306468255     0.112306562685    -1.676399379451    15.994914619570
         O            3.342309468255    -0.273912437315     0.923728620549    15.994914619570
         O           -0.906694331745     0.202021262685    -0.246697479451    15.994914619570
         O            0.106661468255    -1.060305437315     1.803658620549    15.994914619570
         O           -0.701685531745    -2.411028437315    -0.278941379451    15.994914619570
         O           -3.219392531745    -0.249009437315     1.062864620549    15.994914619570
         O           -2.699473531745     2.028186562685    -0.074480379451    15.994914619570
         O           -3.198014531745    -0.055702437315    -1.525916379451    15.994914619570
         C            1.435044468255     1.987666562685     1.126748620549    12.000000000000
         H            1.030321468255     1.121189562685     1.649327620549     1.007825032230
         H            2.216092468255     2.458726562685     1.731778620549     1.007825032230
         H            0.629443468255     2.701421562685     0.947939620549     1.007825032230

  Basis Set: AUG-CC-PVTZ
    Blend: AUG-CC-PVTZ
  Basis Set: (AUG-CC-PVTZ AUX)
    Blend: AUG-CC-PVTZ-JKFIT
	 Reference Energy          =   -1810.6812224333662016 [Eh]
	 Singles Energy            =      -0.0000000000000000 [Eh]
	 Same-Spin Energy          =      -0.9140759913499494 [Eh]
	 Opposite-Spin Energy      =      -2.5282740363332268 [Eh]
	 Correlation Energy        =      -3.4423500276831760 [Eh]
	 Total Energy              =   -1814.1235724610494344 [Eh]

	 ================> DF-SCS-MP2 Energies <==================
	-----------------------------------------------------------
	 SCS Same-Spin Scale       =       0.3333333333333333 [-]
	 SCS Opposite-Spin Scale   =       1.2000000000000000 [-]
	 SCS Same-Spin Energy      =      -0.3046919971166498 [Eh]
	 SCS Opposite-Spin Energy  =      -3.0339288435998721 [Eh]
	 SCS Correlation Energy    =      -3.3386208407165219 [Eh]
	 SCS Total Energy          =   -1814.0198432740826320 [Eh]
	-----------------------------------------------------------

  Dipole Moment: [D]
     X:     8.8143      Y:     2.2372      Z:     1.6876     Total:     9.2491

*** Psi4 exiting successfully. Buy a developer a beer!
