                               Psi4 1.3.2 release

  ==> Input File <==

--------------------------------------------------------------------------
#psi4
#
memory 32 gb

molecule  {
-4 1
  P        2.5828670     0.0826120    -0.3559070
  P       -0.1833470    -1.1435920     0.2927960
  P       -2.7088530     0.4754690    -0.2006980
  O        1.9534540     1.6068400    -0.1842610
  O        1.2509400    -0.8782220    -0.5450080
  O        3.2679280     0.0927970    -1.6978490
  O        3.3289310    -0.2934220     0.9022790
  O       -0.9881700     0.1612780    -0.2225170
  O        0.0932830    -1.0798150     1.7822090
  O       -0.7150640    -2.4305380    -0.3003910
  O       -3.2327710    -0.2685190     1.0414150
  O       -2.7128520     2.0086770    -0.0959300
  O       -3.2113930    -0.0752120    -1.5473660
  C        1.4216660     1.9681570     1.1052990
  H        1.0409303     1.1086177     1.6565742
  H        2.1970659     2.4125945     1.7371416
  H        0.6160650     2.6819120     0.9264900
units angstrom
no_reorient  #important for SAPT in psi4, default
symmetry c1  #important for SAPT in psi4, default
}

set PROPERTIES_ORIGIN ["COM"]
properties('MP2/aug-cc-pvtz', properties = ['dipole'])
--------------------------------------------------------------------------

    Molecular point group: c1
  Charge       = -4
  Multiplicity = 1
  Basis Set: AUG-CC-PVTZ
    Blend: AUG-CC-PVTZ
  Basis Set: (AUG-CC-PVTZ AUX)
    Blend: AUG-CC-PVTZ-JKFIT

    Orbital Energies [Eh]
    ---------------------

    Doubly Occupied:

       1A    -79.572860     2A    -79.526695     3A    -79.479722
       4A    -20.086828     5A    -20.038277     6A    -20.003133
       7A    -20.002779     8A    -19.992691     9A    -19.949714
      10A    -19.945103    11A    -19.923820    12A    -19.919090
      13A    -19.917239    14A    -10.812060    15A     -7.086681
      16A     -7.039622    17A     -6.993225    18A     -4.985637
      19A     -4.984681    20A     -4.983866    21A     -4.938904
      22A     -4.937510    23A     -4.936579    24A     -4.892685
      25A     -4.890501    26A     -4.890352    27A     -0.902312
      28A     -0.845665    29A     -0.806662    30A     -0.778025
      31A     -0.757881    32A     -0.741864    33A     -0.713303
      34A     -0.699345    35A     -0.663338    36A     -0.658928
      37A     -0.467489    38A     -0.294213    39A     -0.235952
      40A     -0.184833    41A     -0.160329    42A     -0.149076
      43A     -0.126801    44A     -0.098811    45A     -0.082503
      46A     -0.064906    47A     -0.052297    48A     -0.044286
      49A     -0.032370    50A     -0.016054    51A     -0.007428
      52A      0.000554    53A      0.009916    54A      0.014618
      55A      0.021812    56A      0.037254    57A      0.047585
      58A      0.053184    59A      0.066933    60A      0.070999
      61A      0.091217    62A      0.100658    63A      0.102491
      64A      0.104052    65A      0.114146    66A      0.125536
      67A      0.144649    68A      0.150647    69A      0.172176

  @DF-RHF Final Energy: -1810.68859343639656

   => Energetics <=

    Nuclear Repulsion Energy =           1462.8094165932304804
    One-Electron Energy =               -5501.2230292570238817
    Two-Electron Energy =                2227.7250192273968423
    Total Energy =                      -1810.6885934363963315
  Basis Set: (AUG-CC-PVTZ AUX)
    Blend: AUG-CC-PVTZ-RI
    Molecular point group: c1

    Geometry (in Angstrom), charge = -4, multiplicity = 1:

       Center              X                  Y                   Z               Mass
    ------------   -----------------  -----------------  -----------------  -----------------
         P            2.598110005656     0.107839252055    -0.339378626814    30.973761998420
         P           -0.168103994344    -1.118364747945     0.309324373186    30.973761998420
         P           -2.693609994344     0.500696252055    -0.184169626814    30.973761998420
         O            1.968697005656     1.632067252055    -0.167732626814    15.994914619570
         O            1.266183005656    -0.852994747945    -0.528479626814    15.994914619570
         O            3.283171005656     0.118024252055    -1.681320626814    15.994914619570
         O            3.344174005656    -0.268194747945     0.918807373186    15.994914619570
         O           -0.972926994344     0.186505252055    -0.205988626814    15.994914619570
         O            0.108526005656    -1.054587747945     1.798737373186    15.994914619570
         O           -0.699820994344    -2.405310747945    -0.283862626814    15.994914619570
         O           -3.217527994344    -0.243291747945     1.057943373186    15.994914619570
         O           -2.697608994344     2.033904252055    -0.079401626814    15.994914619570
         O           -3.196149994344    -0.049984747945    -1.530837626814    15.994914619570
         C            1.436909005656     1.993384252055     1.121827373186    12.000000000000
         H            1.056173305656     1.133844952055     1.673102573186     1.007825032230
         H            2.212308905656     2.437821752055     1.753669973186     1.007825032230
         H            0.631308005656     2.707139252055     0.943018373186     1.007825032230

  Basis Set: AUG-CC-PVTZ
    Blend: AUG-CC-PVTZ
  Basis Set: (AUG-CC-PVTZ AUX)
    Blend: AUG-CC-PVTZ-JKFIT
	 Reference Energy          =   -1810.6885934363965589 [Eh]
	 Singles Energy            =      -0.0000000000000000 [Eh]
	 Same-Spin Energy          =      -0.9129906746370950 [Eh]
	 Opposite-Spin Energy      =      -2.5257104235165801 [Eh]
	 Correlation Energy        =      -3.4387010981536754 [Eh]
	 Total Energy              =   -1814.1272945345501739 [Eh]

	 ================> DF-SCS-MP2 Energies <==================
	-----------------------------------------------------------
	 SCS Same-Spin Scale       =       0.3333333333333333 [-]
	 SCS Opposite-Spin Scale   =       1.2000000000000000 [-]
	 SCS Same-Spin Energy      =      -0.3043302248790317 [Eh]
	 SCS Opposite-Spin Energy  =      -3.0308525082198963 [Eh]
	 SCS Correlation Energy    =      -3.3351827330989279 [Eh]
	 SCS Total Energy          =   -1814.0237761694954770 [Eh]
	-----------------------------------------------------------

  Dipole Moment: [D]
     X:     9.2779      Y:     2.3297      Z:     1.6145     Total:     9.7013

*** Psi4 exiting successfully. Buy a developer a beer!
