                               Psi4 1.3.2 release

  ==> Input File <==

--------------------------------------------------------------------------
#psi4
#
memory 32 gb

molecule  {
-4 1
  P        2.5828670     0.0826120    -0.3559070
  P       -0.1833470    -1.1435920     0.2927960
  P       -2.7088530     0.4754690    -0.2006980
  O        1.9534540     1.6068400    -0.1842610
  O        1.2551941    -0.8536963    -0.5294423
  O        3.2679280     0.0927970    -1.6978490
  O        3.3289310    -0.2934220     0.9022790
  O       -0.9881700     0.1612780    -0.2225170
  O        0.0932830    -1.0798150     1.7822090
  O       -0.7358966    -2.4291174    -0.2842110
  O       -3.2327710    -0.2685190     1.0414150
  O       -2.7128520     2.0086770    -0.0959300
  O       -3.2113930    -0.0752120    -1.5473660
  C        1.4216660     1.9681570     1.1052990
  H        1.0169430     1.1016800     1.6278780
  H        2.2027140     2.4392170     1.7103290
  H        0.6160650     2.6819120     0.9264900
units angstrom
no_reorient  #important for SAPT in psi4, default
symmetry c1  #important for SAPT in psi4, default
}

set PROPERTIES_ORIGIN ["COM"]
properties('MP2/aug-cc-pvtz', properties = ['dipole'])
--------------------------------------------------------------------------

    Molecular point group: c1
  Charge       = -4
  Multiplicity = 1
  Basis Set: AUG-CC-PVTZ
    Blend: AUG-CC-PVTZ
  Basis Set: (AUG-CC-PVTZ AUX)
    Blend: AUG-CC-PVTZ-JKFIT

    Orbital Energies [Eh]
    ---------------------

    Doubly Occupied:

       1A    -79.571117     2A    -79.528366     3A    -79.479581
       4A    -20.083703     5A    -20.039314     6A    -20.002319
       7A    -20.001499     8A    -19.992617     9A    -19.949018
      10A    -19.947609    11A    -19.923672    12A    -19.919074
      13A    -19.916964    14A    -10.810698    15A     -7.085141
      16A     -7.041190    17A     -6.993086    18A     -4.984135
      19A     -4.983177    20A     -4.982327    21A     -4.940492
      22A     -4.939059    23A     -4.938150    24A     -4.892547
      25A     -4.890361    26A     -4.890213    27A     -0.902441
      28A     -0.847617    29A     -0.806620    30A     -0.778656
      31A     -0.756967    32A     -0.743340    33A     -0.713471
      34A     -0.700031    35A     -0.663194    36A     -0.658778
      37A     -0.465768    38A     -0.298557    39A     -0.233920
      40A     -0.184107    41A     -0.163575    42A     -0.147984
      43A     -0.126054    44A     -0.099243    45A     -0.084542
      46A     -0.065823    47A     -0.051647    48A     -0.044309
      49A     -0.031266    50A     -0.016884    51A     -0.006972
      52A      0.000543    53A      0.009980    54A      0.014417
      55A      0.021333    56A      0.038053    57A      0.047537
      58A      0.054300    59A      0.066501    60A      0.071117
      61A      0.089773    62A      0.100642    63A      0.102519
      64A      0.104163    65A      0.113540    66A      0.125105
      67A      0.144789    68A      0.150695    69A      0.172324

  @DF-RHF Final Energy: -1810.69041766769919

   => Energetics <=

    Nuclear Repulsion Energy =           1463.7729577141262780
    One-Electron Energy =               -5503.1470206176918509
    Two-Electron Energy =                2228.6836452358666065
    Total Energy =                      -1810.6904176676989664
  Basis Set: (AUG-CC-PVTZ AUX)
    Blend: AUG-CC-PVTZ-RI
    Molecular point group: c1

    Geometry (in Angstrom), charge = -4, multiplicity = 1:

       Center              X                  Y                   Z               Mass
    ------------   -----------------  -----------------  -----------------  -----------------
         P            2.599168836743     0.106216043481    -0.341065214641    30.973761998420
         P           -0.167045163257    -1.119987956519     0.307637785359    30.973761998420
         P           -2.692551163257     0.499073043481    -0.185856214641    30.973761998420
         O            1.969755836743     1.630444043481    -0.169419214641    15.994914619570
         O            1.271495936743    -0.830092256519    -0.514600514641    15.994914619570
         O            3.284229836743     0.116401043481    -1.683007214641    15.994914619570
         O            3.345232836743    -0.269817956519     0.917120785359    15.994914619570
         O           -0.971868163257     0.184882043481    -0.207675214641    15.994914619570
         O            0.109584836743    -1.056210956519     1.797050785359    15.994914619570
         O           -0.719594763257    -2.405513356519    -0.269369214641    15.994914619570
         O           -3.216469163257    -0.244914956519     1.056256785359    15.994914619570
         O           -2.696550163257     2.032281043481    -0.081088214641    15.994914619570
         O           -3.195091163257    -0.051607956519    -1.532524214641    15.994914619570
         C            1.437967836743     1.991761043481     1.120140785359    12.000000000000
         H            1.033244836743     1.125284043481     1.642719785359     1.007825032230
         H            2.219015836743     2.462821043481     1.725170785359     1.007825032230
         H            0.632366836743     2.705516043481     0.941331785359     1.007825032230

  Basis Set: AUG-CC-PVTZ
    Blend: AUG-CC-PVTZ
  Basis Set: (AUG-CC-PVTZ AUX)
    Blend: AUG-CC-PVTZ-JKFIT
	 Reference Energy          =   -1810.6904176676991938 [Eh]
	 Singles Energy            =      -0.0000000000000000 [Eh]
	 Same-Spin Energy          =      -0.9127739626759853 [Eh]
	 Opposite-Spin Energy      =      -2.5250808100084621 [Eh]
	 Correlation Energy        =      -3.4378547726844473 [Eh]
	 Total Energy              =   -1814.1282724403836255 [Eh]

	 ================> DF-SCS-MP2 Energies <==================
	-----------------------------------------------------------
	 SCS Same-Spin Scale       =       0.3333333333333333 [-]
	 SCS Opposite-Spin Scale   =       1.2000000000000000 [-]
	 SCS Same-Spin Energy      =      -0.3042579875586617 [Eh]
	 SCS Opposite-Spin Energy  =      -3.0300969720101545 [Eh]
	 SCS Correlation Energy    =      -3.3343549595688162 [Eh]
	 SCS Total Energy          =   -1814.0247726272680211 [Eh]
	-----------------------------------------------------------

  Dipole Moment: [D]
     X:     9.2238      Y:     2.2436      Z:     1.5435     Total:     9.6174

*** Psi4 exiting successfully. Buy a developer a beer!
