                               Psi4 1.4a3.dev225

  ==> Input File <==

--------------------------------------------------------------------------
#psi4
#
memory 32 gb

molecule  {
-4 1
  P       -2.5202440    -0.2449420     0.3712220
  P        0.3565170    -0.5960480    -0.3589090
  P        3.1750170     0.3881900     0.1554910
  O       -2.7927880     1.3311510    -0.1150520
  O       -0.9169740    -0.0836090     0.6422800
  O       -3.1856250    -0.4605710     1.7148300
  O       -2.8507450    -1.1694890    -0.7786080
  O        1.4898640     0.0841660     0.5723090
  O        0.2127210     0.0849480    -1.7048820
  O        0.4027150    -2.1095660    -0.2874290
  O        3.5327910    -0.6840640    -0.8835370
  O        3.1643710     1.8286230    -0.3742880
  O        3.8124434     0.2157389     1.4863305
  C       -4.1398760     1.5889580    -0.5252390
  H       -4.4292020     0.9309370    -1.3496150
  H       -4.8386320     1.4471050     0.3059850
  H       -4.1840730     2.6280350    -0.8559160
units angstrom
no_reorient  #important for SAPT in psi4, default
symmetry c1  #important for SAPT in psi4, default
}

set PROPERTIES_ORIGIN ["COM"]
properties('MP2/aug-cc-pvtz', properties = ['dipole'])
--------------------------------------------------------------------------

    Molecular point group: c1
  Charge       = -4
  Multiplicity = 1
  Basis Set: AUG-CC-PVTZ
    Blend: AUG-CC-PVTZ
  Basis Set: (AUG-CC-PVTZ AUX)
    Blend: AUG-CC-PVTZ-JKFIT

    Orbital Energies [Eh]
    ---------------------

    Doubly Occupied:

       1A    -79.579883     2A    -79.515171     3A    -79.465174
       4A    -20.118421     5A    -20.040553     6A    -20.014416
       7A    -20.004223     8A    -19.980752     9A    -19.935457
      10A    -19.933482    11A    -19.918602    12A    -19.912235
      13A    -19.908350    14A    -10.882818    15A     -7.094163
      16A     -7.028256    17A     -6.980857    18A     -4.993310
      19A     -4.991995    20A     -4.991097    21A     -4.927668
      22A     -4.926054    23A     -4.924945    24A     -4.880086
      25A     -4.878452    26A     -4.877789    27A     -0.930561
      28A     -0.852269    29A     -0.806153    30A     -0.778875
      31A     -0.760507    32A     -0.739430    33A     -0.706323
      34A     -0.685353    35A     -0.668077    36A     -0.653146
      37A     -0.527602    38A     -0.307474    39A     -0.250885
      40A     -0.220102    41A     -0.195057    42A     -0.163875
      43A     -0.138143    44A     -0.107196    45A     -0.092759
      46A     -0.078437    47A     -0.062319    48A     -0.050344
      49A     -0.034618    50A     -0.024697    51A     -0.012068
      52A     -0.009258    53A      0.009976    54A      0.011575
      55A      0.022526    56A      0.034955    57A      0.048878
      58A      0.055945    59A      0.062908    60A      0.081812
      61A      0.096548    62A      0.102092    63A      0.107498
      64A      0.109305    65A      0.126270    66A      0.136341
      67A      0.148634    68A      0.157344    69A      0.177279

  @DF-RHF Final Energy: -1810.67535323759512

   => Energetics <=

    Nuclear Repulsion Energy =           1428.0941631217613121
    One-Electron Energy =               -5431.3993281571101761
    Two-Electron Energy =                2192.6298117977539732
    Total Energy =                      -1810.6753532375951181
  Basis Set: (AUG-CC-PVTZ AUX)
    Blend: AUG-CC-PVTZ-RI
    Molecular point group: c1

    Geometry (in Angstrom), charge = -4, multiplicity = 1:

       Center              X                  Y                   Z               Mass
    ------------   -----------------  -----------------  -----------------  -----------------
         P           -2.572404800904    -0.225120601974     0.366256914470    30.973761998420
         P            0.304356199096    -0.576226601974    -0.363874085530    30.973761998420
         P            3.122856199096     0.408011398026     0.150525914470    30.973761998420
         O           -2.844948800904     1.350972398026    -0.120017085530    15.994914619570
         O           -0.969134800904    -0.063787601974     0.637314914470    15.994914619570
         O           -3.237785800904    -0.440749601974     1.709864914470    15.994914619570
         O           -2.902905800904    -1.149667601974    -0.783573085530    15.994914619570
         O            1.437703199096     0.103987398026     0.567343914470    15.994914619570
         O            0.160560199096     0.104769398026    -1.709847085530    15.994914619570
         O            0.350554199096    -2.089744601974    -0.292394085530    15.994914619570
         O            3.480630199096    -0.664242601974    -0.888502085530    15.994914619570
         O            3.112210199096     1.848444398026    -0.379253085530    15.994914619570
         O            3.760282599096     0.235560298026     1.481365414470    15.994914619570
         C           -4.192036800904     1.608779398026    -0.530204085530    12.000000000000
         H           -4.481362800904     0.950758398026    -1.354580085530     1.007825032230
         H           -4.890792800904     1.466926398026     0.301019914470     1.007825032230
         H           -4.236233800904     2.647856398026    -0.860881085530     1.007825032230

  Basis Set: AUG-CC-PVTZ
    Blend: AUG-CC-PVTZ
  Basis Set: (AUG-CC-PVTZ AUX)
    Blend: AUG-CC-PVTZ-JKFIT
	 Reference Energy          =   -1810.6753532375951181 [Eh]
	 Singles Energy            =      -0.0000000000000000 [Eh]
	 Same-Spin Energy          =      -0.9115460032428915 [Eh]
	 Opposite-Spin Energy      =      -2.5229972396688440 [Eh]
	 Correlation Energy        =      -3.4345432429117357 [Eh]
	 Total Energy              =   -1814.1098964805069045 [Eh]

	 ================> DF-SCS-MP2 Energies <==================
	-----------------------------------------------------------
	 SCS Same-Spin Scale       =       0.3333333333333333 [-]
	 SCS Opposite-Spin Scale   =       1.2000000000000000 [-]
	 SCS Same-Spin Energy      =      -0.3038486677476305 [Eh]
	 SCS Opposite-Spin Energy  =      -3.0275966876026126 [Eh]
	 SCS Correlation Energy    =      -3.3314453553502430 [Eh]
	 SCS Total Energy          =   -1814.0067985929454153 [Eh]
	-----------------------------------------------------------

  Dipole Moment: [D]
     X:   -14.7447      Y:     2.6823      Z:     0.3719     Total:    14.9914

*** Psi4 exiting successfully. Buy a developer a beer!
