                               Psi4 1.3.2 release

  ==> Input File <==

--------------------------------------------------------------------------
#psi4
#
memory 32 gb

molecule  {
-4 1
  P        2.5828670     0.0826120    -0.3559070
  P       -0.1833470    -1.1435920     0.2927960
  P       -2.7088530     0.4754690    -0.2006980
  O        1.9534540     1.6068400    -0.1842610
  O        1.3362068    -0.8624460    -0.5948145
  O        3.2679280     0.0927970    -1.6978490
  O        3.3289310    -0.2934220     0.9022790
  O       -0.9881700     0.1612780    -0.2225170
  O        0.0932830    -1.0798150     1.7822090
  O       -0.7150640    -2.4305380    -0.3003910
  O       -3.2327710    -0.2685190     1.0414150
  O       -2.7128520     2.0086770    -0.0959300
  O       -3.2113930    -0.0752120    -1.5473660
  C        1.4216660     1.9681570     1.1052990
  H        1.0169430     1.1016800     1.6278780
  H        2.2027140     2.4392170     1.7103290
  H        0.6160650     2.6819120     0.9264900
units angstrom
no_reorient  #important for SAPT in psi4, default
symmetry c1  #important for SAPT in psi4, default
}

set PROPERTIES_ORIGIN ["COM"]
properties('MP2/aug-cc-pvtz', properties = ['dipole'])
--------------------------------------------------------------------------

    Molecular point group: c1
  Charge       = -4
  Multiplicity = 1
  Basis Set: AUG-CC-PVTZ
    Blend: AUG-CC-PVTZ
  Basis Set: (AUG-CC-PVTZ AUX)
    Blend: AUG-CC-PVTZ-JKFIT

    Orbital Energies [Eh]
    ---------------------

    Doubly Occupied:

       1A    -79.555081     2A    -79.541793     3A    -79.484638
       4A    -20.079535     5A    -20.035742     6A    -20.002050
       7A    -19.993630     8A    -19.987319     9A    -19.961542
      10A    -19.957092    11A    -19.927532    12A    -19.923122
      13A    -19.921814    14A    -10.809453    15A     -7.070678
      16A     -7.053773    17A     -6.998168    18A     -4.969577
      19A     -4.968799    20A     -4.967786    21A     -4.952936
      22A     -4.951530    23A     -4.950594    24A     -4.897677
      25A     -4.895391    26A     -4.895249    27A     -0.898610
      28A     -0.842415    29A     -0.810344    30A     -0.771877
      31A     -0.751520    32A     -0.745222    33A     -0.720059
      34A     -0.709473    35A     -0.667263    36A     -0.663259
      37A     -0.463610    38A     -0.285321    39A     -0.234728
      40A     -0.182419    41A     -0.162168    42A     -0.144569
      43A     -0.123543    44A     -0.101364    45A     -0.080019
      46A     -0.067005    47A     -0.050746    48A     -0.045955
      49A     -0.034869    50A     -0.017085    51A     -0.003671
      52A     -0.000588    53A      0.009124    54A      0.017874
      55A      0.020780    56A      0.038943    57A      0.046458
      58A      0.060374    59A      0.066818    60A      0.075639
      61A      0.087745    62A      0.094781    63A      0.097830
      64A      0.099119    65A      0.105161    66A      0.116129
      67A      0.140137    68A      0.145754    69A      0.168117

  @DF-RHF Final Energy: -1810.68528156122807

   => Energetics <=

    Nuclear Repulsion Energy =           1461.5275585377837615
    One-Electron Energy =               -5498.5468497885331089
    Two-Electron Energy =                2226.3340096895208262
    Total Energy =                      -1810.6852815612282939
  Basis Set: (AUG-CC-PVTZ AUX)
    Blend: AUG-CC-PVTZ-RI
    Molecular point group: c1

    Geometry (in Angstrom), charge = -4, multiplicity = 1:

       Center              X                  Y                   Z               Mass
    ------------   -----------------  -----------------  -----------------  -----------------
         P            2.593088045677     0.106823272969    -0.336196046509    30.973761998420
         P           -0.173125954323    -1.119380727031     0.312506953491    30.973761998420
         P           -2.698631954323     0.499680272969    -0.180987046509    30.973761998420
         O            1.963675045677     1.631051272969    -0.164550046509    15.994914619570
         O            1.346427845677    -0.838234727031    -0.575103546509    15.994914619570
         O            3.278149045677     0.117008272969    -1.678138046509    15.994914619570
         O            3.339152045677    -0.269210727031     0.921989953491    15.994914619570
         O           -0.977948954323     0.185489272969    -0.202806046509    15.994914619570
         O            0.103504045677    -1.055603727031     1.801919953491    15.994914619570
         O           -0.704842954323    -2.406326727031    -0.280680046509    15.994914619570
         O           -3.222549954323    -0.244307727031     1.061125953491    15.994914619570
         O           -2.702630954323     2.032888272969    -0.076219046509    15.994914619570
         O           -3.201171954323    -0.051000727031    -1.527655046509    15.994914619570
         C            1.431887045677     1.992368272969     1.125009953491    12.000000000000
         H            1.027164045677     1.125891272969     1.647588953491     1.007825032230
         H            2.212935045677     2.463428272969     1.730039953491     1.007825032230
         H            0.626286045677     2.706123272969     0.946200953491     1.007825032230

  Basis Set: AUG-CC-PVTZ
    Blend: AUG-CC-PVTZ
  Basis Set: (AUG-CC-PVTZ AUX)
    Blend: AUG-CC-PVTZ-JKFIT
	 Reference Energy          =   -1810.6852815612280665 [Eh]
	 Singles Energy            =      -0.0000000000000000 [Eh]
	 Same-Spin Energy          =      -0.9133052523536621 [Eh]
	 Opposite-Spin Energy      =      -2.5264968528447964 [Eh]
	 Correlation Energy        =      -3.4398021051984586 [Eh]
	 Total Energy              =   -1814.1250836664264625 [Eh]

	 ================> DF-SCS-MP2 Energies <==================
	-----------------------------------------------------------
	 SCS Same-Spin Scale       =       0.3333333333333333 [-]
	 SCS Opposite-Spin Scale   =       1.2000000000000000 [-]
	 SCS Same-Spin Energy      =      -0.3044350841178873 [Eh]
	 SCS Opposite-Spin Energy  =      -3.0317962234137554 [Eh]
	 SCS Correlation Energy    =      -3.3362313075316425 [Eh]
	 SCS Total Energy          =   -1814.0215128687596007 [Eh]
	-----------------------------------------------------------

  Dipole Moment: [D]
     X:     8.1993      Y:     1.9938      Z:     1.8784     Total:     8.6448

*** Psi4 exiting successfully. Buy a developer a beer!
