                               Psi4 1.4a3.dev225

  ==> Input File <==

--------------------------------------------------------------------------
#psi4
#
memory 32 gb

molecule  {
-4 1
  P       -2.5202440    -0.2449420     0.3712220
  P        0.3565170    -0.5960480    -0.3589090
  P        3.1750170     0.3881900     0.1554910
  O       -2.7960485     1.3500064    -0.1208695
  O       -0.9169740    -0.0836090     0.6422800
  O       -3.1856250    -0.4605710     1.7148300
  O       -2.8507450    -1.1694890    -0.7786080
  O        1.4898640     0.0841660     0.5723090
  O        0.2127210     0.0849480    -1.7048820
  O        0.4027150    -2.1095660    -0.2874290
  O        3.5327910    -0.6840640    -0.8835370
  O        3.1643710     1.8286230    -0.3742880
  O        3.8338960     0.2099350     1.5311200
  C       -4.1398760     1.5889580    -0.5252390
  H       -4.4292020     0.9309370    -1.3496150
  H       -4.8386320     1.4471050     0.3059850
  H       -4.1840730     2.6280350    -0.8559160
units angstrom
no_reorient  #important for SAPT in psi4, default
symmetry c1  #important for SAPT in psi4, default
}

set PROPERTIES_ORIGIN ["COM"]
properties('MP2/aug-cc-pvtz', properties = ['dipole'])
--------------------------------------------------------------------------

    Molecular point group: c1
  Charge       = -4
  Multiplicity = 1
  Basis Set: AUG-CC-PVTZ
    Blend: AUG-CC-PVTZ
  Basis Set: (AUG-CC-PVTZ AUX)
    Blend: AUG-CC-PVTZ-JKFIT

    Orbital Energies [Eh]
    ---------------------

    Doubly Occupied:

       1A    -79.583102     2A    -79.517788     3A    -79.475681
       4A    -20.118408     5A    -20.043170     6A    -20.016886
       7A    -20.006903     8A    -19.984696     9A    -19.937518
      10A    -19.935663    11A    -19.922193    12A    -19.917227
      13A    -19.913444    14A    -10.881045    15A     -7.097116
      16A     -7.030859    17A     -6.989440    18A     -4.996228
      19A     -4.994927    20A     -4.994049    21A     -4.930266
      22A     -4.928673    23A     -4.927532    24A     -4.888837
      25A     -4.886726    26A     -4.886597    27A     -0.929082
      28A     -0.854918    29A     -0.808286    30A     -0.778622
      31A     -0.762739    32A     -0.736950    33A     -0.706316
      34A     -0.687464    35A     -0.662192    36A     -0.657488
      37A     -0.524776    38A     -0.308452    39A     -0.252003
      40A     -0.219876    41A     -0.194465    42A     -0.166025
      43A     -0.140288    44A     -0.107987    45A     -0.094132
      46A     -0.079717    47A     -0.062866    48A     -0.051937
      49A     -0.035493    50A     -0.024714    51A     -0.012846
      52A     -0.010263    53A      0.008588    54A      0.011325
      55A      0.022630    56A      0.033071    57A      0.046538
      58A      0.054357    59A      0.060587    60A      0.080559
      61A      0.097033    62A      0.103132    63A      0.106790
      64A      0.107780    65A      0.124360    66A      0.134872
      67A      0.147731    68A      0.154087    69A      0.174318

  @DF-RHF Final Energy: -1810.67526153409995

   => Energetics <=

    Nuclear Repulsion Energy =           1424.9337823518717414
    One-Electron Energy =               -5424.8038636451592538
    Two-Electron Energy =                2189.1948197591877943
    Total Energy =                      -1810.6752615340997181
  Basis Set: (AUG-CC-PVTZ AUX)
    Blend: AUG-CC-PVTZ-RI
    Molecular point group: c1

    Geometry (in Angstrom), charge = -4, multiplicity = 1:

       Center              X                  Y                   Z               Mass
    ------------   -----------------  -----------------  -----------------  -----------------
         P           -2.573490981210    -0.225899856830     0.363930046275    30.973761998420
         P            0.303270018790    -0.577005856830    -0.366200953725    30.973761998420
         P            3.121770018790     0.407232143170     0.148199046275    30.973761998420
         O           -2.849295481210     1.369048543170    -0.128161453725    15.994914619570
         O           -0.970220981210    -0.064566856830     0.634988046275    15.994914619570
         O           -3.238871981210    -0.441528856830     1.707538046275    15.994914619570
         O           -2.903991981210    -1.150446856830    -0.785899953725    15.994914619570
         O            1.436617018790     0.103208143170     0.565017046275    15.994914619570
         O            0.159474018790     0.103990143170    -1.712173953725    15.994914619570
         O            0.349468018790    -2.090523856830    -0.294720953725    15.994914619570
         O            3.479544018790    -0.665021856830    -0.890828953725    15.994914619570
         O            3.111124018790     1.847665143170    -0.381579953725    15.994914619570
         O            3.780649018790     0.228977143170     1.523828046275    15.994914619570
         C           -4.193122981210     1.608000143170    -0.532530953725    12.000000000000
         H           -4.482448981210     0.949979143170    -1.356906953725     1.007825032230
         H           -4.891878981210     1.466147143170     0.298693046275     1.007825032230
         H           -4.237319981210     2.647077143170    -0.863207953725     1.007825032230

  Basis Set: AUG-CC-PVTZ
    Blend: AUG-CC-PVTZ
  Basis Set: (AUG-CC-PVTZ AUX)
    Blend: AUG-CC-PVTZ-JKFIT
	 Reference Energy          =   -1810.6752615340999455 [Eh]
	 Singles Energy            =      -0.0000000000000000 [Eh]
	 Same-Spin Energy          =      -0.9125789309058150 [Eh]
	 Opposite-Spin Energy      =      -2.5257265574705463 [Eh]
	 Correlation Energy        =      -3.4383054883763613 [Eh]
	 Total Energy              =   -1814.1135670224762180 [Eh]

	 ================> DF-SCS-MP2 Energies <==================
	-----------------------------------------------------------
	 SCS Same-Spin Scale       =       0.3333333333333333 [-]
	 SCS Opposite-Spin Scale   =       1.2000000000000000 [-]
	 SCS Same-Spin Energy      =      -0.3041929769686050 [Eh]
	 SCS Opposite-Spin Energy  =      -3.0308718689646557 [Eh]
	 SCS Correlation Energy    =      -3.3350648459332608 [Eh]
	 SCS Total Energy          =   -1814.0103263800331206 [Eh]
	-----------------------------------------------------------

  Dipole Moment: [D]
     X:   -14.9118      Y:     2.6049      Z:     0.0429     Total:    15.1377

*** Psi4 exiting successfully. Buy a developer a beer!
