                               Psi4 1.4a3.dev225

  ==> Input File <==

--------------------------------------------------------------------------
#psi4
#
memory 32 gb

molecule  {
-4 1
  P       -2.5202440    -0.2449420     0.3712220
  P        0.3565170    -0.5960480    -0.3589090
  P        3.1750170     0.3881900     0.1554910
  O       -2.7927880     1.3311510    -0.1150520
  O       -0.9169740    -0.0836090     0.6422800
  O       -3.1856250    -0.4605710     1.7148300
  O       -2.8507450    -1.1694890    -0.7786080
  O        1.4898640     0.0841660     0.5723090
  O        0.2127210     0.0849480    -1.7048820
  O        0.4042388    -2.1594871    -0.2850713
  O        3.5327910    -0.6840640    -0.8835370
  O        3.1643710     1.8286230    -0.3742880
  O        3.8338960     0.2099350     1.5311200
  C       -4.1398760     1.5889580    -0.5252390
  H       -4.4292020     0.9309370    -1.3496150
  H       -4.8386320     1.4471050     0.3059850
  H       -4.1840730     2.6280350    -0.8559160
units angstrom
no_reorient  #important for SAPT in psi4, default
symmetry c1  #important for SAPT in psi4, default
}

set PROPERTIES_ORIGIN ["COM"]
properties('MP2/aug-cc-pvtz', properties = ['dipole'])
--------------------------------------------------------------------------

    Molecular point group: c1
  Charge       = -4
  Multiplicity = 1
  Basis Set: AUG-CC-PVTZ
    Blend: AUG-CC-PVTZ
  Basis Set: (AUG-CC-PVTZ AUX)
    Blend: AUG-CC-PVTZ-JKFIT

    Orbital Energies [Eh]
    ---------------------

    Doubly Occupied:

       1A    -79.582007     2A    -79.526292     3A    -79.476768
       4A    -20.120184     5A    -20.045138     6A    -20.015900
       7A    -20.005680     8A    -19.988115     9A    -19.939895
      10A    -19.939078    11A    -19.922969    12A    -19.918361
      13A    -19.914038    14A    -10.884233    15A     -7.096285
      16A     -7.037793    17A     -6.990548    18A     -4.995427
      19A     -4.994135    20A     -4.993198    21A     -4.937314
      22A     -4.935698    23A     -4.934253    24A     -4.889960
      25A     -4.887816    26A     -4.887689    27A     -0.932459
      28A     -0.854905    29A     -0.807552    30A     -0.779916
      31A     -0.761968    32A     -0.734179    33A     -0.706027
      34A     -0.677384    35A     -0.663072    36A     -0.658270
      37A     -0.529096    38A     -0.310619    39A     -0.254267
      40A     -0.221590    41A     -0.197915    42A     -0.166629
      43A     -0.141406    44A     -0.109963    45A     -0.095246
      46A     -0.080194    47A     -0.063735    48A     -0.053161
      49A     -0.035435    50A     -0.026291    51A     -0.013911
      52A     -0.009989    53A      0.008557    54A      0.011898
      55A      0.022713    56A      0.033893    57A      0.047452
      58A      0.056510    59A      0.061972    60A      0.083456
      61A      0.096635    62A      0.102557    63A      0.105997
      64A      0.109000    65A      0.126482    66A      0.136016
      67A      0.146897    68A      0.153157    69A      0.173530

  @DF-RHF Final Energy: -1810.66995713416577

   => Energetics <=

    Nuclear Repulsion Energy =           1423.1010704731834267
    One-Electron Energy =               -5421.0075868016201639
    Two-Electron Energy =                2187.2365591942711944
    Total Energy =                      -1810.6699571341655428
  Basis Set: (AUG-CC-PVTZ AUX)
    Blend: AUG-CC-PVTZ-RI
    Molecular point group: c1

    Geometry (in Angstrom), charge = -4, multiplicity = 1:

       Center              X                  Y                   Z               Mass
    ------------   -----------------  -----------------  -----------------  -----------------
         P           -2.573776633358    -0.221793476597     0.363441936532    30.973761998420
         P            0.302984366642    -0.572899476597    -0.366689063468    30.973761998420
         P            3.121484366642     0.411338523403     0.147710936532    30.973761998420
         O           -2.846320633358     1.354299523403    -0.122832063468    15.994914619570
         O           -0.970506633358    -0.060460476597     0.634499936532    15.994914619570
         O           -3.239157633358    -0.437422476597     1.707049936532    15.994914619570
         O           -2.904277633358    -1.146340476597    -0.786388063468    15.994914619570
         O            1.436331366642     0.107314523403     0.564528936532    15.994914619570
         O            0.159188366642     0.108096523403    -1.712662063468    15.994914619570
         O            0.350706166642    -2.136338576597    -0.292851363468    15.994914619570
         O            3.479258366642    -0.660915476597    -0.891317063468    15.994914619570
         O            3.110838366642     1.851771523403    -0.382068063468    15.994914619570
         O            3.780363366642     0.233083523403     1.523339936532    15.994914619570
         C           -4.193408633358     1.612106523403    -0.533019063468    12.000000000000
         H           -4.482734633358     0.954085523403    -1.357395063468     1.007825032230
         H           -4.892164633358     1.470253523403     0.298204936532     1.007825032230
         H           -4.237605633358     2.651183523403    -0.863696063468     1.007825032230

  Basis Set: AUG-CC-PVTZ
    Blend: AUG-CC-PVTZ
  Basis Set: (AUG-CC-PVTZ AUX)
    Blend: AUG-CC-PVTZ-JKFIT
	 Reference Energy          =   -1810.6699571341657702 [Eh]
	 Singles Energy            =      -0.0000000000000000 [Eh]
	 Same-Spin Energy          =      -0.9132929727102728 [Eh]
	 Opposite-Spin Energy      =      -2.5276184516900790 [Eh]
	 Correlation Energy        =      -3.4409114244003520 [Eh]
	 Total Energy              =   -1814.1108685585661533 [Eh]

	 ================> DF-SCS-MP2 Energies <==================
	-----------------------------------------------------------
	 SCS Same-Spin Scale       =       0.3333333333333333 [-]
	 SCS Opposite-Spin Scale   =       1.2000000000000000 [-]
	 SCS Same-Spin Energy      =      -0.3044309909034242 [Eh]
	 SCS Opposite-Spin Energy  =      -3.0331421420280948 [Eh]
	 SCS Correlation Energy    =      -3.3375731329315190 [Eh]
	 SCS Total Energy          =   -1814.0075302670973088 [Eh]
	-----------------------------------------------------------

  Dipole Moment: [D]
     X:   -14.9832      Y:     3.0377      Z:    -0.0123     Total:    15.2880

*** Psi4 exiting successfully. Buy a developer a beer!
