                               Psi4 1.3.2 release

  ==> Input File <==

--------------------------------------------------------------------------
#psi4
#
memory 32 gb

molecule  {
-4 1
  P        2.5828670     0.0826120    -0.3559070
  P       -0.1833470    -1.1435920     0.2927960
  P       -2.7088530     0.4754690    -0.2006980
  O        1.9534540     1.6068400    -0.1842610
  O        1.2509400    -0.8782220    -0.5450080
  O        3.2679280     0.0927970    -1.6978490
  O        3.3289310    -0.2934220     0.9022790
  O       -0.9881700     0.1612780    -0.2225170
  O        0.0932830    -1.0798150     1.7822090
  O       -0.7501945    -2.5155665    -0.3395829
  O       -3.2327710    -0.2685190     1.0414150
  O       -2.7128520     2.0086770    -0.0959300
  O       -3.2113930    -0.0752120    -1.5473660
  C        1.4216660     1.9681570     1.1052990
  H        1.0169430     1.1016800     1.6278780
  H        2.2027140     2.4392170     1.7103290
  H        0.6160650     2.6819120     0.9264900
units angstrom
no_reorient  #important for SAPT in psi4, default
symmetry c1  #important for SAPT in psi4, default
}

set PROPERTIES_ORIGIN ["COM"]
properties('MP2/aug-cc-pvtz', properties = ['dipole'])
--------------------------------------------------------------------------

    Molecular point group: c1
  Charge       = -4
  Multiplicity = 1
  Basis Set: AUG-CC-PVTZ
    Blend: AUG-CC-PVTZ
  Basis Set: (AUG-CC-PVTZ AUX)
    Blend: AUG-CC-PVTZ-JKFIT

    Orbital Energies [Eh]
    ---------------------

    Doubly Occupied:

       1A    -79.576171     2A    -79.544087     3A    -79.482043
       4A    -20.088712     5A    -20.044466     6A    -20.005700
       7A    -20.005139     8A    -20.000643     9A    -19.958892
      10A    -19.949772    11A    -19.926079    12A    -19.920177
      13A    -19.919028    14A    -10.814658    15A     -7.089960
      16A     -7.054313    17A     -6.995594    18A     -4.988908
      19A     -4.987985    20A     -4.987119    21A     -4.953759
      22A     -4.952293    23A     -4.950918    24A     -4.895093
      25A     -4.892836    26A     -4.892673    27A     -0.905177
      28A     -0.848063    29A     -0.809297    30A     -0.781929
      31A     -0.760323    32A     -0.740898    33A     -0.717129
      34A     -0.674410    35A     -0.665236    36A     -0.660382
      37A     -0.469787    38A     -0.299807    39A     -0.239017
      40A     -0.187566    41A     -0.167163    42A     -0.151757
      43A     -0.129266    44A     -0.101056    45A     -0.085996
      46A     -0.066995    47A     -0.054257    48A     -0.046789
      49A     -0.034300    50A     -0.017218    51A     -0.009964
      52A     -0.001155    53A      0.008629    54A      0.014075
      55A      0.021893    56A      0.034751    57A      0.048710
      58A      0.051134    59A      0.065744    60A      0.075176
      61A      0.090610    62A      0.098980    63A      0.100944
      64A      0.102089    65A      0.120269    66A      0.128936
      67A      0.142499    68A      0.148499    69A      0.170606

  @DF-RHF Final Energy: -1810.67489745346256

   => Energetics <=

    Nuclear Repulsion Energy =           1457.8314957481134115
    One-Electron Energy =               -5490.8559631952248310
    Two-Electron Energy =                2222.3495699936488563
    Total Energy =                      -1810.6748974534625631
  Basis Set: (AUG-CC-PVTZ AUX)
    Blend: AUG-CC-PVTZ-RI
    Molecular point group: c1

    Geometry (in Angstrom), charge = -4, multiplicity = 1:

       Center              X                  Y                   Z               Mass
    ------------   -----------------  -----------------  -----------------  -----------------
         P            2.600276505293     0.112841921870    -0.336829803441    30.973761998420
         P           -0.165937494707    -1.113362078130     0.311873196559    30.973761998420
         P           -2.691443494707     0.505698921870    -0.181620803441    30.973761998420
         O            1.970863505293     1.637069921870    -0.165183803441    15.994914619570
         O            1.268349505293    -0.847992078130    -0.525930803441    15.994914619570
         O            3.285337505293     0.123026921870    -1.678771803441    15.994914619570
         O            3.346340505293    -0.263192078130     0.921356196559    15.994914619570
         O           -0.970760494707     0.191507921870    -0.203439803441    15.994914619570
         O            0.110692505293    -1.049585078130     1.801286196559    15.994914619570
         O           -0.732784994707    -2.485336578130    -0.320505703441    15.994914619570
         O           -3.215361494707    -0.238289078130     1.060492196559    15.994914619570
         O           -2.695442494707     2.038906921870    -0.076852803441    15.994914619570
         O           -3.193983494707    -0.044982078130    -1.528288803441    15.994914619570
         C            1.439075505293     1.998386921870     1.124376196559    12.000000000000
         H            1.034352505293     1.131909921870     1.646955196559     1.007825032230
         H            2.220123505293     2.469446921870     1.729406196559     1.007825032230
         H            0.633474505293     2.712141921870     0.945567196559     1.007825032230

  Basis Set: AUG-CC-PVTZ
    Blend: AUG-CC-PVTZ
  Basis Set: (AUG-CC-PVTZ AUX)
    Blend: AUG-CC-PVTZ-JKFIT
	 Reference Energy          =   -1810.6748974534625631 [Eh]
	 Singles Energy            =      -0.0000000000000000 [Eh]
	 Same-Spin Energy          =      -0.9147681603522611 [Eh]
	 Opposite-Spin Energy      =      -2.5304616030880838 [Eh]
	 Correlation Energy        =      -3.4452297634403450 [Eh]
	 Total Energy              =   -1814.1201272169028016 [Eh]

	 ================> DF-SCS-MP2 Energies <==================
	-----------------------------------------------------------
	 SCS Same-Spin Scale       =       0.3333333333333333 [-]
	 SCS Opposite-Spin Scale   =       1.2000000000000000 [-]
	 SCS Same-Spin Energy      =      -0.3049227201174203 [Eh]
	 SCS Opposite-Spin Energy  =      -3.0365539237057004 [Eh]
	 SCS Correlation Energy    =      -3.3414766438231207 [Eh]
	 SCS Total Energy          =   -1814.0163740972857340 [Eh]
	-----------------------------------------------------------

  Dipole Moment: [D]
     X:     9.4349      Y:     2.9840      Z:     1.8254     Total:    10.0625

*** Psi4 exiting successfully. Buy a developer a beer!
