                               Psi4 1.3.2 release

  ==> Input File <==

--------------------------------------------------------------------------
#psi4
#
memory 32 gb

molecule  {
-4 1
  P        2.6009196     0.1018507    -0.4386022
  P       -0.1833470    -1.1435920     0.2927960
  P       -2.7088530     0.4754690    -0.2006980
  O        1.9534540     1.6068400    -0.1842610
  O        1.2509400    -0.8782220    -0.5450080
  O        3.2679280     0.0927970    -1.6978490
  O        3.3289310    -0.2934220     0.9022790
  O       -0.9881700     0.1612780    -0.2225170
  O        0.0932830    -1.0798150     1.7822090
  O       -0.7150640    -2.4305380    -0.3003910
  O       -3.2327710    -0.2685190     1.0414150
  O       -2.7128520     2.0086770    -0.0959300
  O       -3.2113930    -0.0752120    -1.5473660
  C        1.4046394     2.0360075     1.0770602
  H        1.0169430     1.1016800     1.6278780
  H        2.2027140     2.4392170     1.7103290
  H        0.6160650     2.6819120     0.9264900
units angstrom
no_reorient  #important for SAPT in psi4, default
symmetry c1  #important for SAPT in psi4, default
}

set PROPERTIES_ORIGIN ["COM"]
properties('MP2/aug-cc-pvtz', properties = ['dipole'])
--------------------------------------------------------------------------

    Molecular point group: c1
  Charge       = -4
  Multiplicity = 1
  Basis Set: AUG-CC-PVTZ
    Blend: AUG-CC-PVTZ
  Basis Set: (AUG-CC-PVTZ AUX)
    Blend: AUG-CC-PVTZ-JKFIT

    Orbital Energies [Eh]
    ---------------------

    Doubly Occupied:

       1A    -79.571999     2A    -79.523506     3A    -79.478709
       4A    -20.081216     5A    -20.031418     6A    -20.019602
       7A    -19.991093     8A    -19.990503     9A    -19.945337
      10A    -19.942526    11A    -19.923255    12A    -19.918399
      13A    -19.916063    14A    -10.810278    15A     -7.087005
      16A     -7.036291    17A     -6.992206    18A     -4.985808
      19A     -4.985337    20A     -4.983884    21A     -4.935575
      22A     -4.934210    23A     -4.933248    24A     -4.891655
      25A     -4.889496    26A     -4.889341    27A     -0.901712
      28A     -0.842186    29A     -0.826182    30A     -0.783053
      31A     -0.742423    32A     -0.730584    33A     -0.711246
      34A     -0.695779    35A     -0.662640    36A     -0.657962
      37A     -0.469183    38A     -0.289017    39A     -0.230301
      40A     -0.184201    41A     -0.163697    42A     -0.153994
      43A     -0.127534    44A     -0.098604    45A     -0.087396
      46A     -0.060890    47A     -0.054786    48A     -0.034393
      49A     -0.027733    50A     -0.017007    51A     -0.008987
      52A     -0.000553    53A      0.005813    54A      0.017522
      55A      0.020534    56A      0.030739    57A      0.049691
      58A      0.069551    59A      0.072314    60A      0.077610
      61A      0.093286    62A      0.101997    63A      0.103963
      64A      0.105711    65A      0.117781    66A      0.128898
      67A      0.145668    68A      0.151825    69A      0.172994

  @DF-RHF Final Energy: -1810.66854997733913

   => Energetics <=

    Nuclear Repulsion Energy =           1460.5966053268275573
    One-Electron Energy =               -5496.9621017170456980
    Two-Electron Energy =                2225.6969464128787877
    Total Energy =                      -1810.6685499773393531
  Basis Set: (AUG-CC-PVTZ AUX)
    Blend: AUG-CC-PVTZ-RI
    Molecular point group: c1

    Geometry (in Angstrom), charge = -4, multiplicity = 1:

       Center              X                  Y                   Z               Mass
    ------------   -----------------  -----------------  -----------------  -----------------
         P            2.614907052537     0.121740242947    -0.411038897983    30.973761998420
         P           -0.169359547463    -1.123702457053     0.320359302017    30.973761998420
         P           -2.694865547463     0.495358542947    -0.173134697983    30.973761998420
         O            1.967441452537     1.626729542947    -0.156697697983    15.994914619570
         O            1.264927452537    -0.858332457053    -0.517444697983    15.994914619570
         O            3.281915452537     0.112686542947    -1.670285697983    15.994914619570
         O            3.342918452537    -0.273532457053     0.929842302017    15.994914619570
         O           -0.974182547463     0.181167542947    -0.194953697983    15.994914619570
         O            0.107270452537    -1.059925457053     1.809772302017    15.994914619570
         O           -0.701076547463    -2.410648457053    -0.272827697983    15.994914619570
         O           -3.218783547463    -0.248629457053     1.068978302017    15.994914619570
         O           -2.698864547463     2.028566542947    -0.068366697983    15.994914619570
         O           -3.197405547463    -0.055322457053    -1.519802697983    15.994914619570
         C            1.418626852537     2.055897042947     1.104623502017    12.000000000000
         H            1.030930452537     1.121569542947     1.655441302017     1.007825032230
         H            2.216701452537     2.459106542947     1.737892302017     1.007825032230
         H            0.630052452537     2.701801542947     0.954053302017     1.007825032230

  Basis Set: AUG-CC-PVTZ
    Blend: AUG-CC-PVTZ
  Basis Set: (AUG-CC-PVTZ AUX)
    Blend: AUG-CC-PVTZ-JKFIT
	 Reference Energy          =   -1810.6685499773391257 [Eh]
	 Singles Energy            =      -0.0000000000000000 [Eh]
	 Same-Spin Energy          =      -0.9128655408189255 [Eh]
	 Opposite-Spin Energy      =      -2.5253022071337021 [Eh]
	 Correlation Energy        =      -3.4381677479526278 [Eh]
	 Total Energy              =   -1814.1067177252916736 [Eh]

	 ================> DF-SCS-MP2 Energies <==================
	-----------------------------------------------------------
	 SCS Same-Spin Scale       =       0.3333333333333333 [-]
	 SCS Opposite-Spin Scale   =       1.2000000000000000 [-]
	 SCS Same-Spin Energy      =      -0.3042885136063085 [Eh]
	 SCS Opposite-Spin Energy  =      -3.0303626485604425 [Eh]
	 SCS Correlation Energy    =      -3.3346511621667512 [Eh]
	 SCS Total Energy          =   -1814.0032011395057907 [Eh]
	-----------------------------------------------------------

  Dipole Moment: [D]
     X:     9.4799      Y:     2.6493      Z:     0.4805     Total:     9.8548

*** Psi4 exiting successfully. Buy a developer a beer!
