                               Psi4 1.3.2 release

  ==> Input File <==

--------------------------------------------------------------------------
#psi4
#
memory 32 gb

molecule  {
-4 1
  P        2.5828670     0.0826120    -0.3559070
  P       -0.1833470    -1.1435920     0.2927960
  P       -2.7088530     0.4754690    -0.2006980
  O        1.9534540     1.6068400    -0.1842610
  O        1.2623867    -0.8049172    -0.4975644
  O        3.2679280     0.0927970    -1.6978490
  O        3.3289310    -0.2934220     0.9022790
  O       -0.9881700     0.1612780    -0.2225170
  O        0.0932830    -1.0798150     1.7822090
  O       -0.7770506    -2.4251020    -0.2513288
  O       -3.2327710    -0.2685190     1.0414150
  O       -2.7128520     2.0086770    -0.0959300
  O       -3.2113930    -0.0752120    -1.5473660
  C        1.4216660     1.9681570     1.1052990
  H        1.0169430     1.1016800     1.6278780
  H        2.2027140     2.4392170     1.7103290
  H        0.6160650     2.6819120     0.9264900
units angstrom
no_reorient  #important for SAPT in psi4, default
symmetry c1  #important for SAPT in psi4, default
}

set PROPERTIES_ORIGIN ["COM"]
properties('MP2/aug-cc-pvtz', properties = ['dipole'])
--------------------------------------------------------------------------

    Molecular point group: c1
  Charge       = -4
  Multiplicity = 1
  Basis Set: AUG-CC-PVTZ
    Blend: AUG-CC-PVTZ
  Basis Set: (AUG-CC-PVTZ AUX)
    Blend: AUG-CC-PVTZ-JKFIT

    Orbital Energies [Eh]
    ---------------------

    Doubly Occupied:

       1A    -79.567993     2A    -79.531309     3A    -79.479066
       4A    -20.079615     5A    -20.041128     6A    -20.001909
       7A    -19.998766     8A    -19.991979     9A    -19.952174
      10A    -19.946888    11A    -19.923215    12A    -19.918858
      13A    -19.916168    14A    -10.808612    15A     -7.082499
      16A     -7.043931    17A     -6.992571    18A     -4.981588
      19A     -4.980592    20A     -4.979663    21A     -4.943283
      22A     -4.941753    23A     -4.940879    24A     -4.892030
      25A     -4.889847    26A     -4.889701    27A     -0.904496
      28A     -0.850890    29A     -0.806674    30A     -0.779704
      31A     -0.755605    32A     -0.745680    33A     -0.713472
      34A     -0.700424    35A     -0.662732    36A     -0.658247
      37A     -0.463604    38A     -0.308313    39A     -0.232233
      40A     -0.183980    41A     -0.162702    42A     -0.146405
      43A     -0.126270    44A     -0.099916    45A     -0.088015
      46A     -0.067490    47A     -0.050981    48A     -0.045015
      49A     -0.030037    50A     -0.018185    51A     -0.007309
      52A      0.001467    53A      0.009888    54A      0.014589
      55A      0.021022    56A      0.039452    57A      0.047861
      58A      0.055981    59A      0.064937    60A      0.072195
      61A      0.087203    62A      0.100869    63A      0.102963
      64A      0.104673    65A      0.113398    66A      0.124972
      67A      0.145305    68A      0.151073    69A      0.172816

  @DF-RHF Final Energy: -1810.69045194183309

   => Energetics <=

    Nuclear Repulsion Energy =           1465.5073708276102025
    One-Electron Energy =               -5506.6081902738933422
    Two-Electron Energy =                2230.4103675044498232
    Total Energy =                      -1810.6904519418330892
  Basis Set: (AUG-CC-PVTZ AUX)
    Blend: AUG-CC-PVTZ-RI
    Molecular point group: c1

    Geometry (in Angstrom), charge = -4, multiplicity = 1:

       Center              X                  Y                   Z               Mass
    ------------   -----------------  -----------------  -----------------  -----------------
         P            2.601196541287     0.103063886986    -0.344931791081    30.973761998420
         P           -0.165017458713    -1.123140113014     0.303771208919    30.973761998420
         P           -2.690523458713     0.495920886986    -0.189722791081    30.973761998420
         O            1.971783541287     1.627291886986    -0.173285791081    15.994914619570
         O            1.280716241287    -0.784465313014    -0.486589191081    15.994914619570
         O            3.286257541287     0.113248886986    -1.686873791081    15.994914619570
         O            3.347260541287    -0.272970113014     0.913254208919    15.994914619570
         O           -0.969840458713     0.181729886986    -0.211541791081    15.994914619570
         O            0.111612541287    -1.059363113014     1.793184208919    15.994914619570
         O           -0.758721058713    -2.404650113014    -0.240353591081    15.994914619570
         O           -3.214441458713    -0.248067113014     1.052390208919    15.994914619570
         O           -2.694522458713     2.029128886986    -0.084954791081    15.994914619570
         O           -3.193063458713    -0.054760113014    -1.536390791081    15.994914619570
         C            1.439995541287     1.988608886986     1.116274208919    12.000000000000
         H            1.035272541287     1.122131886986     1.638853208919     1.007825032230
         H            2.221043541287     2.459668886986     1.721304208919     1.007825032230
         H            0.634394541287     2.702363886986     0.937465208919     1.007825032230

  Basis Set: AUG-CC-PVTZ
    Blend: AUG-CC-PVTZ
  Basis Set: (AUG-CC-PVTZ AUX)
    Blend: AUG-CC-PVTZ-JKFIT
	 Reference Energy          =   -1810.6904519418330892 [Eh]
	 Singles Energy            =      -0.0000000000000000 [Eh]
	 Same-Spin Energy          =      -0.9124485947467958 [Eh]
	 Opposite-Spin Energy      =      -2.5240100432583623 [Eh]
	 Correlation Energy        =      -3.4364586380051581 [Eh]
	 Total Energy              =   -1814.1269105798382952 [Eh]

	 ================> DF-SCS-MP2 Energies <==================
	-----------------------------------------------------------
	 SCS Same-Spin Scale       =       0.3333333333333333 [-]
	 SCS Opposite-Spin Scale   =       1.2000000000000000 [-]
	 SCS Same-Spin Energy      =      -0.3041495315822653 [Eh]
	 SCS Opposite-Spin Energy  =      -3.0288120519100348 [Eh]
	 SCS Correlation Energy    =      -3.3329615834922999 [Eh]
	 SCS Total Energy          =   -1814.0234135253253953 [Eh]
	-----------------------------------------------------------

  Dipole Moment: [D]
     X:     9.1490      Y:     2.0487      Z:     1.4123     Total:     9.4814

*** Psi4 exiting successfully. Buy a developer a beer!
