                               Psi4 1.4a3.dev225

  ==> Input File <==

--------------------------------------------------------------------------
#psi4
#
memory 32 gb

molecule  {
-4 1
  P       -2.5202440    -0.2449420     0.3712220
  P        0.3565170    -0.5960480    -0.3589090
  P        3.1750170     0.3881900     0.1554910
  O       -2.7927880     1.3311510    -0.1150520
  O       -0.9169740    -0.0836090     0.6422800
  O       -3.1856250    -0.4605710     1.7148300
  O       -2.8507450    -1.1694890    -0.7786080
  O        1.4898640     0.0841660     0.5723090
  O        0.2127210     0.0849480    -1.7048820
  O        0.4027150    -2.1095660    -0.2874290
  O        3.5327910    -0.6840640    -0.8835370
  O        3.1643710     1.8286230    -0.3742880
  O        3.8253149     0.2122565     1.5132042
  C       -4.1398760     1.5889580    -0.5252390
  H       -4.4292020     0.9309370    -1.3496150
  H       -4.8386320     1.4471050     0.3059850
  H       -4.1840730     2.6280350    -0.8559160
units angstrom
no_reorient  #important for SAPT in psi4, default
symmetry c1  #important for SAPT in psi4, default
}

set PROPERTIES_ORIGIN ["COM"]
properties('MP2/aug-cc-pvtz', properties = ['dipole'])
--------------------------------------------------------------------------

    Molecular point group: c1
  Charge       = -4
  Multiplicity = 1
  Basis Set: AUG-CC-PVTZ
    Blend: AUG-CC-PVTZ
  Basis Set: (AUG-CC-PVTZ AUX)
    Blend: AUG-CC-PVTZ-JKFIT

    Orbital Energies [Eh]
    ---------------------

    Doubly Occupied:

       1A    -79.580400     2A    -79.516404     3A    -79.471464
       4A    -20.118850     5A    -20.041311     6A    -20.014805
       7A    -20.004699     8A    -19.982876     9A    -19.936350
      10A    -19.934547    11A    -19.920661    12A    -19.915131
      13A    -19.911275    14A    -10.883178    15A     -7.094678
      16A     -7.029477    17A     -6.985925    18A     -4.993824
      19A     -4.992512    20A     -4.991609    21A     -4.928882
      22A     -4.927288    23A     -4.926159    24A     -4.885263
      25A     -4.883325    26A     -4.883008    27A     -0.931015
      28A     -0.853010    29A     -0.806630    30A     -0.778048
      31A     -0.760953    32A     -0.737429    33A     -0.705983
      34A     -0.686333    35A     -0.664829    36A     -0.655657
      37A     -0.527977    38A     -0.308134    39A     -0.251675
      40A     -0.220481    41A     -0.195870    42A     -0.164687
      43A     -0.139251    44A     -0.107842    45A     -0.093606
      46A     -0.078968    47A     -0.062688    48A     -0.051207
      49A     -0.034864    50A     -0.025140    51A     -0.012335
      52A     -0.009481    53A      0.009677    54A      0.011646
      55A      0.022829    56A      0.034590    57A      0.048389
      58A      0.055247    59A      0.062417    60A      0.081496
      61A      0.097216    62A      0.102916    63A      0.107620
      64A      0.108020    65A      0.125396    66A      0.135705
      67A      0.148183    68A      0.155499    69A      0.175585

  @DF-RHF Final Energy: -1810.67603734463978

   => Energetics <=

    Nuclear Repulsion Energy =           1426.6142340663552659
    One-Electron Energy =               -5428.3094213926451630
    Two-Electron Energy =                2191.0191499816501164
    Total Energy =                      -1810.6760373446395533
  Basis Set: (AUG-CC-PVTZ AUX)
    Blend: AUG-CC-PVTZ-RI
    Molecular point group: c1

    Geometry (in Angstrom), charge = -4, multiplicity = 1:

       Center              X                  Y                   Z               Mass
    ------------   -----------------  -----------------  -----------------  -----------------
         P           -2.573173308653    -0.224912681266     0.364652389226    30.973761998420
         P            0.303587691347    -0.576018681267    -0.365478610774    30.973761998420
         P            3.122087691347     0.408219318734     0.148921389226    30.973761998420
         O           -2.845717308653     1.351180318734    -0.121621610774    15.994914619570
         O           -0.969903308653    -0.063579681266     0.635710389226    15.994914619570
         O           -3.238554308653    -0.440541681266     1.708260389226    15.994914619570
         O           -2.903674308653    -1.149459681267    -0.785177610774    15.994914619570
         O            1.436934691347     0.104195318734     0.565739389226    15.994914619570
         O            0.159791691347     0.104977318734    -1.711451610774    15.994914619570
         O            0.349785691347    -2.089536681266    -0.293998610774    15.994914619570
         O            3.479861691347    -0.664034681266    -0.890106610774    15.994914619570
         O            3.111441691347     1.848652318733    -0.380857610774    15.994914619570
         O            3.772385591347     0.232285818734     1.506634589226    15.994914619570
         C           -4.192805308653     1.608987318734    -0.531808610774    12.000000000000
         H           -4.482131308653     0.950966318734    -1.356184610774     1.007825032230
         H           -4.891561308653     1.467134318734     0.299415389226     1.007825032230
         H           -4.237002308653     2.648064318734    -0.862485610774     1.007825032230

  Basis Set: AUG-CC-PVTZ
    Blend: AUG-CC-PVTZ
  Basis Set: (AUG-CC-PVTZ AUX)
    Blend: AUG-CC-PVTZ-JKFIT
	 Reference Energy          =   -1810.6760373446397807 [Eh]
	 Singles Energy            =      -0.0000000000000000 [Eh]
	 Same-Spin Energy          =      -0.9120481671578480 [Eh]
	 Opposite-Spin Energy      =      -2.5243369493206633 [Eh]
	 Correlation Energy        =      -3.4363851164785113 [Eh]
	 Total Energy              =   -1814.1124224611182854 [Eh]

	 ================> DF-SCS-MP2 Energies <==================
	-----------------------------------------------------------
	 SCS Same-Spin Scale       =       0.3333333333333333 [-]
	 SCS Opposite-Spin Scale   =       1.2000000000000000 [-]
	 SCS Same-Spin Energy      =      -0.3040160557192826 [Eh]
	 SCS Opposite-Spin Energy  =      -3.0292043391847958 [Eh]
	 SCS Correlation Energy    =      -3.3332203949040786 [Eh]
	 SCS Total Energy          =   -1814.0092577395439548 [Eh]
	-----------------------------------------------------------

  Dipole Moment: [D]
     X:   -14.8860      Y:     2.7016      Z:     0.1525     Total:    15.1299

*** Psi4 exiting successfully. Buy a developer a beer!
