                               Psi4 1.4a3.dev225

  ==> Input File <==

--------------------------------------------------------------------------
#psi4
#
memory 32 gb

molecule  {
-4 1
  P       -2.5202440    -0.2449420     0.3712220
  P        0.3565170    -0.5960480    -0.3589090
  P        3.1750170     0.3881900     0.1554910
  O       -2.7927880     1.3311510    -0.1150520
  O       -0.8794973    -0.0986892     0.6128167
  O       -3.1856250    -0.4605710     1.7148300
  O       -2.8507450    -1.1694890    -0.7786080
  O        1.4898640     0.0841660     0.5723090
  O        0.2127210     0.0849480    -1.7048820
  O        0.4027150    -2.1095660    -0.2874290
  O        3.5327910    -0.6840640    -0.8835370
  O        3.1643710     1.8286230    -0.3742880
  O        3.8338960     0.2099350     1.5311200
  C       -4.1398760     1.5889580    -0.5252390
  H       -4.4292020     0.9309370    -1.3496150
  H       -4.8386320     1.4471050     0.3059850
  H       -4.1840730     2.6280350    -0.8559160
units angstrom
no_reorient  #important for SAPT in psi4, default
symmetry c1  #important for SAPT in psi4, default
}

set PROPERTIES_ORIGIN ["COM"]
properties('MP2/aug-cc-pvtz', properties = ['dipole'])
--------------------------------------------------------------------------

    Molecular point group: c1
  Charge       = -4
  Multiplicity = 1
  Basis Set: AUG-CC-PVTZ
    Blend: AUG-CC-PVTZ
  Basis Set: (AUG-CC-PVTZ AUX)
    Blend: AUG-CC-PVTZ-JKFIT

    Orbital Energies [Eh]
    ---------------------

    Doubly Occupied:

       1A    -79.588709     2A    -79.509519     3A    -79.472966
       4A    -20.123364     5A    -20.042324     6A    -20.021823
       7A    -20.007769     8A    -19.979781     9A    -19.931141
      10A    -19.929542    11A    -19.920003    12A    -19.915064
      13A    -19.910927    14A    -10.886543    15A     -7.102270
      16A     -7.023305    17A     -6.986715    18A     -5.001411
      19A     -5.000106    20A     -4.999187    21A     -4.922797
      22A     -4.921172    23A     -4.919995    24A     -4.886088
      25A     -4.884026    26A     -4.883896    27A     -0.934486
      28A     -0.857241    29A     -0.810066    30A     -0.777013
      31A     -0.764899    32A     -0.732145    33A     -0.702220
      34A     -0.682192    35A     -0.659977    36A     -0.655087
      37A     -0.531472    38A     -0.313529    39A     -0.255048
      40A     -0.223873    41A     -0.197620    42A     -0.166513
      43A     -0.141926    44A     -0.109925    45A     -0.093398
      46A     -0.081836    47A     -0.064773    48A     -0.054102
      49A     -0.033221    50A     -0.028667    51A     -0.010935
      52A     -0.007607    53A      0.006324    54A      0.012361
      55A      0.025419    56A      0.032654    57A      0.045441
      58A      0.058325    59A      0.059209    60A      0.083745
      61A      0.100937    62A      0.105538    63A      0.110033
      64A      0.111538    65A      0.129595    66A      0.139663
      67A      0.150477    68A      0.157153    69A      0.176595

  @DF-RHF Final Energy: -1810.67268065342819

   => Energetics <=

    Nuclear Repulsion Energy =           1426.5315672228277890
    One-Electron Energy =               -5428.0980740687800790
    Two-Electron Energy =                2190.8938261925236475
    Total Energy =                      -1810.6726806534284151
  Basis Set: (AUG-CC-PVTZ AUX)
    Blend: AUG-CC-PVTZ-RI
    Molecular point group: c1

    Geometry (in Angstrom), charge = -4, multiplicity = 1:

       Center              X                  Y                   Z               Mass
    ------------   -----------------  -----------------  -----------------  -----------------
         P           -2.575923242707    -0.223873692704     0.365341846027    30.973761998420
         P            0.300837757293    -0.574979692704    -0.364789153973    30.973761998420
         P            3.119337757293     0.409258307296     0.149610846027    30.973761998420
         O           -2.848467242707     1.352219307296    -0.120932153973    15.994914619570
         O           -0.935176542707    -0.077620892704     0.606936546027    15.994914619570
         O           -3.241304242707    -0.439502692704     1.708949846027    15.994914619570
         O           -2.906424242707    -1.148420692704    -0.784488153973    15.994914619570
         O            1.434184757293     0.105234307296     0.566428846027    15.994914619570
         O            0.157041757293     0.106016307296    -1.710762153973    15.994914619570
         O            0.347035757293    -2.088497692704    -0.293309153973    15.994914619570
         O            3.477111757293    -0.662995692704    -0.889417153973    15.994914619570
         O            3.108691757293     1.849691307296    -0.380168153973    15.994914619570
         O            3.778216757293     0.231003307296     1.525239846027    15.994914619570
         C           -4.195555242707     1.610026307296    -0.531119153973    12.000000000000
         H           -4.484881242707     0.952005307296    -1.355495153973     1.007825032230
         H           -4.894311242707     1.468173307296     0.300104846027     1.007825032230
         H           -4.239752242707     2.649103307296    -0.861796153973     1.007825032230

  Basis Set: AUG-CC-PVTZ
    Blend: AUG-CC-PVTZ
  Basis Set: (AUG-CC-PVTZ AUX)
    Blend: AUG-CC-PVTZ-JKFIT
	 Reference Energy          =   -1810.6726806534281877 [Eh]
	 Singles Energy            =      -0.0000000000000000 [Eh]
	 Same-Spin Energy          =      -0.9121743709474235 [Eh]
	 Opposite-Spin Energy      =      -2.5246873115631634 [Eh]
	 Correlation Energy        =      -3.4368616825105871 [Eh]
	 Total Energy              =   -1814.1095423359388406 [Eh]

	 ================> DF-SCS-MP2 Energies <==================
	-----------------------------------------------------------
	 SCS Same-Spin Scale       =       0.3333333333333333 [-]
	 SCS Opposite-Spin Scale   =       1.2000000000000000 [-]
	 SCS Same-Spin Energy      =      -0.3040581236491411 [Eh]
	 SCS Opposite-Spin Energy  =      -3.0296247738757960 [Eh]
	 SCS Correlation Energy    =      -3.3336828975249371 [Eh]
	 SCS Total Energy          =   -1814.0063635509532105 [Eh]
	-----------------------------------------------------------

  Dipole Moment: [D]
     X:   -15.5338      Y:     2.8053      Z:     0.1736     Total:    15.7860

*** Psi4 exiting successfully. Buy a developer a beer!
