                               Psi4 1.3.2 release

  ==> Input File <==

--------------------------------------------------------------------------
#psi4
#
memory 32 gb

molecule  {
-4 1
  P        2.5828670     0.0826120    -0.3559070
  P       -0.1833470    -1.1435920     0.2927960
  P       -2.7088530     0.4754690    -0.2006980
  O        1.9534540     1.6068400    -0.1842610
  O        1.2509400    -0.8782220    -0.5450080
  O        3.2679280     0.0927970    -1.6978490
  O        3.3289310    -0.2934220     0.9022790
  O       -0.8886492    -0.0000763    -0.1587957
  O        0.0932830    -1.0798150     1.7822090
  O       -0.7150640    -2.4305380    -0.3003910
  O       -3.2327710    -0.2685190     1.0414150
  O       -2.7128520     2.0086770    -0.0959300
  O       -3.2113930    -0.0752120    -1.5473660
  C        1.4216660     1.9681570     1.1052990
  H        1.0169430     1.1016800     1.6278780
  H        2.2027140     2.4392170     1.7103290
  H        0.6160650     2.6819120     0.9264900
units angstrom
no_reorient  #important for SAPT in psi4, default
symmetry c1  #important for SAPT in psi4, default
}

set PROPERTIES_ORIGIN ["COM"]
properties('MP2/aug-cc-pvtz', properties = ['dipole'])
--------------------------------------------------------------------------

    Molecular point group: c1
  Charge       = -4
  Multiplicity = 1
  Basis Set: AUG-CC-PVTZ
    Blend: AUG-CC-PVTZ
  Basis Set: (AUG-CC-PVTZ AUX)
    Blend: AUG-CC-PVTZ-JKFIT

    Orbital Energies [Eh]
    ---------------------

    Doubly Occupied:

       1A    -79.563016     2A    -79.506174     3A    -79.482985
       4A    -20.080671     5A    -20.017597     6A    -19.995116
       7A    -19.994490     8A    -19.980409     9A    -19.949271
      10A    -19.939808    11A    -19.932109    12A    -19.925648
      13A    -19.921740    14A    -10.808578    15A     -7.076815
      16A     -7.018892    17A     -7.003393    18A     -4.975796
      19A     -4.974755    20A     -4.974070    21A     -4.918467
      22A     -4.915780    23A     -4.915555    24A     -4.902980
      25A     -4.901514    26A     -4.899422    27A     -0.896314
      28A     -0.862442    29A     -0.810767    30A     -0.771527
      31A     -0.752987    32A     -0.749635    33A     -0.708843
      34A     -0.683474    35A     -0.679014    36A     -0.674466
      37A     -0.463335    38A     -0.282616    39A     -0.233037
      40A     -0.183188    41A     -0.162177    42A     -0.145161
      43A     -0.117966    44A     -0.101981    45A     -0.077158
      46A     -0.072292    47A     -0.055983    48A     -0.039300
      49A     -0.032281    50A     -0.014976    51A     -0.006997
      52A      0.002192    53A      0.007679    54A      0.018119
      55A      0.023267    56A      0.042936    57A      0.053715
      58A      0.061523    59A      0.077431    60A      0.078834
      61A      0.085349    62A      0.087378    63A      0.088668
      64A      0.111972    65A      0.121069    66A      0.131328
      67A      0.132114    68A      0.150710    69A      0.154521

  @DF-RHF Final Energy: -1810.66163320626151

   => Energetics <=

    Nuclear Repulsion Energy =           1467.8059386191587237
    One-Electron Energy =               -5511.4868145218397331
    Two-Electron Energy =                2233.0192426964190417
    Total Energy =                      -1810.6616332062617403
  Basis Set: (AUG-CC-PVTZ AUX)
    Blend: AUG-CC-PVTZ-RI
    Molecular point group: c1

    Geometry (in Angstrom), charge = -4, multiplicity = 1:

       Center              X                  Y                   Z               Mass
    ------------   -----------------  -----------------  -----------------  -----------------
         P            2.592236994172     0.117399041764    -0.342974354707    30.973761998420
         P           -0.173977005828    -1.108804958236     0.305728645293    30.973761998420
         P           -2.699483005828     0.510256041764    -0.187765354707    30.973761998420
         O            1.962823994172     1.641627041764    -0.171328354707    15.994914619570
         O            1.260309994172    -0.843434958236    -0.532075354707    15.994914619570
         O            3.277297994172     0.127584041764    -1.684916354707    15.994914619570
         O            3.338300994172    -0.258634958236     0.915211645293    15.994914619570
         O           -0.879279205828     0.034710741764    -0.145863054707    15.994914619570
         O            0.102652994172    -1.045027958236     1.795141645293    15.994914619570
         O           -0.705694005828    -2.395750958236    -0.287458354707    15.994914619570
         O           -3.223401005828    -0.233731958236     1.054347645293    15.994914619570
         O           -2.703482005828     2.043464041764    -0.082997354707    15.994914619570
         O           -3.202023005828    -0.040424958236    -1.534433354707    15.994914619570
         C            1.431035994172     2.002944041764     1.118231645293    12.000000000000
         H            1.026312994172     1.136467041764     1.640810645293     1.007825032230
         H            2.212083994172     2.474004041764     1.723261645293     1.007825032230
         H            0.625434994172     2.716699041764     0.939422645293     1.007825032230

  Basis Set: AUG-CC-PVTZ
    Blend: AUG-CC-PVTZ
  Basis Set: (AUG-CC-PVTZ AUX)
    Blend: AUG-CC-PVTZ-JKFIT
	 Reference Energy          =   -1810.6616332062615129 [Eh]
	 Singles Energy            =      -0.0000000000000000 [Eh]
	 Same-Spin Energy          =      -0.9116160275249207 [Eh]
	 Opposite-Spin Energy      =      -2.5219566154670763 [Eh]
	 Correlation Energy        =      -3.4335726429919968 [Eh]
	 Total Energy              =   -1814.0952058492534889 [Eh]

	 ================> DF-SCS-MP2 Energies <==================
	-----------------------------------------------------------
	 SCS Same-Spin Scale       =       0.3333333333333333 [-]
	 SCS Opposite-Spin Scale   =       1.2000000000000000 [-]
	 SCS Same-Spin Energy      =      -0.3038720091749735 [Eh]
	 SCS Opposite-Spin Energy  =      -3.0263479385604914 [Eh]
	 SCS Correlation Energy    =      -3.3302199477354648 [Eh]
	 SCS Total Energy          =   -1813.9918531539969990 [Eh]
	-----------------------------------------------------------

  Dipole Moment: [D]
     X:     7.2891      Y:     3.5310      Z:     1.1693     Total:     8.1833

*** Psi4 exiting successfully. Buy a developer a beer!
