                               Psi4 1.4a3.dev225

  ==> Input File <==

--------------------------------------------------------------------------
#psi4
#
memory 32 gb

molecule  {
-4 1
  P       -2.5202440    -0.2449420     0.3712220
  P        0.3565170    -0.5960480    -0.3589090
  P        3.1750170     0.3881900     0.1554910
  O       -2.7927880     1.3311510    -0.1150520
  O       -0.9169740    -0.0836090     0.6422800
  O       -3.1856250    -0.4605710     1.7148300
  O       -2.8507450    -1.1694890    -0.7786080
  O        1.4898640     0.0841660     0.5723090
  O        0.2127210     0.0849480    -1.7048820
  O        0.4027150    -2.1095660    -0.2874290
  O        3.5444422    -0.7189828    -0.9173738
  O        3.1643710     1.8286230    -0.3742880
  O        3.8338960     0.2099350     1.5311200
  C       -4.1398760     1.5889580    -0.5252390
  H       -4.4292020     0.9309370    -1.3496150
  H       -4.8386320     1.4471050     0.3059850
  H       -4.1840730     2.6280350    -0.8559160
units angstrom
no_reorient  #important for SAPT in psi4, default
symmetry c1  #important for SAPT in psi4, default
}

set PROPERTIES_ORIGIN ["COM"]
properties('MP2/aug-cc-pvtz', properties = ['dipole'])
--------------------------------------------------------------------------

    Molecular point group: c1
  Charge       = -4
  Multiplicity = 1
  Basis Set: AUG-CC-PVTZ
    Blend: AUG-CC-PVTZ
  Basis Set: (AUG-CC-PVTZ AUX)
    Blend: AUG-CC-PVTZ-JKFIT

    Orbital Energies [Eh]
    ---------------------

    Doubly Occupied:

       1A    -79.581301     2A    -79.518261     3A    -79.484274
       4A    -20.119602     5A    -20.042634     6A    -20.015546
       7A    -20.005421     8A    -19.987855     9A    -19.937202
      10A    -19.935800    11A    -19.926364    12A    -19.921558
      13A    -19.915876    14A    -10.883801    15A     -7.095572
      16A     -7.031326    17A     -6.996637    18A     -4.994719
      19A     -4.993411    20A     -4.992500    21A     -4.930719
      22A     -4.929165    23A     -4.927982    24A     -4.896120
      25A     -4.894009    26A     -4.893597    27A     -0.931810
      28A     -0.854361    29A     -0.807863    30A     -0.778170
      31A     -0.761680    32A     -0.735652    33A     -0.706438
      34A     -0.687384    35A     -0.665429    36A     -0.646378
      37A     -0.528629    38A     -0.309373    39A     -0.253250
      40A     -0.221136    41A     -0.197581    42A     -0.166353
      43A     -0.141455    44A     -0.108947    45A     -0.095578
      46A     -0.079953    47A     -0.063976    48A     -0.052771
      49A     -0.035311    50A     -0.025903    51A     -0.013452
      52A     -0.010229    53A      0.009075    54A      0.011459
      55A      0.024573    56A      0.034013    57A      0.047625
      58A      0.053612    59A      0.061659    60A      0.080434
      61A      0.096103    62A      0.103760    63A      0.107554
      64A      0.110539    65A      0.124539    66A      0.134337
      67A      0.148281    68A      0.154604    69A      0.173463

  @DF-RHF Final Energy: -1810.67041851291174

   => Energetics <=

    Nuclear Repulsion Energy =           1423.4609811766392795
    One-Electron Energy =               -5421.7534307197711314
    Two-Electron Energy =                2187.6220310302196594
    Total Energy =                      -1810.6704185129119651
  Basis Set: (AUG-CC-PVTZ AUX)
    Blend: AUG-CC-PVTZ-RI
    Molecular point group: c1

    Geometry (in Angstrom), charge = -4, multiplicity = 1:

       Center              X                  Y                   Z               Mass
    ------------   -----------------  -----------------  -----------------  -----------------
         P           -2.574381301452    -0.222689206216     0.365602970888    30.973761998420
         P            0.302379698548    -0.573795206216    -0.364528029112    30.973761998420
         P            3.120879698548     0.410442793784     0.149871970888    30.973761998420
         O           -2.846925301452     1.353403793784    -0.120671029112    15.994914619570
         O           -0.971111301452    -0.061356206216     0.636660970888    15.994914619570
         O           -3.239762301452    -0.438318206216     1.709210970888    15.994914619570
         O           -2.904882301452    -1.147236206216    -0.784227029112    15.994914619570
         O            1.435726698548     0.106418793784     0.566689970888    15.994914619570
         O            0.158583698548     0.107200793784    -1.710501029112    15.994914619570
         O            0.348577698548    -2.087313206216    -0.293048029112    15.994914619570
         O            3.490304898548    -0.696730006216    -0.922992829112    15.994914619570
         O            3.110233698548     1.850875793784    -0.379907029112    15.994914619570
         O            3.779758698548     0.232187793784     1.525500970888    15.994914619570
         C           -4.194013301452     1.611210793784    -0.530858029112    12.000000000000
         H           -4.483339301452     0.953189793784    -1.355234029112     1.007825032230
         H           -4.892769301452     1.469357793784     0.300365970888     1.007825032230
         H           -4.238210301452     2.650287793784    -0.861535029112     1.007825032230

  Basis Set: AUG-CC-PVTZ
    Blend: AUG-CC-PVTZ
  Basis Set: (AUG-CC-PVTZ AUX)
    Blend: AUG-CC-PVTZ-JKFIT
	 Reference Energy          =   -1810.6704185129117377 [Eh]
	 Singles Energy            =      -0.0000000000000000 [Eh]
	 Same-Spin Energy          =      -0.9132895538420367 [Eh]
	 Opposite-Spin Energy      =      -2.5276354353518036 [Eh]
	 Correlation Energy        =      -3.4409249891938405 [Eh]
	 Total Energy              =   -1814.1113435021056830 [Eh]

	 ================> DF-SCS-MP2 Energies <==================
	-----------------------------------------------------------
	 SCS Same-Spin Scale       =       0.3333333333333333 [-]
	 SCS Opposite-Spin Scale   =       1.2000000000000000 [-]
	 SCS Same-Spin Energy      =      -0.3044298512806789 [Eh]
	 SCS Opposite-Spin Energy  =      -3.0331625224221641 [Eh]
	 SCS Correlation Energy    =      -3.3375923737028428 [Eh]
	 SCS Total Energy          =   -1814.0080108866145565 [Eh]
	-----------------------------------------------------------

  Dipole Moment: [D]
     X:   -15.1370      Y:     2.9457      Z:     0.2343     Total:    15.4227

*** Psi4 exiting successfully. Buy a developer a beer!
