                               Psi4 1.3.2 release

  ==> Input File <==

--------------------------------------------------------------------------
#psi4
#
memory 32 gb

molecule  {
-4 1
  P        2.5828670     0.0826120    -0.3559070
  P       -0.1833470    -1.1435920     0.2927960
  P       -2.7088530     0.4754690    -0.2006980
  O        1.9597524     1.6308744    -0.1881525
  O        1.2509400    -0.8782220    -0.5450080
  O        3.2679280     0.0927970    -1.6978490
  O        3.3289310    -0.2934220     0.9022790
  O       -0.9881700     0.1612780    -0.2225170
  O        0.0932830    -1.0798150     1.7822090
  O       -0.7150640    -2.4305380    -0.3003910
  O       -3.2327710    -0.2685190     1.0414150
  O       -2.7128520     2.0086770    -0.0959300
  O       -3.2113930    -0.0752120    -1.5473660
  C        1.4216660     1.9681570     1.1052990
  H        1.0122445     1.1129015     1.6424992
  H        2.2027140     2.4392170     1.7103290
  H        0.6160650     2.6819120     0.9264900
units angstrom
no_reorient  #important for SAPT in psi4, default
symmetry c1  #important for SAPT in psi4, default
}

set PROPERTIES_ORIGIN ["COM"]
properties('MP2/aug-cc-pvtz', properties = ['dipole'])
--------------------------------------------------------------------------

    Molecular point group: c1
  Charge       = -4
  Multiplicity = 1
  Basis Set: AUG-CC-PVTZ
    Blend: AUG-CC-PVTZ
  Basis Set: (AUG-CC-PVTZ AUX)
    Blend: AUG-CC-PVTZ-JKFIT

    Orbital Energies [Eh]
    ---------------------

    Doubly Occupied:

       1A    -79.574709     2A    -79.527508     3A    -79.479962
       4A    -20.086291     5A    -20.040321     6A    -20.004366
       7A    -20.003370     8A    -19.993283     9A    -19.950470
      10A    -19.945831    11A    -19.923899    12A    -19.919310
      13A    -19.917493    14A    -10.810305    15A     -7.088272
      16A     -7.040451    17A     -6.993469    18A     -4.987166
      19A     -4.986288    20A     -4.985444    21A     -4.939739
      22A     -4.938331    23A     -4.937401    24A     -4.892932
      25A     -4.890740    26A     -4.890593    27A     -0.898609
      28A     -0.846179    29A     -0.807300    30A     -0.778815
      31A     -0.758589    32A     -0.742542    33A     -0.713766
      34A     -0.700086    35A     -0.663480    36A     -0.659169
      37A     -0.464174    38A     -0.294547    39A     -0.233840
      40A     -0.183379    41A     -0.162065    42A     -0.145885
      43A     -0.126646    44A     -0.099190    45A     -0.083224
      46A     -0.065598    47A     -0.051860    48A     -0.045678
      49A     -0.031862    50A     -0.016607    51A     -0.006320
      52A     -0.000031    53A      0.010223    54A      0.014266
      55A      0.021432    56A      0.036990    57A      0.047045
      58A      0.052365    59A      0.066078    60A      0.070241
      61A      0.090534    62A      0.100347    63A      0.102167
      64A      0.103750    65A      0.113492    66A      0.124884
      67A      0.144434    68A      0.150351    69A      0.171990

  @DF-RHF Final Energy: -1810.68776142388970

   => Energetics <=

    Nuclear Repulsion Energy =           1461.8336174295377532
    One-Electron Energy =               -5499.2291557305334209
    Two-Electron Energy =                2226.7077768771059709
    Total Energy =                      -1810.6877614238896967
  Basis Set: (AUG-CC-PVTZ AUX)
    Blend: AUG-CC-PVTZ-RI
    Molecular point group: c1

    Geometry (in Angstrom), charge = -4, multiplicity = 1:

       Center              X                  Y                   Z               Mass
    ------------   -----------------  -----------------  -----------------  -----------------
         P            2.597820620951     0.106287980050    -0.338992459924    30.973761998420
         P           -0.168393379049    -1.119916019950     0.309710540076    30.973761998420
         P           -2.693899379049     0.499144980050    -0.183783459924    30.973761998420
         O            1.974706020951     1.654550380050    -0.171237959924    15.994914619570
         O            1.265893620951    -0.854546019950    -0.528093459924    15.994914619570
         O            3.282881620951     0.116472980050    -1.680934459924    15.994914619570
         O            3.343884620951    -0.269746019950     0.919193540076    15.994914619570
         O           -0.973216379049     0.184953980050    -0.205602459924    15.994914619570
         O            0.108236620951    -1.056139019950     1.799123540076    15.994914619570
         O           -0.700110379049    -2.406862019950    -0.283476459924    15.994914619570
         O           -3.217817379049    -0.244843019950     1.058329540076    15.994914619570
         O           -2.697898379049     2.032352980050    -0.079015459924    15.994914619570
         O           -3.196439379049    -0.051536019950    -1.530451459924    15.994914619570
         C            1.436619620951     1.991832980050     1.122213540076    12.000000000000
         H            1.027198120951     1.136577480050     1.659413740076     1.007825032230
         H            2.217667620951     2.462892980050     1.727243540076     1.007825032230
         H            0.631018620951     2.705587980050     0.943404540076     1.007825032230

  Basis Set: AUG-CC-PVTZ
    Blend: AUG-CC-PVTZ
  Basis Set: (AUG-CC-PVTZ AUX)
    Blend: AUG-CC-PVTZ-JKFIT
	 Reference Energy          =   -1810.6877614238896967 [Eh]
	 Singles Energy            =      -0.0000000000000000 [Eh]
	 Same-Spin Energy          =      -0.9132139279831812 [Eh]
	 Opposite-Spin Energy      =      -2.5264228320188464 [Eh]
	 Correlation Energy        =      -3.4396367600020277 [Eh]
	 Total Energy              =   -1814.1273981838917280 [Eh]

	 ================> DF-SCS-MP2 Energies <==================
	-----------------------------------------------------------
	 SCS Same-Spin Scale       =       0.3333333333333333 [-]
	 SCS Opposite-Spin Scale   =       1.2000000000000000 [-]
	 SCS Same-Spin Energy      =      -0.3044046426610604 [Eh]
	 SCS Opposite-Spin Energy  =      -3.0317073984226157 [Eh]
	 SCS Correlation Energy    =      -3.3361120410836760 [Eh]
	 SCS Total Energy          =   -1814.0238734649733487 [Eh]
	-----------------------------------------------------------

  Dipole Moment: [D]
     X:     9.2641      Y:     2.2374      Z:     1.5944     Total:     9.6629

*** Psi4 exiting successfully. Buy a developer a beer!
