                               Psi4 1.3.2 release

  ==> Input File <==

--------------------------------------------------------------------------
#psi4
#
memory 32 gb

molecule  {
-4 1
  P        2.5828670     0.0826120    -0.3559070
  P       -0.1833470    -1.1435920     0.2927960
  P       -2.7088530     0.4754690    -0.2006980
  O        1.9534540     1.6068400    -0.1842610
  O        1.2509400    -0.8782220    -0.5450080
  O        3.2679280     0.0927970    -1.6978490
  O        3.3289310    -0.2934220     0.9022790
  O       -0.9881700     0.1612780    -0.2225170
  O        0.1011935    -1.0547156     1.7794299
  O       -0.7153490    -2.4191612    -0.3242299
  O       -3.2327710    -0.2685190     1.0414150
  O       -2.7128520     2.0086770    -0.0959300
  O       -3.2113930    -0.0752120    -1.5473660
  C        1.4216660     1.9681570     1.1052990
  H        1.0169430     1.1016800     1.6278780
  H        2.2027140     2.4392170     1.7103290
  H        0.6160650     2.6819120     0.9264900
units angstrom
no_reorient  #important for SAPT in psi4, default
symmetry c1  #important for SAPT in psi4, default
}

set PROPERTIES_ORIGIN ["COM"]
properties('MP2/aug-cc-pvtz', properties = ['dipole'])
--------------------------------------------------------------------------

    Molecular point group: c1
  Charge       = -4
  Multiplicity = 1
  Basis Set: AUG-CC-PVTZ
    Blend: AUG-CC-PVTZ
  Basis Set: (AUG-CC-PVTZ AUX)
    Blend: AUG-CC-PVTZ-JKFIT

    Orbital Energies [Eh]
    ---------------------

    Doubly Occupied:

       1A    -79.571738     2A    -79.527217     3A    -79.479291
       4A    -20.084793     5A    -20.036943     6A    -20.002230
       7A    -20.001905     8A    -19.991091     9A    -19.951882
      10A    -19.946945    11A    -19.923357    12A    -19.918629
      13A    -19.917224    14A    -10.810611    15A     -7.085564
      16A     -7.040147    17A     -6.992783    18A     -4.984514
      19A     -4.983565    20A     -4.982757    21A     -4.939440
      22A     -4.938099    23A     -4.937055    24A     -4.892235
      25A     -4.890067    26A     -4.889919    27A     -0.901083
      28A     -0.845049    29A     -0.805976    30A     -0.777137
      31A     -0.757000    32A     -0.741951    33A     -0.712699
      34A     -0.702174    35A     -0.662960    36A     -0.658704
      37A     -0.465861    38A     -0.292901    39A     -0.233619
      40A     -0.183200    41A     -0.163175    42A     -0.147909
      43A     -0.125614    44A     -0.098829    45A     -0.082268
      46A     -0.064541    47A     -0.051659    48A     -0.043435
      49A     -0.031653    50A     -0.015492    51A     -0.005893
      52A      0.000449    53A      0.010050    54A      0.015115
      55A      0.022165    56A      0.037919    57A      0.047355
      58A      0.054093    59A      0.067174    60A      0.070994
      61A      0.091278    62A      0.100400    63A      0.102874
      64A      0.104328    65A      0.112891    66A      0.123490
      67A      0.144938    68A      0.151009    69A      0.172451

  @DF-RHF Final Energy: -1810.68858038376129

   => Energetics <=

    Nuclear Repulsion Energy =           1463.4696905427110778
    One-Electron Energy =               -5502.5929235907678958
    Two-Electron Energy =                2228.4346526642957542
    Total Energy =                      -1810.6885803837612912
  Basis Set: (AUG-CC-PVTZ AUX)
    Blend: AUG-CC-PVTZ-RI
    Molecular point group: c1

    Geometry (in Angstrom), charge = -4, multiplicity = 1:

       Center              X                  Y                   Z               Mass
    ------------   -----------------  -----------------  -----------------  -----------------
         P            2.597723709015     0.105587343660    -0.337580542639    30.973761998420
         P           -0.168490290985    -1.120616656340     0.311122457361    30.973761998420
         P           -2.693996290985     0.498444343660    -0.182371542639    30.973761998420
         O            1.968310709015     1.629815343660    -0.165934542639    15.994914619570
         O            1.265796709015    -0.855246656340    -0.526681542639    15.994914619570
         O            3.282784709015     0.115772343660    -1.679522542639    15.994914619570
         O            3.343787709015    -0.270446656340     0.920605457361    15.994914619570
         O           -0.973313290985     0.184253343660    -0.204190542639    15.994914619570
         O            0.116050209015    -1.031740256340     1.797756357361    15.994914619570
         O           -0.700492290985    -2.396185856340    -0.305903442639    15.994914619570
         O           -3.217914290985    -0.245543656340     1.059741457361    15.994914619570
         O           -2.697995290985     2.031652343660    -0.077603542639    15.994914619570
         O           -3.196536290985    -0.052236656340    -1.529039542639    15.994914619570
         C            1.436522709015     1.991132343660     1.123625457361    12.000000000000
         H            1.031799709015     1.124655343660     1.646204457361     1.007825032230
         H            2.217570709015     2.462192343660     1.728655457361     1.007825032230
         H            0.630921709015     2.704887343660     0.944816457361     1.007825032230

  Basis Set: AUG-CC-PVTZ
    Blend: AUG-CC-PVTZ
  Basis Set: (AUG-CC-PVTZ AUX)
    Blend: AUG-CC-PVTZ-JKFIT
	 Reference Energy          =   -1810.6885803837612912 [Eh]
	 Singles Energy            =      -0.0000000000000000 [Eh]
	 Same-Spin Energy          =      -0.9131119087986439 [Eh]
	 Opposite-Spin Energy      =      -2.5259297243432708 [Eh]
	 Correlation Energy        =      -3.4390416331419145 [Eh]
	 Total Energy              =   -1814.1276220169031603 [Eh]

	 ================> DF-SCS-MP2 Energies <==================
	-----------------------------------------------------------
	 SCS Same-Spin Scale       =       0.3333333333333333 [-]
	 SCS Opposite-Spin Scale   =       1.2000000000000000 [-]
	 SCS Same-Spin Energy      =      -0.3043706362662146 [Eh]
	 SCS Opposite-Spin Energy  =      -3.0311156692119248 [Eh]
	 SCS Correlation Energy    =      -3.3354863054781392 [Eh]
	 SCS Total Energy          =   -1814.0240666892393619 [Eh]
	-----------------------------------------------------------

  Dipole Moment: [D]
     X:     9.2379      Y:     2.2276      Z:     1.6707     Total:     9.6484

*** Psi4 exiting successfully. Buy a developer a beer!
