                               Psi4 1.3.2 release

  ==> Input File <==

--------------------------------------------------------------------------
#psi4
#
memory 32 gb

molecule  {
-4 1
  P        2.5828670     0.0826120    -0.3559070
  P       -0.1833470    -1.1435920     0.2927960
  P       -2.7088530     0.4754690    -0.2006980
  O        1.9534540     1.6068400    -0.1842610
  O        1.2214087    -0.8842019    -0.5954012
  O        3.2679280     0.0927970    -1.6978490
  O        3.3289310    -0.2934220     0.9022790
  O       -0.9881700     0.1612780    -0.2225170
  O        0.0420281    -1.0894579     1.7912013
  O       -0.7150640    -2.4305380    -0.3003910
  O       -3.2327710    -0.2685190     1.0414150
  O       -2.7128520     2.0086770    -0.0959300
  O       -3.2113930    -0.0752120    -1.5473660
  C        1.4216660     1.9681570     1.1052990
  H        1.0169430     1.1016800     1.6278780
  H        2.2027140     2.4392170     1.7103290
  H        0.6160650     2.6819120     0.9264900
units angstrom
no_reorient  #important for SAPT in psi4, default
symmetry c1  #important for SAPT in psi4, default
}

set PROPERTIES_ORIGIN ["COM"]
properties('MP2/aug-cc-pvtz', properties = ['dipole'])
--------------------------------------------------------------------------

    Molecular point group: c1
  Charge       = -4
  Multiplicity = 1
  Basis Set: AUG-CC-PVTZ
    Blend: AUG-CC-PVTZ
  Basis Set: (AUG-CC-PVTZ AUX)
    Blend: AUG-CC-PVTZ-JKFIT

    Orbital Energies [Eh]
    ---------------------

    Doubly Occupied:

       1A    -79.577729     2A    -79.523959     3A    -79.477820
       4A    -20.089041     5A    -20.041426     6A    -20.009573
       7A    -20.004772     8A    -19.989381     9A    -19.951588
      10A    -19.940217    11A    -19.922419    12A    -19.917444
      13A    -19.915196    14A    -10.814276    15A     -7.091245
      16A     -7.037126    17A     -6.991314    18A     -4.990130
      19A     -4.989195    20A     -4.988421    21A     -4.936321
      22A     -4.934988    23A     -4.934145    24A     -4.890763
      25A     -4.888605    26A     -4.888448    27A     -0.903224
      28A     -0.843276    29A     -0.807350    30A     -0.777220
      31A     -0.761544    32A     -0.740631    33A     -0.711513
      34A     -0.696563    35A     -0.661771    36A     -0.657043
      37A     -0.469352    38A     -0.289393    39A     -0.235465
      40A     -0.183038    41A     -0.164948    42A     -0.150648
      43A     -0.128601    44A     -0.098531    45A     -0.081371
      46A     -0.063974    47A     -0.052894    48A     -0.043921
      49A     -0.032384    50A     -0.014110    51A     -0.007904
      52A      0.000112    53A      0.008488    54A      0.015066
      55A      0.022679    56A      0.035967    57A      0.048654
      58A      0.049526    59A      0.063419    60A      0.071313
      61A      0.092807    62A      0.102138    63A      0.103892
      64A      0.105957    65A      0.116613    66A      0.127880
      67A      0.146527    68A      0.152540    69A      0.173886

  @DF-RHF Final Energy: -1810.68321691071287

   => Energetics <=

    Nuclear Repulsion Energy =           1461.5456189580809223
    One-Electron Energy =               -5498.7081792777735245
    Two-Electron Energy =                2226.4793434089797302
    Total Energy =                      -1810.6832169107128720
  Basis Set: (AUG-CC-PVTZ AUX)
    Blend: AUG-CC-PVTZ-RI
    Molecular point group: c1

    Geometry (in Angstrom), charge = -4, multiplicity = 1:

       Center              X                  Y                   Z               Mass
    ------------   -----------------  -----------------  -----------------  -----------------
         P            2.603002431503     0.108697974526    -0.336697912549    30.973761998420
         P           -0.163211568497    -1.117506025474     0.312005087451    30.973761998420
         P           -2.688717568497     0.501554974526    -0.181488912549    30.973761998420
         O            1.973589431503     1.632925974526    -0.165051912549    15.994914619570
         O            1.241544131503    -0.858115925474    -0.576192112549    15.994914619570
         O            3.288063431503     0.118882974526    -1.678639912549    15.994914619570
         O            3.349066431503    -0.267336025474     0.921488087451    15.994914619570
         O           -0.968034568497     0.187363974526    -0.203307912549    15.994914619570
         O            0.062163531503    -1.063371925474     1.810410387451    15.994914619570
         O           -0.694928568497    -2.404452025474    -0.281181912549    15.994914619570
         O           -3.212635568497    -0.242433025474     1.060624087451    15.994914619570
         O           -2.692716568497     2.034762974526    -0.076720912549    15.994914619570
         O           -3.191257568497    -0.049126025474    -1.528156912549    15.994914619570
         C            1.441801431503     1.994242974526     1.124508087451    12.000000000000
         H            1.037078431503     1.127765974526     1.647087087451     1.007825032230
         H            2.222849431503     2.465302974526     1.729538087451     1.007825032230
         H            0.636200431503     2.707997974526     0.945699087451     1.007825032230

  Basis Set: AUG-CC-PVTZ
    Blend: AUG-CC-PVTZ
  Basis Set: (AUG-CC-PVTZ AUX)
    Blend: AUG-CC-PVTZ-JKFIT
	 Reference Energy          =   -1810.6832169107128720 [Eh]
	 Singles Energy            =      -0.0000000000000000 [Eh]
	 Same-Spin Energy          =      -0.9135515455797218 [Eh]
	 Opposite-Spin Energy      =      -2.5272870746187666 [Eh]
	 Correlation Energy        =      -3.4408386201984884 [Eh]
	 Total Energy              =   -1814.1240555309113915 [Eh]

	 ================> DF-SCS-MP2 Energies <==================
	-----------------------------------------------------------
	 SCS Same-Spin Scale       =       0.3333333333333333 [-]
	 SCS Opposite-Spin Scale   =       1.2000000000000000 [-]
	 SCS Same-Spin Energy      =      -0.3045171818599073 [Eh]
	 SCS Opposite-Spin Energy  =      -3.0327444895425200 [Eh]
	 SCS Correlation Energy    =      -3.3372616714024272 [Eh]
	 SCS Total Energy          =   -1814.0204785821154019 [Eh]
	-----------------------------------------------------------

  Dipole Moment: [D]
     X:     9.6338      Y:     2.4757      Z:     1.6812     Total:    10.0879

*** Psi4 exiting successfully. Buy a developer a beer!
