                               Psi4 1.3.2 release

  ==> Input File <==

--------------------------------------------------------------------------
#psi4
#
memory 32 gb

molecule  {
-4 1
  P        2.5939686     0.0715581    -0.3801364
  P       -0.1911998    -1.1633721     0.2725728
  P       -2.7088530     0.4754690    -0.2006980
  O        1.9534540     1.6068400    -0.1842610
  O        1.2509400    -0.8782220    -0.5450080
  O        3.2679280     0.0927970    -1.6978490
  O        3.3289310    -0.2934220     0.9022790
  O       -0.9881700     0.1612780    -0.2225170
  O        0.0932830    -1.0798150     1.7822090
  O       -0.7150640    -2.4305380    -0.3003910
  O       -3.2327710    -0.2685190     1.0414150
  O       -2.7128520     2.0086770    -0.0959300
  O       -3.2113930    -0.0752120    -1.5473660
  C        1.4216660     1.9681570     1.1052990
  H        1.0169430     1.1016800     1.6278780
  H        2.2027140     2.4392170     1.7103290
  H        0.6160650     2.6819120     0.9264900
units angstrom
no_reorient  #important for SAPT in psi4, default
symmetry c1  #important for SAPT in psi4, default
}

set PROPERTIES_ORIGIN ["COM"]
properties('MP2/aug-cc-pvtz', properties = ['dipole'])
--------------------------------------------------------------------------

    Molecular point group: c1
  Charge       = -4
  Multiplicity = 1
  Basis Set: AUG-CC-PVTZ
    Blend: AUG-CC-PVTZ
  Basis Set: (AUG-CC-PVTZ AUX)
    Blend: AUG-CC-PVTZ-JKFIT

    Orbital Energies [Eh]
    ---------------------

    Doubly Occupied:

       1A    -79.572119     2A    -79.526526     3A    -79.478853
       4A    -20.079562     5A    -20.036945     6A    -20.008084
       7A    -20.000328     8A    -19.991411     9A    -19.950755
      10A    -19.944916    11A    -19.922928    12A    -19.918965
      13A    -19.916549    14A    -10.806733    15A     -7.086111
      16A     -7.039583    17A     -6.992372    18A     -4.985013
      19A     -4.984162    20A     -4.983312    21A     -4.938850
      22A     -4.937508    23A     -4.936499    24A     -4.891816
      25A     -4.889659    26A     -4.889511    27A     -0.896128
      28A     -0.842984    29A     -0.809333    30A     -0.780107
      31A     -0.757996    32A     -0.744464    33A     -0.714905
      34A     -0.696375    35A     -0.662653    36A     -0.658514
      37A     -0.460814    38A     -0.293578    39A     -0.229521
      40A     -0.180684    41A     -0.159201    42A     -0.143830
      43A     -0.125514    44A     -0.099013    45A     -0.084513
      46A     -0.064625    47A     -0.052455    48A     -0.041141
      49A     -0.029040    50A     -0.016891    51A     -0.004822
      52A      0.000906    53A      0.010057    54A      0.014301
      55A      0.021494    56A      0.034032    57A      0.048259
      58A      0.056904    59A      0.065894    60A      0.069929
      61A      0.086603    62A      0.101294    63A      0.103979
      64A      0.105524    65A      0.115177    66A      0.125256
      67A      0.145280    68A      0.151376    69A      0.172690

  @DF-RHF Final Energy: -1810.68687762048057

   => Energetics <=

    Nuclear Repulsion Energy =           1461.8580027610084926
    One-Electron Energy =               -5499.4313259793298130
    Two-Electron Energy =                2226.8864455978405203
    Total Energy =                      -1810.6868776204805727
  Basis Set: (AUG-CC-PVTZ AUX)
    Blend: AUG-CC-PVTZ-RI
    Molecular point group: c1

    Geometry (in Angstrom), charge = -4, multiplicity = 1:

       Center              X                  Y                   Z               Mass
    ------------   -----------------  -----------------  -----------------  -----------------
         P            2.608904973624     0.100276309176    -0.358259613238    30.973761998420
         P           -0.176263426376    -1.134653890824     0.294449586762    30.973761998420
         P           -2.693916626376     0.504187209176    -0.178821213238    30.973761998420
         O            1.968390373624     1.635558209176    -0.162384213238    15.994914619570
         O            1.265876373624    -0.849503790824    -0.523131213238    15.994914619570
         O            3.282864373624     0.121515209176    -1.675972213238    15.994914619570
         O            3.343867373624    -0.264703790824     0.924155786762    15.994914619570
         O           -0.973233626376     0.189996209176    -0.200640213238    15.994914619570
         O            0.108219373624    -1.051096790824     1.804085786762    15.994914619570
         O           -0.700127626376    -2.401819790824    -0.278514213238    15.994914619570
         O           -3.217834626376    -0.239800790824     1.063291786762    15.994914619570
         O           -2.697915626376     2.037395209176    -0.074053213238    15.994914619570
         O           -3.196456626376    -0.046493790824    -1.525489213238    15.994914619570
         C            1.436602373624     1.996875209176     1.127175786762    12.000000000000
         H            1.031879373624     1.130398209176     1.649754786762     1.007825032230
         H            2.217650373624     2.467935209176     1.732205786762     1.007825032230
         H            0.631001373624     2.710630209176     0.948366786762     1.007825032230

  Basis Set: AUG-CC-PVTZ
    Blend: AUG-CC-PVTZ
  Basis Set: (AUG-CC-PVTZ AUX)
    Blend: AUG-CC-PVTZ-JKFIT
	 Reference Energy          =   -1810.6868776204805727 [Eh]
	 Singles Energy            =      -0.0000000000000000 [Eh]
	 Same-Spin Energy          =      -0.9127711260232109 [Eh]
	 Opposite-Spin Energy      =      -2.5253497673316394 [Eh]
	 Correlation Energy        =      -3.4381208933548502 [Eh]
	 Total Energy              =   -1814.1249985138354077 [Eh]

	 ================> DF-SCS-MP2 Energies <==================
	-----------------------------------------------------------
	 SCS Same-Spin Scale       =       0.3333333333333333 [-]
	 SCS Opposite-Spin Scale   =       1.2000000000000000 [-]
	 SCS Same-Spin Energy      =      -0.3042570420077370 [Eh]
	 SCS Opposite-Spin Energy  =      -3.0304197207979673 [Eh]
	 SCS Correlation Energy    =      -3.3346767628057044 [Eh]
	 SCS Total Energy          =   -1814.0215543832862295 [Eh]
	-----------------------------------------------------------

  Dipole Moment: [D]
     X:     9.3318      Y:     1.9364      Z:     1.0168     Total:     9.5847

*** Psi4 exiting successfully. Buy a developer a beer!
