                               Psi4 1.3.2 release

  ==> Input File <==

--------------------------------------------------------------------------
#psi4
#
memory 32 gb

molecule  {
-4 1
  P        2.5828670     0.0826120    -0.3559070
  P       -0.1833470    -1.1435920     0.2927960
  P       -2.7088530     0.4754690    -0.2006980
  O        1.9422494     1.6049353    -0.2108724
  O        1.2509400    -0.8782220    -0.5450080
  O        3.2679280     0.0927970    -1.6978490
  O        3.3348638    -0.3167411     0.8915156
  O       -0.9881700     0.1612780    -0.2225170
  O        0.0932830    -1.0798150     1.7822090
  O       -0.7150640    -2.4305380    -0.3003910
  O       -3.2327710    -0.2685190     1.0414150
  O       -2.7128520     2.0086770    -0.0959300
  O       -3.2113930    -0.0752120    -1.5473660
  C        1.4216660     1.9681570     1.1052990
  H        1.0169430     1.1016800     1.6278780
  H        2.2027140     2.4392170     1.7103290
  H        0.6160650     2.6819120     0.9264900
units angstrom
no_reorient  #important for SAPT in psi4, default
symmetry c1  #important for SAPT in psi4, default
}

set PROPERTIES_ORIGIN ["COM"]
properties('MP2/aug-cc-pvtz', properties = ['dipole'])
--------------------------------------------------------------------------

    Molecular point group: c1
  Charge       = -4
  Multiplicity = 1
  Basis Set: AUG-CC-PVTZ
    Blend: AUG-CC-PVTZ
  Basis Set: (AUG-CC-PVTZ AUX)
    Blend: AUG-CC-PVTZ-JKFIT

    Orbital Energies [Eh]
    ---------------------

    Doubly Occupied:

       1A    -79.571635     2A    -79.526517     3A    -79.479764
       4A    -20.088295     5A    -20.036783     6A    -20.003900
       7A    -20.000126     8A    -19.992678     9A    -19.950095
      10A    -19.944822    11A    -19.923926    12A    -19.919070
      13A    -19.917322    14A    -10.814890    15A     -7.085547
      16A     -7.039444    17A     -6.993267    18A     -4.984478
      19A     -4.983529    20A     -4.982745    21A     -4.938713
      22A     -4.937339    23A     -4.936414    24A     -4.892727
      25A     -4.890545    26A     -4.890394    27A     -0.899116
      28A     -0.843804    29A     -0.805821    30A     -0.777439
      31A     -0.756715    32A     -0.741692    33A     -0.713369
      34A     -0.699374    35A     -0.663417    36A     -0.658962
      37A     -0.468541    38A     -0.293041    39A     -0.233341
      40A     -0.183123    41A     -0.162855    42A     -0.145353
      43A     -0.126046    44A     -0.098860    45A     -0.081782
      46A     -0.064930    47A     -0.051469    48A     -0.045004
      49A     -0.032528    50A     -0.015598    51A     -0.008363
      52A     -0.000032    53A      0.009150    54A      0.015125
      55A      0.021675    56A      0.038347    57A      0.047642
      58A      0.053078    59A      0.067611    60A      0.071573
      61A      0.091472    62A      0.100595    63A      0.102447
      64A      0.104031    65A      0.114151    66A      0.125446
      67A      0.144572    68A      0.150616    69A      0.172121

  @DF-RHF Final Energy: -1810.68699933224252

   => Energetics <=

    Nuclear Repulsion Energy =           1462.6448142004874171
    One-Electron Energy =               -5500.9318528215062543
    Two-Electron Energy =                2227.6000392887763155
    Total Energy =                      -1810.6869993322425216
  Basis Set: (AUG-CC-PVTZ AUX)
    Blend: AUG-CC-PVTZ-RI
    Molecular point group: c1

    Geometry (in Angstrom), charge = -4, multiplicity = 1:

       Center              X                  Y                   Z               Mass
    ------------   -----------------  -----------------  -----------------  -----------------
         P            2.598493757182     0.109271213301    -0.336938295492    30.973761998420
         P           -0.167720242818    -1.116932786699     0.311764704508    30.973761998420
         P           -2.693226242818     0.502128213301    -0.181729295492    30.973761998420
         O            1.957876157182     1.631594513301    -0.191903695492    15.994914619570
         O            1.266566757182    -0.851562786699    -0.526039295492    15.994914619570
         O            3.283554757182     0.119456213301    -1.678880295492    15.994914619570
         O            3.350490557182    -0.290081886699     0.910484304508    15.994914619570
         O           -0.972543242818     0.187937213301    -0.203548295492    15.994914619570
         O            0.108909757182    -1.053155786699     1.801177704508    15.994914619570
         O           -0.699437242818    -2.403878786699    -0.281422295492    15.994914619570
         O           -3.217144242818    -0.241859786699     1.060383704508    15.994914619570
         O           -2.697225242818     2.035336213301    -0.076961295492    15.994914619570
         O           -3.195766242818    -0.048552786699    -1.528397295492    15.994914619570
         C            1.437292757182     1.994816213301     1.124267704508    12.000000000000
         H            1.032569757182     1.128339213301     1.646846704508     1.007825032230
         H            2.218340757182     2.465876213301     1.729297704508     1.007825032230
         H            0.631691757182     2.708571213301     0.945458704508     1.007825032230

  Basis Set: AUG-CC-PVTZ
    Blend: AUG-CC-PVTZ
  Basis Set: (AUG-CC-PVTZ AUX)
    Blend: AUG-CC-PVTZ-JKFIT
	 Reference Energy          =   -1810.6869993322425216 [Eh]
	 Singles Energy            =      -0.0000000000000000 [Eh]
	 Same-Spin Energy          =      -0.9131665182093751 [Eh]
	 Opposite-Spin Energy      =      -2.5263925099295950 [Eh]
	 Correlation Energy        =      -3.4395590281389703 [Eh]
	 Total Energy              =   -1814.1265583603815230 [Eh]

	 ================> DF-SCS-MP2 Energies <==================
	-----------------------------------------------------------
	 SCS Same-Spin Scale       =       0.3333333333333333 [-]
	 SCS Opposite-Spin Scale   =       1.2000000000000000 [-]
	 SCS Same-Spin Energy      =      -0.3043888394031250 [Eh]
	 SCS Opposite-Spin Energy  =      -3.0316710119155137 [Eh]
	 SCS Correlation Energy    =      -3.3360598513186388 [Eh]
	 SCS Total Energy          =   -1814.0230591835611449 [Eh]
	-----------------------------------------------------------

  Dipole Moment: [D]
     X:     9.2443      Y:     2.4236      Z:     1.7060     Total:     9.7078

*** Psi4 exiting successfully. Buy a developer a beer!
