                               Psi4 1.4a3.dev225

  ==> Input File <==

--------------------------------------------------------------------------
#psi4
#
memory 32 gb

molecule  {
-4 1
  P       -2.5202440    -0.2449420     0.3712220
  P        0.3565170    -0.5960480    -0.3589090
  P        3.1750170     0.3881900     0.1554910
  O       -2.7927880     1.3311510    -0.1150520
  O       -0.9169740    -0.0836090     0.6422800
  O       -3.1856250    -0.4605710     1.7148300
  O       -2.8507450    -1.1694890    -0.7786080
  O        1.4898640     0.0841660     0.5723090
  O        0.2174659     0.0624771    -1.6604687
  O        0.4027150    -2.1095660    -0.2874290
  O        3.5327910    -0.6840640    -0.8835370
  O        3.1643710     1.8286230    -0.3742880
  O        3.8338960     0.2099350     1.5311200
  C       -4.1398760     1.5889580    -0.5252390
  H       -4.4292020     0.9309370    -1.3496150
  H       -4.8386320     1.4471050     0.3059850
  H       -4.1840730     2.6280350    -0.8559160
units angstrom
no_reorient  #important for SAPT in psi4, default
symmetry c1  #important for SAPT in psi4, default
}

set PROPERTIES_ORIGIN ["COM"]
properties('MP2/aug-cc-pvtz', properties = ['dipole'])
--------------------------------------------------------------------------

    Molecular point group: c1
  Charge       = -4
  Multiplicity = 1
  Basis Set: AUG-CC-PVTZ
    Blend: AUG-CC-PVTZ
  Basis Set: (AUG-CC-PVTZ AUX)
    Blend: AUG-CC-PVTZ-JKFIT

    Orbital Energies [Eh]
    ---------------------

    Doubly Occupied:

       1A    -79.579624     2A    -79.507119     3A    -79.474386
       4A    -20.118943     5A    -20.038443     6A    -20.014109
       7A    -20.004478     8A    -19.980315     9A    -19.933096
      10A    -19.932306    11A    -19.920928    12A    -19.916615
      13A    -19.912491    14A    -10.883372    15A     -7.093903
      16A     -7.022305    17A     -6.988122    18A     -4.993056
      19A     -4.991724    20A     -4.990845    21A     -4.921492
      22A     -4.920124    23A     -4.919098    24A     -4.887497
      25A     -4.885426    26A     -4.885305    27A     -0.930931
      28A     -0.852703    29A     -0.807305    30A     -0.775901
      31A     -0.760567    32A     -0.742621    33A     -0.708766
      34A     -0.690576    35A     -0.661164    36A     -0.656643
      37A     -0.528139    38A     -0.306972    39A     -0.250550
      40A     -0.220683    41A     -0.195431    42A     -0.164235
      43A     -0.138720    44A     -0.106728    45A     -0.093699
      46A     -0.078812    47A     -0.062707    48A     -0.050942
      49A     -0.034932    50A     -0.025200    51A     -0.011807
      52A     -0.009982    53A      0.010273    54A      0.010806
      55A      0.022510    56A      0.034790    57A      0.048183
      58A      0.054535    59A      0.061853    60A      0.078796
      61A      0.095036    62A      0.103789    63A      0.108222
      64A      0.108391    65A      0.123933    66A      0.134495
      67A      0.148909    68A      0.155468    69A      0.175186

  @DF-RHF Final Energy: -1810.67712343284120

   => Energetics <=

    Nuclear Repulsion Energy =           1428.1940360085736756
    One-Electron Energy =               -5431.5289893680364912
    Two-Electron Energy =                2192.6578299266216163
    Total Energy =                      -1810.6771234328411992
  Basis Set: (AUG-CC-PVTZ AUX)
    Blend: AUG-CC-PVTZ-RI
    Molecular point group: c1

    Geometry (in Angstrom), charge = -4, multiplicity = 1:

       Center              X                  Y                   Z               Mass
    ------------   -----------------  -----------------  -----------------  -----------------
         P           -2.573968952848    -0.223432422439     0.360930958444    30.973761998420
         P            0.302792047152    -0.574538422439    -0.369200041556    30.973761998420
         P            3.121292047152     0.409699577561     0.145199958444    30.973761998420
         O           -2.846512952848     1.352660577561    -0.125343041556    15.994914619570
         O           -0.970698952848    -0.062099422439     0.631988958444    15.994914619570
         O           -3.239349952848    -0.439061422439     1.704538958444    15.994914619570
         O           -2.904469952848    -1.147979422439    -0.788899041556    15.994914619570
         O            1.436139047152     0.105675577561     0.562017958444    15.994914619570
         O            0.163740947152     0.083986677561    -1.670759741556    15.994914619570
         O            0.348990047152    -2.088056422439    -0.297720041556    15.994914619570
         O            3.479066047152    -0.662554422439    -0.893828041556    15.994914619570
         O            3.110646047152     1.850132577561    -0.384579041556    15.994914619570
         O            3.780171047152     0.231444577561     1.520828958444    15.994914619570
         C           -4.193600952848     1.610467577561    -0.535530041556    12.000000000000
         H           -4.482926952848     0.952446577561    -1.359906041556     1.007825032230
         H           -4.892356952848     1.468614577561     0.295693958444     1.007825032230
         H           -4.237797952848     2.649544577561    -0.866207041556     1.007825032230

  Basis Set: AUG-CC-PVTZ
    Blend: AUG-CC-PVTZ
  Basis Set: (AUG-CC-PVTZ AUX)
    Blend: AUG-CC-PVTZ-JKFIT
	 Reference Energy          =   -1810.6771234328411992 [Eh]
	 Singles Energy            =      -0.0000000000000000 [Eh]
	 Same-Spin Energy          =      -0.9114142357971619 [Eh]
	 Opposite-Spin Energy      =      -2.5227909265632182 [Eh]
	 Correlation Energy        =      -3.4342051623603802 [Eh]
	 Total Energy              =   -1814.1113285952014849 [Eh]

	 ================> DF-SCS-MP2 Energies <==================
	-----------------------------------------------------------
	 SCS Same-Spin Scale       =       0.3333333333333333 [-]
	 SCS Opposite-Spin Scale   =       1.2000000000000000 [-]
	 SCS Same-Spin Energy      =      -0.3038047452657206 [Eh]
	 SCS Opposite-Spin Energy  =      -3.0273491118758620 [Eh]
	 SCS Correlation Energy    =      -3.3311538571415826 [Eh]
	 SCS Total Energy          =   -1814.0082772899827432 [Eh]
	-----------------------------------------------------------

  Dipole Moment: [D]
     X:   -15.0232      Y:     2.8254      Z:    -0.2448     Total:    15.2885

*** Psi4 exiting successfully. Buy a developer a beer!
