                               Psi4 1.3.2 release

  ==> Input File <==

--------------------------------------------------------------------------
#psi4
#
memory 32 gb

molecule  {
-4 1
  P        2.5828670     0.0826120    -0.3559070
  P       -0.1833470    -1.1435920     0.2927960
  P       -2.7088530     0.4754690    -0.2006980
  O        1.9534540     1.6068400    -0.1842610
  O        1.2509400    -0.8782220    -0.5450080
  O        3.2679280     0.0927970    -1.6978490
  O        3.3289310    -0.2934220     0.9022790
  O       -0.9881700     0.1612780    -0.2225170
  O        0.0932830    -1.0798150     1.7822090
  O       -0.7150640    -2.4305380    -0.3003910
  O       -3.2327710    -0.2685190     1.0414150
  O       -2.7133724     2.2082110    -0.0822953
  O       -3.2113930    -0.0752120    -1.5473660
  C        1.4216660     1.9681570     1.1052990
  H        1.0169430     1.1016800     1.6278780
  H        2.2027140     2.4392170     1.7103290
  H        0.6160650     2.6819120     0.9264900
units angstrom
no_reorient  #important for SAPT in psi4, default
symmetry c1  #important for SAPT in psi4, default
}

set PROPERTIES_ORIGIN ["COM"]
properties('MP2/aug-cc-pvtz', properties = ['dipole'])
--------------------------------------------------------------------------

    Molecular point group: c1
  Charge       = -4
  Multiplicity = 1
  Basis Set: AUG-CC-PVTZ
    Blend: AUG-CC-PVTZ
  Basis Set: (AUG-CC-PVTZ AUX)
    Blend: AUG-CC-PVTZ-JKFIT

    Orbital Energies [Eh]
    ---------------------

    Doubly Occupied:

       1A    -79.574575     2A    -79.534365     3A    -79.510915
       4A    -20.086302     5A    -20.042690     6A    -20.005949
       7A    -20.004592     8A    -20.004218     9A    -19.955583
      10A    -19.951731    11A    -19.937341    12A    -19.935562
      13A    -19.935472    14A    -10.811086    15A     -7.088406
      16A     -7.047231    17A     -7.020800    18A     -4.987344
      19A     -4.986428    20A     -4.985581    21A     -4.946471
      22A     -4.945197    23A     -4.944152    24A     -4.920265
      25A     -4.918026    26A     -4.917497    27A     -0.903401
      28A     -0.850339    29A     -0.811012    30A     -0.781018
      31A     -0.759339    32A     -0.744409    33A     -0.718460
      34A     -0.705668    35A     -0.674970    36A     -0.621963
      37A     -0.466595    38A     -0.298482    39A     -0.239781
      40A     -0.190554    41A     -0.165710    42A     -0.149097
      43A     -0.129558    44A     -0.105361    45A     -0.086388
      46A     -0.069731    47A     -0.056076    48A     -0.047282
      49A     -0.036592    50A     -0.020076    51A     -0.008738
      52A     -0.002882    53A      0.008755    54A      0.013525
      55A      0.020707    56A      0.035032    57A      0.043786
      58A      0.051647    59A      0.063261    60A      0.067566
      61A      0.085434    62A      0.092772    63A      0.104453
      64A      0.107025    65A      0.117134    66A      0.121653
      67A      0.137177    68A      0.151915    69A      0.165112

  @DF-RHF Final Energy: -1810.65846865620711

   => Energetics <=

    Nuclear Repulsion Energy =           1454.3143139784949653
    One-Electron Energy =               -5483.4369525578576940
    Two-Electron Energy =                2218.4641699231556231
    Total Energy =                      -1810.6584686562068782
  Basis Set: (AUG-CC-PVTZ AUX)
    Blend: AUG-CC-PVTZ-RI
    Molecular point group: c1

    Geometry (in Angstrom), charge = -4, multiplicity = 1:

       Center              X                  Y                   Z               Mass
    ------------   -----------------  -----------------  -----------------  -----------------
         P            2.598210069367     0.095851789704    -0.339983876504    30.973761998420
         P           -0.168003930633    -1.130352210296     0.308719123496    30.973761998420
         P           -2.693509930633     0.488708789704    -0.184774876504    30.973761998420
         O            1.968797069367     1.620079789704    -0.168337876504    15.994914619570
         O            1.266283069367    -0.864982210296    -0.529084876504    15.994914619570
         O            3.283271069367     0.106036789704    -1.681925876504    15.994914619570
         O            3.344274069367    -0.280182210296     0.918202123496    15.994914619570
         O           -0.972826930633     0.174517789704    -0.206593876504    15.994914619570
         O            0.108626069367    -1.066575210296     1.798132123496    15.994914619570
         O           -0.699720930633    -2.417298210296    -0.284467876504    15.994914619570
         O           -3.217427930633    -0.255279210296     1.057338123496    15.994914619570
         O           -2.698029330633     2.221450789704    -0.066372176504    15.994914619570
         O           -3.196049930633    -0.061972210296    -1.531442876504    15.994914619570
         C            1.437009069367     1.981396789704     1.121222123496    12.000000000000
         H            1.032286069367     1.114919789704     1.643801123496     1.007825032230
         H            2.218057069367     2.452456789704     1.726252123496     1.007825032230
         H            0.631408069367     2.695151789704     0.942413123496     1.007825032230

  Basis Set: AUG-CC-PVTZ
    Blend: AUG-CC-PVTZ
  Basis Set: (AUG-CC-PVTZ AUX)
    Blend: AUG-CC-PVTZ-JKFIT
	 Reference Energy          =   -1810.6584686562071056 [Eh]
	 Singles Energy            =      -0.0000000000000000 [Eh]
	 Same-Spin Energy          =      -0.9163041775476733 [Eh]
	 Opposite-Spin Energy      =      -2.5349581033774395 [Eh]
	 Correlation Energy        =      -3.4512622809251128 [Eh]
	 Total Energy              =   -1814.1097309371323263 [Eh]

	 ================> DF-SCS-MP2 Energies <==================
	-----------------------------------------------------------
	 SCS Same-Spin Scale       =       0.3333333333333333 [-]
	 SCS Opposite-Spin Scale   =       1.2000000000000000 [-]
	 SCS Same-Spin Energy      =      -0.3054347258492244 [Eh]
	 SCS Opposite-Spin Energy  =      -3.0419497240529272 [Eh]
	 SCS Correlation Energy    =      -3.3473844499021514 [Eh]
	 SCS Total Energy          =   -1814.0058531061092708 [Eh]
	-----------------------------------------------------------

  Dipole Moment: [D]
     X:     9.4754      Y:     0.6973      Z:     1.5284     Total:     9.6232

*** Psi4 exiting successfully. Buy a developer a beer!
