                               Psi4 1.3.2 release

  ==> Input File <==

--------------------------------------------------------------------------
#psi4
#
memory 32 gb

molecule  {
-4 1
  P        2.5828670     0.0826120    -0.3559070
  P       -0.1833470    -1.1435920     0.2927960
  P       -2.7088530     0.4754690    -0.2006980
  O        1.9534540     1.6068400    -0.1842610
  O        1.2509400    -0.8782220    -0.5450080
  O        3.2679280     0.0927970    -1.6978490
  O        3.3289310    -0.2934220     0.9022790
  O       -0.9881700     0.1612780    -0.2225170
  O        0.0932830    -1.0798150     1.7822090
  O       -0.7150640    -2.4305380    -0.3003910
  O       -3.2349436    -0.2567307     1.0474868
  O       -2.7179125     2.0077588    -0.0835444
  O       -3.2113930    -0.0752120    -1.5473660
  C        1.4216660     1.9681570     1.1052990
  H        1.0169430     1.1016800     1.6278780
  H        2.2027140     2.4392170     1.7103290
  H        0.6160650     2.6819120     0.9264900
units angstrom
no_reorient  #important for SAPT in psi4, default
symmetry c1  #important for SAPT in psi4, default
}

set PROPERTIES_ORIGIN ["COM"]
properties('MP2/aug-cc-pvtz', properties = ['dipole'])
--------------------------------------------------------------------------

    Molecular point group: c1
  Charge       = -4
  Multiplicity = 1
  Basis Set: AUG-CC-PVTZ
    Blend: AUG-CC-PVTZ
  Basis Set: (AUG-CC-PVTZ AUX)
    Blend: AUG-CC-PVTZ-JKFIT

    Orbital Energies [Eh]
    ---------------------

    Doubly Occupied:

       1A    -79.572682     2A    -79.527230     3A    -79.479839
       4A    -20.085738     5A    -20.038506     6A    -20.002940
       7A    -20.002669     8A    -19.993489     9A    -19.950274
      10A    -19.945600    11A    -19.923110    12A    -19.920311
      13A    -19.916548    14A    -10.811712    15A     -7.086504
      16A     -7.040161    17A     -6.993342    18A     -4.985454
      19A     -4.984510    20A     -4.983690    21A     -4.939439
      22A     -4.938052    23A     -4.937119    24A     -4.892795
      25A     -4.890639    26A     -4.890450    27A     -0.902041
      28A     -0.845868    29A     -0.806830    30A     -0.778164
      31A     -0.757723    32A     -0.742194    33A     -0.713770
      34A     -0.699888    35A     -0.663029    36A     -0.659072
      37A     -0.466845    38A     -0.294023    39A     -0.234797
      40A     -0.184235    41A     -0.164081    42A     -0.148850
      43A     -0.126101    44A     -0.099088    45A     -0.082995
      46A     -0.065112    47A     -0.052087    48A     -0.044182
      49A     -0.032081    50A     -0.016199    51A     -0.006792
      52A     -0.000052    53A      0.009672    54A      0.014698
      55A      0.021792    56A      0.037247    57A      0.046952
      58A      0.053400    59A      0.066853    60A      0.070775
      61A      0.090972    62A      0.100121    63A      0.102397
      64A      0.104185    65A      0.113698    66A      0.125017
      67A      0.145255    68A      0.150005    69A      0.172284

  @DF-RHF Final Energy: -1810.68911458024013

   => Energetics <=

    Nuclear Repulsion Energy =           1462.7815488396624914
    One-Electron Energy =               -5501.1541693992385262
    Two-Electron Energy =                2227.6835059793356777
    Total Energy =                      -1810.6891145802401297
  Basis Set: (AUG-CC-PVTZ AUX)
    Blend: AUG-CC-PVTZ-RI
    Molecular point group: c1

    Geometry (in Angstrom), charge = -4, multiplicity = 1:

       Center              X                  Y                   Z               Mass
    ------------   -----------------  -----------------  -----------------  -----------------
         P            2.598610858860     0.107116185385    -0.340271821368    30.973761998420
         P           -0.167603141140    -1.119087814615     0.308431178632    30.973761998420
         P           -2.693109141140     0.499973185385    -0.185062821368    30.973761998420
         O            1.969197858860     1.631344185385    -0.168625821368    15.994914619570
         O            1.266683858860    -0.853717814615    -0.529372821368    15.994914619570
         O            3.283671858860     0.117301185385    -1.682213821368    15.994914619570
         O            3.344674858860    -0.268917814615     0.917914178632    15.994914619570
         O           -0.972426141140     0.185782185385    -0.206881821368    15.994914619570
         O            0.109026858860    -1.055310814615     1.797844178632    15.994914619570
         O           -0.699320141140    -2.406033814615    -0.284755821368    15.994914619570
         O           -3.219199741140    -0.232226514615     1.063121978632    15.994914619570
         O           -2.702168641140     2.032262985385    -0.067909221368    15.994914619570
         O           -3.195649141140    -0.050707814615    -1.531730821368    15.994914619570
         C            1.437409858860     1.992661185385     1.120934178632    12.000000000000
         H            1.032686858860     1.126184185385     1.643513178632     1.007825032230
         H            2.218457858860     2.463721185385     1.725964178632     1.007825032230
         H            0.631808858860     2.706416185385     0.942125178632     1.007825032230

  Basis Set: AUG-CC-PVTZ
    Blend: AUG-CC-PVTZ
  Basis Set: (AUG-CC-PVTZ AUX)
    Blend: AUG-CC-PVTZ-JKFIT
	 Reference Energy          =   -1810.6891145802401297 [Eh]
	 Singles Energy            =      -0.0000000000000000 [Eh]
	 Same-Spin Energy          =      -0.9129835910163924 [Eh]
	 Opposite-Spin Energy      =      -2.5257253774082504 [Eh]
	 Correlation Energy        =      -3.4387089684246428 [Eh]
	 Total Energy              =   -1814.1278235486647645 [Eh]

	 ================> DF-SCS-MP2 Energies <==================
	-----------------------------------------------------------
	 SCS Same-Spin Scale       =       0.3333333333333333 [-]
	 SCS Opposite-Spin Scale   =       1.2000000000000000 [-]
	 SCS Same-Spin Energy      =      -0.3043278636721308 [Eh]
	 SCS Opposite-Spin Energy  =      -3.0308704528899004 [Eh]
	 SCS Correlation Energy    =      -3.3351983165620314 [Eh]
	 SCS Total Energy          =   -1814.0243128968022575 [Eh]
	-----------------------------------------------------------

  Dipole Moment: [D]
     X:     9.2800      Y:     2.3082      Z:     1.5606     Total:     9.6893

*** Psi4 exiting successfully. Buy a developer a beer!
