                               Psi4 1.3.2 release

  ==> Input File <==

--------------------------------------------------------------------------
#psi4
#
memory 32 gb

molecule  {
-4 1
  P        2.5828670     0.0826120    -0.3559070
  P       -0.1833470    -1.1435920     0.2927960
  P       -2.7088530     0.4754690    -0.2006980
  O        1.9534540     1.6068400    -0.1842610
  O        1.2509400    -0.8782220    -0.5450080
  O        3.1769942     0.0914451    -1.5197220
  O        3.3289310    -0.2934220     0.9022790
  O       -0.9881700     0.1612780    -0.2225170
  O        0.0932830    -1.0798150     1.7822090
  O       -0.7150640    -2.4305380    -0.3003910
  O       -3.2327710    -0.2685190     1.0414150
  O       -2.7128520     2.0086770    -0.0959300
  O       -3.2113930    -0.0752120    -1.5473660
  C        1.4216660     1.9681570     1.1052990
  H        1.0169430     1.1016800     1.6278780
  H        2.2027140     2.4392170     1.7103290
  H        0.6160650     2.6819120     0.9264900
units angstrom
no_reorient  #important for SAPT in psi4, default
symmetry c1  #important for SAPT in psi4, default
}

set PROPERTIES_ORIGIN ["COM"]
properties('MP2/aug-cc-pvtz', properties = ['dipole'])
--------------------------------------------------------------------------

    Molecular point group: c1
  Charge       = -4
  Multiplicity = 1
  Basis Set: AUG-CC-PVTZ
    Blend: AUG-CC-PVTZ
  Basis Set: (AUG-CC-PVTZ AUX)
    Blend: AUG-CC-PVTZ-JKFIT

    Orbital Energies [Eh]
    ---------------------

    Doubly Occupied:

       1A    -79.522733     2A    -79.518961     3A    -79.476390
       4A    -20.071020     5A    -20.023228     6A    -19.989091
       7A    -19.987383     8A    -19.983987     9A    -19.942979
      10A    -19.939210    11A    -19.920709    12A    -19.916429
      13A    -19.914000    14A    -10.801897    15A     -7.050612
      16A     -7.031921    17A     -6.989875    18A     -4.951240
      19A     -4.947135    20A     -4.945931    21A     -4.931113
      22A     -4.929884    23A     -4.928952    24A     -4.889316
      25A     -4.887169    26A     -4.887024    27A     -0.922663
      28A     -0.847521    29A     -0.830572    30A     -0.781478
      31A     -0.753697    32A     -0.735811    33A     -0.708635
      34A     -0.693215    35A     -0.660283    36A     -0.655934
      37A     -0.456555    38A     -0.280557    39A     -0.227634
      40A     -0.180829    41A     -0.155704    42A     -0.143655
      43A     -0.132490    44A     -0.098245    45A     -0.088017
      46A     -0.060212    47A     -0.053460    48A     -0.040536
      49A     -0.030662    50A     -0.015968    51A     -0.011343
      52A     -0.001551    53A      0.008650    54A      0.013133
      55A      0.023040    56A      0.032459    57A      0.052038
      58A      0.064089    59A      0.072927    60A      0.075169
      61A      0.096742    62A      0.104179    63A      0.106600
      64A      0.107940    65A      0.119830    66A      0.131169
      67A      0.148075    68A      0.154023    69A      0.175155

  @DF-RHF Final Energy: -1810.63845086083211

   => Energetics <=

    Nuclear Repulsion Energy =           1474.2334274844988613
    One-Electron Energy =               -5524.8233620773280563
    Two-Electron Energy =                2239.9514837319970866
    Total Energy =                      -1810.6384508608321084
  Basis Set: (AUG-CC-PVTZ AUX)
    Blend: AUG-CC-PVTZ-RI
    Molecular point group: c1

    Geometry (in Angstrom), charge = -4, multiplicity = 1:

       Center              X                  Y                   Z               Mass
    ------------   -----------------  -----------------  -----------------  -----------------
         P            2.603608305662     0.107845913987    -0.349805078937    30.973761998420
         P           -0.162605694338    -1.118358086013     0.298897921063    30.973761998420
         P           -2.688111694338     0.500702913987    -0.194596078937    30.973761998420
         O            1.974195305662     1.632073913987    -0.178159078937    15.994914619570
         O            1.271681305662    -0.852988086013    -0.538906078937    15.994914619570
         O            3.197735505662     0.116679013987    -1.513620078937    15.994914619570
         O            3.349672305662    -0.268188086013     0.908380921063    15.994914619570
         O           -0.967428694338     0.186511913987    -0.216415078937    15.994914619570
         O            0.114024305662    -1.054581086013     1.788310921063    15.994914619570
         O           -0.694322694338    -2.405304086013    -0.294289078937    15.994914619570
         O           -3.212029694338    -0.243285086013     1.047516921063    15.994914619570
         O           -2.692110694338     2.033910913987    -0.089828078937    15.994914619570
         O           -3.190651694338    -0.049978086013    -1.541264078937    15.994914619570
         C            1.442407305662     1.993390913987     1.111400921063    12.000000000000
         H            1.037684305662     1.126913913987     1.633979921063     1.007825032230
         H            2.223455305662     2.464450913987     1.716430921063     1.007825032230
         H            0.636806305662     2.707145913987     0.932591921063     1.007825032230

  Basis Set: AUG-CC-PVTZ
    Blend: AUG-CC-PVTZ
  Basis Set: (AUG-CC-PVTZ AUX)
    Blend: AUG-CC-PVTZ-JKFIT
	 Reference Energy          =   -1810.6384508608321084 [Eh]
	 Singles Energy            =      -0.0000000000000000 [Eh]
	 Same-Spin Energy          =      -0.9095430670950221 [Eh]
	 Opposite-Spin Energy      =      -2.5170195853226662 [Eh]
	 Correlation Energy        =      -3.4265626524176884 [Eh]
	 Total Energy              =   -1814.0650135132498235 [Eh]

	 ================> DF-SCS-MP2 Energies <==================
	-----------------------------------------------------------
	 SCS Same-Spin Scale       =       0.3333333333333333 [-]
	 SCS Opposite-Spin Scale   =       1.2000000000000000 [-]
	 SCS Same-Spin Energy      =      -0.3031810223650073 [Eh]
	 SCS Opposite-Spin Energy  =      -3.0204235023871995 [Eh]
	 SCS Correlation Energy    =      -3.3236045247522066 [Eh]
	 SCS Total Energy          =   -1813.9620553855843355 [Eh]
	-----------------------------------------------------------

  Dipole Moment: [D]
     X:    10.1506      Y:     2.3512      Z:     0.4004     Total:    10.4271

*** Psi4 exiting successfully. Buy a developer a beer!
