                               Psi4 1.3.2 release

  ==> Input File <==

--------------------------------------------------------------------------
#psi4
#
memory 32 gb

molecule  {
-4 1
  P        2.5828670     0.0826120    -0.3559070
  P       -0.1833470    -1.1435920     0.2927960
  P       -2.7088530     0.4754690    -0.2006980
  O        1.9534540     1.6068400    -0.1842610
  O        1.2509400    -0.8782220    -0.5450080
  O        3.2679280     0.0927970    -1.6978490
  O        3.3289310    -0.2934220     0.9022790
  O       -0.9881700     0.1612780    -0.2225170
  O        0.0932830    -1.0798150     1.7822090
  O       -0.7150640    -2.4305380    -0.3003910
  O       -3.1987450    -0.2202005     0.9607456
  O       -2.7128520     2.0086770    -0.0959300
  O       -3.2113930    -0.0752120    -1.5473660
  C        1.4216660     1.9681570     1.1052990
  H        1.0169430     1.1016800     1.6278780
  H        2.2027140     2.4392170     1.7103290
  H        0.6160650     2.6819120     0.9264900
units angstrom
no_reorient  #important for SAPT in psi4, default
symmetry c1  #important for SAPT in psi4, default
}

set PROPERTIES_ORIGIN ["COM"]
properties('MP2/aug-cc-pvtz', properties = ['dipole'])
--------------------------------------------------------------------------

    Molecular point group: c1
  Charge       = -4
  Multiplicity = 1
  Basis Set: AUG-CC-PVTZ
    Blend: AUG-CC-PVTZ
  Basis Set: (AUG-CC-PVTZ AUX)
    Blend: AUG-CC-PVTZ-JKFIT

    Orbital Energies [Eh]
    ---------------------

    Doubly Occupied:

       1A    -79.571232     2A    -79.524807     3A    -79.459130
       4A    -20.084178     5A    -20.036471     6A    -20.001773
       7A    -20.001310     8A    -19.985695     9A    -19.949668
      10A    -19.944174    11A    -19.914912    12A    -19.911388
      13A    -19.909944    14A    -10.810350    15A     -7.085047
      16A     -7.037744    17A     -6.976958    18A     -4.983996
      19A     -4.983051    20A     -4.982242    21A     -4.937039
      22A     -4.935591    23A     -4.934748    24A     -4.876050
      25A     -4.874808    26A     -4.873608    27A     -0.900416
      28A     -0.843742    29A     -0.806101    30A     -0.781044
      31A     -0.756517    32A     -0.747202    33A     -0.717894
      34A     -0.698806    35A     -0.673515    36A     -0.654185
      37A     -0.465419    38A     -0.291720    39A     -0.231782
      40A     -0.180470    41A     -0.161981    42A     -0.147193
      43A     -0.124266    44A     -0.096191    45A     -0.081025
      46A     -0.064601    47A     -0.050359    48A     -0.042425
      49A     -0.030320    50A     -0.016701    51A     -0.006186
      52A     -0.001108    53A      0.008886    54A      0.015158
      55A      0.019520    56A      0.038705    57A      0.048742
      58A      0.054637    59A      0.067896    60A      0.071917
      61A      0.090931    62A      0.097041    63A      0.099357
      64A      0.106709    65A      0.113959    66A      0.126471
      67A      0.141929    68A      0.155357    69A      0.176002

  @DF-RHF Final Energy: -1810.68629289947239

   => Energetics <=

    Nuclear Repulsion Energy =           1467.7149168123128220
    One-Electron Energy =               -5511.3546823839078570
    Two-Electron Energy =                2232.9534726721226434
    Total Energy =                      -1810.6862928994723916
  Basis Set: (AUG-CC-PVTZ AUX)
    Blend: AUG-CC-PVTZ-RI
    Molecular point group: c1

    Geometry (in Angstrom), charge = -4, multiplicity = 1:

       Center              X                  Y                   Z               Mass
    ------------   -----------------  -----------------  -----------------  -----------------
         P            2.596147436722     0.104880285484    -0.334353341480    30.973761998420
         P           -0.170066563278    -1.121323714516     0.314349658520    30.973761998420
         P           -2.695572563278     0.497737285484    -0.179144341480    30.973761998420
         O            1.966734436722     1.629108285484    -0.162707341480    15.994914619570
         O            1.264220436722    -0.855953714516    -0.523454341480    15.994914619570
         O            3.281208436722     0.115065285484    -1.676295341480    15.994914619570
         O            3.342211436722    -0.271153714516     0.923832658520    15.994914619570
         O           -0.974889563278     0.183546285484    -0.200963341480    15.994914619570
         O            0.106563436722    -1.057546714516     1.803762658520    15.994914619570
         O           -0.701783563278    -2.408269714516    -0.278837341480    15.994914619570
         O           -3.185464563278    -0.197932214516     0.982299258520    15.994914619570
         O           -2.699571563278     2.030945285484    -0.074376341480    15.994914619570
         O           -3.198112563278    -0.052943714516    -1.525812341480    15.994914619570
         C            1.434946436722     1.990425285484     1.126852658520    12.000000000000
         H            1.030223436722     1.123948285484     1.649431658520     1.007825032230
         H            2.215994436722     2.461485285484     1.731882658520     1.007825032230
         H            0.629345436722     2.704180285484     0.948043658520     1.007825032230

  Basis Set: AUG-CC-PVTZ
    Blend: AUG-CC-PVTZ
  Basis Set: (AUG-CC-PVTZ AUX)
    Blend: AUG-CC-PVTZ-JKFIT
	 Reference Energy          =   -1810.6862928994723916 [Eh]
	 Singles Energy            =      -0.0000000000000000 [Eh]
	 Same-Spin Energy          =      -0.9112062335416861 [Eh]
	 Opposite-Spin Energy      =      -2.5211075457608092 [Eh]
	 Correlation Energy        =      -3.4323137793024951 [Eh]
	 Total Energy              =   -1814.1186066787749951 [Eh]

	 ================> DF-SCS-MP2 Energies <==================
	-----------------------------------------------------------
	 SCS Same-Spin Scale       =       0.3333333333333333 [-]
	 SCS Opposite-Spin Scale   =       1.2000000000000000 [-]
	 SCS Same-Spin Energy      =      -0.3037354111805620 [Eh]
	 SCS Opposite-Spin Energy  =      -3.0253290549129708 [Eh]
	 SCS Correlation Energy    =      -3.3290644660935329 [Eh]
	 SCS Total Energy          =   -1814.0153573655659329 [Eh]
	-----------------------------------------------------------

  Dipole Moment: [D]
     X:     8.9043      Y:     2.0521      Z:     2.1557     Total:     9.3885

*** Psi4 exiting successfully. Buy a developer a beer!
