                               Psi4 1.3.2 release

  ==> Input File <==

--------------------------------------------------------------------------
#psi4
#
memory 32 gb

molecule  {
-4 1
  P        2.5828670     0.0826120    -0.3559070
  P       -0.1833470    -1.1435920     0.2927960
  P       -2.7088530     0.4754690    -0.2006980
  O        1.9534540     1.6068400    -0.1842610
  O        1.2509400    -0.8782220    -0.5450080
  O        3.3124183     0.0776896    -1.6742208
  O        3.3723252    -0.3007452     0.8732546
  O       -0.9881700     0.1612780    -0.2225170
  O        0.0932830    -1.0798150     1.7822090
  O       -0.7150640    -2.4305380    -0.3003910
  O       -3.2327710    -0.2685190     1.0414150
  O       -2.7128520     2.0086770    -0.0959300
  O       -3.2113930    -0.0752120    -1.5473660
  C        1.4216660     1.9681570     1.1052990
  H        1.0169430     1.1016800     1.6278780
  H        2.2027140     2.4392170     1.7103290
  H        0.6160650     2.6819120     0.9264900
units angstrom
no_reorient  #important for SAPT in psi4, default
symmetry c1  #important for SAPT in psi4, default
}

set PROPERTIES_ORIGIN ["COM"]
properties('MP2/aug-cc-pvtz', properties = ['dipole'])
--------------------------------------------------------------------------

    Molecular point group: c1
  Charge       = -4
  Multiplicity = 1
  Basis Set: AUG-CC-PVTZ
    Blend: AUG-CC-PVTZ
  Basis Set: (AUG-CC-PVTZ AUX)
    Blend: AUG-CC-PVTZ-JKFIT

    Orbital Energies [Eh]
    ---------------------

    Doubly Occupied:

       1A    -79.572372     2A    -79.528776     3A    -79.480901
       4A    -20.088609     5A    -20.041800     6A    -19.999566
       7A    -19.999443     8A    -19.994483     9A    -19.951952
      10A    -19.946731    11A    -19.924909    12A    -19.920150
      13A    -19.918352    14A    -10.813988    15A     -7.086201
      16A     -7.041719    17A     -6.994411    18A     -4.985130
      19A     -4.984066    20A     -4.983484    21A     -4.941011
      22A     -4.939593    23A     -4.938667    24A     -4.893876
      25A     -4.891681    26A     -4.891531    27A     -0.903295
      28A     -0.847919    29A     -0.807376    30A     -0.779627
      31A     -0.752797    32A     -0.743687    33A     -0.714871
      34A     -0.701236    35A     -0.664435    36A     -0.660023
      37A     -0.469041    38A     -0.295877    39A     -0.236278
      40A     -0.185633    41A     -0.165614    42A     -0.150550
      43A     -0.126037    44A     -0.100119    45A     -0.083181
      46A     -0.066485    47A     -0.051964    48A     -0.045368
      49A     -0.033016    50A     -0.017163    51A     -0.008427
      52A     -0.000979    53A      0.008480    54A      0.014952
      55A      0.020282    56A      0.037148    57A      0.046035
      58A      0.055687    59A      0.067230    60A      0.073003
      61A      0.089602    62A      0.099383    63A      0.101125
      64A      0.102800    65A      0.112457    66A      0.123769
      67A      0.143468    68A      0.149426    69A      0.171097

  @DF-RHF Final Energy: -1810.69001189685423

   => Energetics <=

    Nuclear Repulsion Energy =           1461.7641303482912463
    One-Electron Energy =               -5499.0113766915264932
    Two-Electron Energy =                2226.5572344463807894
    Total Energy =                      -1810.6900118968542301
  Basis Set: (AUG-CC-PVTZ AUX)
    Blend: AUG-CC-PVTZ-RI
    Molecular point group: c1

    Geometry (in Angstrom), charge = -4, multiplicity = 1:

       Center              X                  Y                   Z               Mass
    ------------   -----------------  -----------------  -----------------  -----------------
         P            2.592931752880     0.109104442075    -0.338847614677    30.973761998420
         P           -0.173282247120    -1.117099557925     0.309855385323    30.973761998420
         P           -2.698788247120     0.501961442075    -0.183638614677    30.973761998420
         O            1.963518752880     1.633332442075    -0.167201614677    15.994914619570
         O            1.261004752880    -0.851729557925    -0.527948614677    15.994914619570
         O            3.322483052880     0.104182042075    -1.657161414677    15.994914619570
         O            3.382389952880    -0.274252757925     0.890313985323    15.994914619570
         O           -0.978105247120     0.187770442075    -0.205457614677    15.994914619570
         O            0.103347752880    -1.053322557925     1.799268385323    15.994914619570
         O           -0.704999247120    -2.404045557925    -0.283331614677    15.994914619570
         O           -3.222706247120    -0.242026557925     1.058474385323    15.994914619570
         O           -2.702787247120     2.035169442075    -0.078870614677    15.994914619570
         O           -3.201328247120    -0.048719557925    -1.530306614677    15.994914619570
         C            1.431730752880     1.994649442075     1.122358385323    12.000000000000
         H            1.027007752880     1.128172442075     1.644937385323     1.007825032230
         H            2.212778752880     2.465709442075     1.727388385323     1.007825032230
         H            0.626129752880     2.708404442075     0.943549385323     1.007825032230

  Basis Set: AUG-CC-PVTZ
    Blend: AUG-CC-PVTZ
  Basis Set: (AUG-CC-PVTZ AUX)
    Blend: AUG-CC-PVTZ-JKFIT
	 Reference Energy          =   -1810.6900118968542301 [Eh]
	 Singles Energy            =      -0.0000000000000000 [Eh]
	 Same-Spin Energy          =      -0.9127921851682341 [Eh]
	 Opposite-Spin Energy      =      -2.5253778612649636 [Eh]
	 Correlation Energy        =      -3.4381700464331977 [Eh]
	 Total Energy              =   -1814.1281819432874727 [Eh]

	 ================> DF-SCS-MP2 Energies <==================
	-----------------------------------------------------------
	 SCS Same-Spin Scale       =       0.3333333333333333 [-]
	 SCS Opposite-Spin Scale   =       1.2000000000000000 [-]
	 SCS Same-Spin Energy      =      -0.3042640617227447 [Eh]
	 SCS Opposite-Spin Energy  =      -3.0304534335179563 [Eh]
	 SCS Correlation Energy    =      -3.3347174952407008 [Eh]
	 SCS Total Energy          =   -1814.0247293920949687 [Eh]
	-----------------------------------------------------------

  Dipole Moment: [D]
     X:     8.9725      Y:     2.3967      Z:     1.6369     Total:     9.4302

*** Psi4 exiting successfully. Buy a developer a beer!
