                               Psi4 1.3.2 release

  ==> Input File <==

--------------------------------------------------------------------------
#psi4
#
memory 32 gb

molecule  {
-4 1
  P        2.5828670     0.0826120    -0.3559070
  P       -0.1833470    -1.1435920     0.2927960
  P       -2.7088530     0.4754690    -0.2006980
  O        1.9335947     1.5354264    -0.1702348
  O        1.2509400    -0.8782220    -0.5450080
  O        3.2679280     0.0927970    -1.6978490
  O        3.3289310    -0.2934220     0.9022790
  O       -0.9881700     0.1612780    -0.2225170
  O        0.0932830    -1.0798150     1.7822090
  O       -0.7150640    -2.4305380    -0.3003910
  O       -3.2327710    -0.2685190     1.0414150
  O       -2.7128520     2.0086770    -0.0959300
  O       -3.2113930    -0.0752120    -1.5473660
  C        1.4216660     1.9681570     1.1052990
  H        1.0317721     1.0696124     1.5830774
  H        2.2027140     2.4392170     1.7103290
  H        0.6160650     2.6819120     0.9264900
units angstrom
no_reorient  #important for SAPT in psi4, default
symmetry c1  #important for SAPT in psi4, default
}

set PROPERTIES_ORIGIN ["COM"]
properties('MP2/aug-cc-pvtz', properties = ['dipole'])
--------------------------------------------------------------------------

    Molecular point group: c1
  Charge       = -4
  Multiplicity = 1
  Basis Set: AUG-CC-PVTZ
    Blend: AUG-CC-PVTZ
  Basis Set: (AUG-CC-PVTZ AUX)
    Blend: AUG-CC-PVTZ-JKFIT

    Orbital Energies [Eh]
    ---------------------

    Doubly Occupied:

       1A    -79.566010     2A    -79.525094     3A    -79.479501
       4A    -20.083325     5A    -20.032107     6A    -20.000270
       7A    -19.998343     8A    -19.991993     9A    -19.948956
      10A    -19.943466    11A    -19.923924    12A    -19.918842
      13A    -19.916982    14A    -10.816016    15A     -7.080750
      16A     -7.038006    17A     -6.993001    18A     -4.979911
      19A     -4.978695    20A     -4.977930    21A     -4.937255
      22A     -4.935920    23A     -4.934993    24A     -4.892457
      25A     -4.890285    26A     -4.890130    27A     -0.913177
      28A     -0.843471    29A     -0.804669    30A     -0.775726
      31A     -0.754754    32A     -0.740513    33A     -0.712767
      34A     -0.698154    35A     -0.663307    36A     -0.658669
      37A     -0.475207    38A     -0.291755    39A     -0.236662
      40A     -0.187328    41A     -0.171415    42A     -0.155101
      43A     -0.124120    44A     -0.098241    45A     -0.081761
      46A     -0.063310    47A     -0.052430    48A     -0.039264
      49A     -0.031642    50A     -0.014804    51A     -0.008060
      52A      0.001189    53A      0.008821    54A      0.016267
      55A      0.022434    56A      0.039190    57A      0.048591
      58A      0.056992    59A      0.069699    60A      0.073058
      61A      0.092679    62A      0.100996    63A      0.102892
      64A      0.104459    65A      0.115354    66A      0.126572
      67A      0.144808    68A      0.150971    69A      0.172320

  @DF-RHF Final Energy: -1810.68807167462774

   => Energetics <=

    Nuclear Repulsion Energy =           1466.2193249711999670
    One-Electron Energy =               -5508.1684371351466325
    Two-Electron Energy =                2231.2610404893189298
    Total Energy =                      -1810.6880716746277358
  Basis Set: (AUG-CC-PVTZ AUX)
    Blend: AUG-CC-PVTZ-RI
    Molecular point group: c1

    Geometry (in Angstrom), charge = -4, multiplicity = 1:

       Center              X                  Y                   Z               Mass
    ------------   -----------------  -----------------  -----------------  -----------------
         P            2.599308933164     0.112149667855    -0.339838710242    30.973761998420
         P           -0.166905066836    -1.114054332145     0.308864289758    30.973761998420
         P           -2.692411066836     0.505006667855    -0.184629710242    30.973761998420
         O            1.950036633164     1.564964067855    -0.154166510242    15.994914619570
         O            1.267381933164    -0.848684332145    -0.528939710242    15.994914619570
         O            3.284369933164     0.122334667855    -1.681780710242    15.994914619570
         O            3.345372933164    -0.263884332145     0.918347289758    15.994914619570
         O           -0.971728066836     0.190815667855    -0.206448710242    15.994914619570
         O            0.109724933164    -1.050277332145     1.798277289758    15.994914619570
         O           -0.698622066836    -2.401000332145    -0.284322710242    15.994914619570
         O           -3.216329066836    -0.238981332145     1.057483289758    15.994914619570
         O           -2.696410066836     2.038214667855    -0.079861710242    15.994914619570
         O           -3.194951066836    -0.045674332145    -1.531297710242    15.994914619570
         C            1.438107933164     1.997694667855     1.121367289758    12.000000000000
         H            1.048214033164     1.099150067855     1.599145689758     1.007825032230
         H            2.219155933164     2.468754667855     1.726397289758     1.007825032230
         H            0.632506933164     2.711449667855     0.942558289758     1.007825032230

  Basis Set: AUG-CC-PVTZ
    Blend: AUG-CC-PVTZ
  Basis Set: (AUG-CC-PVTZ AUX)
    Blend: AUG-CC-PVTZ-JKFIT
	 Reference Energy          =   -1810.6880716746277358 [Eh]
	 Singles Energy            =      -0.0000000000000000 [Eh]
	 Same-Spin Energy          =      -0.9125501515356595 [Eh]
	 Opposite-Spin Energy      =      -2.5240879711236834 [Eh]
	 Correlation Energy        =      -3.4366381226593430 [Eh]
	 Total Energy              =   -1814.1247097972870961 [Eh]

	 ================> DF-SCS-MP2 Energies <==================
	-----------------------------------------------------------
	 SCS Same-Spin Scale       =       0.3333333333333333 [-]
	 SCS Opposite-Spin Scale   =       1.2000000000000000 [-]
	 SCS Same-Spin Energy      =      -0.3041833838452198 [Eh]
	 SCS Opposite-Spin Energy  =      -3.0289055653484200 [Eh]
	 SCS Correlation Energy    =      -3.3330889491936397 [Eh]
	 SCS Total Energy          =   -1814.0211606238212880 [Eh]
	-----------------------------------------------------------

  Dipole Moment: [D]
     X:     9.2360      Y:     2.6377      Z:     1.6460     Total:     9.7453

*** Psi4 exiting successfully. Buy a developer a beer!
