                               Psi4 1.4a3.dev225

  ==> Input File <==

--------------------------------------------------------------------------
#psi4
#
memory 32 gb

molecule  {
-4 1
  P       -2.5202440    -0.2449420     0.3712220
  P        0.3565170    -0.5960480    -0.3589090
  P        3.1750170     0.3881900     0.1554910
  O       -2.7927880     1.3311510    -0.1150520
  O       -0.9365978    -0.0855837     0.6389623
  O       -3.1856250    -0.4605710     1.7148300
  O       -2.8507450    -1.1694890    -0.7786080
  O        1.4898640     0.0841660     0.5723090
  O        0.2127210     0.0849480    -1.7048820
  O        0.4027150    -2.1095660    -0.2874290
  O        3.5327910    -0.6840640    -0.8835370
  O        3.1643710     1.8286230    -0.3742880
  O        3.8338960     0.2099350     1.5311200
  C       -4.1398760     1.5889580    -0.5252390
  H       -4.4292020     0.9309370    -1.3496150
  H       -4.8386320     1.4471050     0.3059850
  H       -4.1840730     2.6280350    -0.8559160
units angstrom
no_reorient  #important for SAPT in psi4, default
symmetry c1  #important for SAPT in psi4, default
}

set PROPERTIES_ORIGIN ["COM"]
properties('MP2/aug-cc-pvtz', properties = ['dipole'])
--------------------------------------------------------------------------

    Molecular point group: c1
  Charge       = -4
  Multiplicity = 1
  Basis Set: AUG-CC-PVTZ
    Blend: AUG-CC-PVTZ
  Basis Set: (AUG-CC-PVTZ AUX)
    Blend: AUG-CC-PVTZ-JKFIT

    Orbital Energies [Eh]
    ---------------------

    Doubly Occupied:

       1A    -79.577225     2A    -79.519867     3A    -79.476580
       4A    -20.117388     5A    -20.041459     6A    -20.012730
       7A    -20.002871     8A    -19.986424     9A    -19.938552
      10A    -19.936648    11A    -19.922905    12A    -19.917945
      13A    -19.914170    14A    -10.882123    15A     -7.091884
      16A     -7.032731    17A     -6.990340    18A     -4.991033
      19A     -4.989762    20A     -4.988802    21A     -4.932125
      22A     -4.930537    23A     -4.929389    24A     -4.889747
      25A     -4.887616    26A     -4.887487    27A     -0.930450
      28A     -0.854722    29A     -0.806361    30A     -0.778830
      31A     -0.759339    32A     -0.738140    33A     -0.707298
      34A     -0.688320    35A     -0.662904    36A     -0.658210
      37A     -0.526918    38A     -0.308438    39A     -0.252146
      40A     -0.219437    41A     -0.195952    42A     -0.165376
      43A     -0.140264    44A     -0.108498    45A     -0.094706
      46A     -0.078489    47A     -0.062613    48A     -0.051835
      49A     -0.035721    50A     -0.024096    51A     -0.013864
      52A     -0.010512    53A      0.010104    54A      0.011409
      55A      0.022064    56A      0.034775    57A      0.049691
      58A      0.053464    59A      0.063545    60A      0.080599
      61A      0.096265    62A      0.102436    63A      0.105874
      64A      0.106901    65A      0.123431    66A      0.133979
      67A      0.146947    68A      0.153245    69A      0.173617

  @DF-RHF Final Energy: -1810.67709302073899

   => Energetics <=

    Nuclear Repulsion Energy =           1425.8267948327470549
    One-Electron Energy =               -5426.6209096592210699
    Two-Electron Energy =                2190.1170218057350212
    Total Energy =                      -1810.6770930207389938
  Basis Set: (AUG-CC-PVTZ AUX)
    Blend: AUG-CC-PVTZ-RI
    Molecular point group: c1

    Geometry (in Angstrom), charge = -4, multiplicity = 1:

       Center              X                  Y                   Z               Mass
    ------------   -----------------  -----------------  -----------------  -----------------
         P           -2.572513991517    -0.224656171692     0.363780792833    30.973761998420
         P            0.304247008483    -0.575762171692    -0.366350207167    30.973761998420
         P            3.122747008483     0.408475828308     0.148049792833    30.973761998420
         O           -2.845057991517     1.351436828308    -0.122493207167    15.994914619570
         O           -0.988867791517    -0.065297871692     0.631521092833    15.994914619570
         O           -3.237894991517    -0.440285171692     1.707388792833    15.994914619570
         O           -2.903014991517    -1.149203171692    -0.786049207167    15.994914619570
         O            1.437594008483     0.104451828308     0.564867792833    15.994914619570
         O            0.160451008483     0.105233828308    -1.712323207167    15.994914619570
         O            0.350445008483    -2.089280171692    -0.294870207167    15.994914619570
         O            3.480521008483    -0.663778171692    -0.890978207167    15.994914619570
         O            3.112101008483     1.848908828308    -0.381729207167    15.994914619570
         O            3.781626008483     0.230220828308     1.523678792833    15.994914619570
         C           -4.192145991517     1.609243828308    -0.532680207167    12.000000000000
         H           -4.481471991517     0.951222828308    -1.357056207167     1.007825032230
         H           -4.890901991517     1.467390828308     0.298543792833     1.007825032230
         H           -4.236342991517     2.648320828308    -0.863357207167     1.007825032230

  Basis Set: AUG-CC-PVTZ
    Blend: AUG-CC-PVTZ
  Basis Set: (AUG-CC-PVTZ AUX)
    Blend: AUG-CC-PVTZ-JKFIT
	 Reference Energy          =   -1810.6770930207389938 [Eh]
	 Singles Energy            =      -0.0000000000000000 [Eh]
	 Same-Spin Energy          =      -0.9122623024418421 [Eh]
	 Opposite-Spin Energy      =      -2.5248790130693126 [Eh]
	 Correlation Energy        =      -3.4371413155111545 [Eh]
	 Total Energy              =   -1814.1142343362500924 [Eh]

	 ================> DF-SCS-MP2 Energies <==================
	-----------------------------------------------------------
	 SCS Same-Spin Scale       =       0.3333333333333333 [-]
	 SCS Opposite-Spin Scale   =       1.2000000000000000 [-]
	 SCS Same-Spin Energy      =      -0.3040874341472807 [Eh]
	 SCS Opposite-Spin Energy  =      -3.0298548156831751 [Eh]
	 SCS Correlation Energy    =      -3.3339422498304558 [Eh]
	 SCS Total Energy          =   -1814.0110352705694368 [Eh]
	-----------------------------------------------------------

  Dipole Moment: [D]
     X:   -14.7547      Y:     2.6982      Z:    -0.0228     Total:    14.9994

*** Psi4 exiting successfully. Buy a developer a beer!
