                               Psi4 1.4a3.dev225

  ==> Input File <==

--------------------------------------------------------------------------
#psi4
#
memory 32 gb

molecule  {
-4 1
  P       -2.5202440    -0.2449420     0.3712220
  P        0.3565170    -0.5960480    -0.3589090
  P        3.1750170     0.3881900     0.1554910
  O       -2.7895275     1.3122956    -0.1092345
  O       -0.9169740    -0.0836090     0.6422800
  O       -3.1856250    -0.4605710     1.7148300
  O       -2.8507450    -1.1694890    -0.7786080
  O        1.4898640     0.0841660     0.5723090
  O        0.2127210     0.0849480    -1.7048820
  O        0.4027150    -2.1095660    -0.2874290
  O        3.5327910    -0.6840640    -0.8835370
  O        3.1643710     1.8286230    -0.3742880
  O        3.8338960     0.2099350     1.5311200
  C       -4.1398760     1.5889580    -0.5252390
  H       -4.4292020     0.9309370    -1.3496150
  H       -4.8386320     1.4471050     0.3059850
  H       -4.1840730     2.6280350    -0.8559160
units angstrom
no_reorient  #important for SAPT in psi4, default
symmetry c1  #important for SAPT in psi4, default
}

set PROPERTIES_ORIGIN ["COM"]
properties('MP2/aug-cc-pvtz', properties = ['dipole'])
--------------------------------------------------------------------------

    Molecular point group: c1
  Charge       = -4
  Multiplicity = 1
  Basis Set: AUG-CC-PVTZ
    Blend: AUG-CC-PVTZ
  Basis Set: (AUG-CC-PVTZ AUX)
    Blend: AUG-CC-PVTZ-JKFIT

    Orbital Energies [Eh]
    ---------------------

    Doubly Occupied:

       1A    -79.578297     2A    -79.516649     3A    -79.475208
       4A    -20.119786     5A    -20.040440     6A    -20.013229
       7A    -20.003116     8A    -19.983869     9A    -19.936366
      10A    -19.934844    11A    -19.921766    12A    -19.916877
      13A    -19.912983    14A    -10.885867    15A     -7.092873
      16A     -7.029707    17A     -6.988964    18A     -4.992061
      19A     -4.990727    20A     -4.989792    21A     -4.929103
      22A     -4.927533    23A     -4.926391    24A     -4.888358
      25A     -4.886253    26A     -4.886125    27A     -0.933779
      28A     -0.852100    29A     -0.805739    30A     -0.777072
      31A     -0.759751    32A     -0.736057    33A     -0.705551
      34A     -0.686500    35A     -0.661783    36A     -0.657065
      37A     -0.531708    38A     -0.308731    39A     -0.252420
      40A     -0.221633    41A     -0.198439    42A     -0.164383
      43A     -0.139745    44A     -0.108742    45A     -0.094373
      46A     -0.078921    47A     -0.063192    48A     -0.051558
      49A     -0.034796    50A     -0.025848    51A     -0.012262
      52A     -0.009230    53A      0.010331    54A      0.012060
      55A      0.023345    56A      0.035600    57A      0.049597
      58A      0.055175    59A      0.063601    60A      0.081849
      61A      0.097833    62A      0.103579    63A      0.107360
      64A      0.108529    65A      0.125303    66A      0.135690
      67A      0.148237    68A      0.154616    69A      0.174727

  @DF-RHF Final Energy: -1810.67533620469476

   => Energetics <=

    Nuclear Repulsion Energy =           1426.3761497706891532
    One-Electron Energy =               -5427.8007076718622557
    Two-Electron Energy =                2190.7492216964783438
    Total Energy =                      -1810.6753362046947586
  Basis Set: (AUG-CC-PVTZ AUX)
    Blend: AUG-CC-PVTZ-RI
    Molecular point group: c1

    Geometry (in Angstrom), charge = -4, multiplicity = 1:

       Center              X                  Y                   Z               Mass
    ------------   -----------------  -----------------  -----------------  -----------------
         P           -2.573880325034    -0.223648290035     0.363235365184    30.973761998420
         P            0.302880674966    -0.574754290035    -0.366895634816    30.973761998420
         P            3.121380674966     0.409483709965     0.147504365184    30.973761998420
         O           -2.843163825034     1.333589309965    -0.117221134816    15.994914619570
         O           -0.970610325034    -0.062315290035     0.634293365184    15.994914619570
         O           -3.239261325034    -0.439277290035     1.706843365184    15.994914619570
         O           -2.904381325034    -1.148195290035    -0.786594634816    15.994914619570
         O            1.436227674966     0.105459709965     0.564322365184    15.994914619570
         O            0.159084674966     0.106241709965    -1.712868634816    15.994914619570
         O            0.349078674966    -2.088272290035    -0.295415634816    15.994914619570
         O            3.479154674966    -0.662770290035    -0.891523634816    15.994914619570
         O            3.110734674966     1.849916709965    -0.382274634816    15.994914619570
         O            3.780259674966     0.231228709965     1.523133365184    15.994914619570
         C           -4.193512325034     1.610251709965    -0.533225634816    12.000000000000
         H           -4.482838325034     0.952230709965    -1.357601634816     1.007825032230
         H           -4.892268325034     1.468398709965     0.297998365184     1.007825032230
         H           -4.237709325034     2.649328709965    -0.863902634816     1.007825032230

  Basis Set: AUG-CC-PVTZ
    Blend: AUG-CC-PVTZ
  Basis Set: (AUG-CC-PVTZ AUX)
    Blend: AUG-CC-PVTZ-JKFIT
	 Reference Energy          =   -1810.6753362046947586 [Eh]
	 Singles Energy            =      -0.0000000000000000 [Eh]
	 Same-Spin Energy          =      -0.9122020657381028 [Eh]
	 Opposite-Spin Energy      =      -2.5247757207152763 [Eh]
	 Correlation Energy        =      -3.4369777864533790 [Eh]
	 Total Energy              =   -1814.1123139911480848 [Eh]

	 ================> DF-SCS-MP2 Energies <==================
	-----------------------------------------------------------
	 SCS Same-Spin Scale       =       0.3333333333333333 [-]
	 SCS Opposite-Spin Scale   =       1.2000000000000000 [-]
	 SCS Same-Spin Energy      =      -0.3040673552460342 [Eh]
	 SCS Opposite-Spin Energy  =      -3.0297308648583314 [Eh]
	 SCS Correlation Energy    =      -3.3337982201043657 [Eh]
	 SCS Total Energy          =   -1814.0091344247991856 [Eh]
	-----------------------------------------------------------

  Dipole Moment: [D]
     X:   -15.0515      Y:     2.8239      Z:    -0.0326     Total:    15.3142

*** Psi4 exiting successfully. Buy a developer a beer!
