                               Psi4 1.3.2 release

  ==> Input File <==

--------------------------------------------------------------------------
#psi4
#
memory 32 gb

molecule  {
-4 1
  P        2.5828670     0.0826120    -0.3559070
  P       -0.1833470    -1.1435920     0.2927960
  P       -2.7088530     0.4754690    -0.2006980
  O        1.9534540     1.6068400    -0.1842610
  O        1.2374701    -0.8686997    -0.4897123
  O        3.3048291     0.1244176    -1.6777404
  O        3.3289310    -0.2934220     0.9022790
  O       -0.9881700     0.1612780    -0.2225170
  O        0.0932830    -1.0798150     1.7822090
  O       -0.7150640    -2.4305380    -0.3003910
  O       -3.2327710    -0.2685190     1.0414150
  O       -2.7128520     2.0086770    -0.0959300
  O       -3.2113930    -0.0752120    -1.5473660
  C        1.4216660     1.9681570     1.1052990
  H        1.0169430     1.1016800     1.6278780
  H        2.2027140     2.4392170     1.7103290
  H        0.6160650     2.6819120     0.9264900
units angstrom
no_reorient  #important for SAPT in psi4, default
symmetry c1  #important for SAPT in psi4, default
}

set PROPERTIES_ORIGIN ["COM"]
properties('MP2/aug-cc-pvtz', properties = ['dipole'])
--------------------------------------------------------------------------

    Molecular point group: c1
  Charge       = -4
  Multiplicity = 1
  Basis Set: AUG-CC-PVTZ
    Blend: AUG-CC-PVTZ
  Basis Set: (AUG-CC-PVTZ AUX)
    Blend: AUG-CC-PVTZ-JKFIT

    Orbital Energies [Eh]
    ---------------------

    Doubly Occupied:

       1A    -79.576191     2A    -79.524178     3A    -79.479142
       4A    -20.084665     5A    -20.040905     6A    -20.007726
       7A    -20.000756     8A    -19.991565     9A    -19.945280
      10A    -19.944667    11A    -19.923344    12A    -19.918814
      13A    -19.916643    14A    -10.810714    15A     -7.089715
      16A     -7.037486    17A     -6.992645    18A     -4.988748
      19A     -4.987675    20A     -4.986927    21A     -4.936914
      22A     -4.935371    23A     -4.934412    24A     -4.892097
      25A     -4.889928    26A     -4.889780    27A     -0.903558
      28A     -0.851424    29A     -0.806721    30A     -0.781663
      31A     -0.758050    32A     -0.741081    33A     -0.712354
      34A     -0.697778    35A     -0.662891    36A     -0.658482
      37A     -0.466108    38A     -0.303543    39A     -0.234074
      40A     -0.185766    41A     -0.163974    42A     -0.148943
      43A     -0.126577    44A     -0.098748    45A     -0.086591
      46A     -0.066696    47A     -0.053051    48A     -0.043858
      49A     -0.030439    50A     -0.017186    51A     -0.008668
      52A     -0.000098    53A      0.009267    54A      0.013866
      55A      0.021860    56A      0.035082    57A      0.048245
      58A      0.054000    59A      0.067615    60A      0.069983
      61A      0.091459    62A      0.101409    63A      0.103160
      64A      0.104864    65A      0.115930    66A      0.127187
      67A      0.145192    68A      0.151179    69A      0.172616

  @DF-RHF Final Energy: -1810.69018584944274

   => Energetics <=

    Nuclear Repulsion Energy =           1464.1478591829074958
    One-Electron Energy =               -5503.8727024482004708
    Two-Electron Energy =                2229.0346574158502335
    Total Energy =                      -1810.6901858494429689
  Basis Set: (AUG-CC-PVTZ AUX)
    Blend: AUG-CC-PVTZ-RI
    Molecular point group: c1

    Geometry (in Angstrom), charge = -4, multiplicity = 1:

       Center              X                  Y                   Z               Mass
    ------------   -----------------  -----------------  -----------------  -----------------
         P            2.596780011472     0.105308712956    -0.343671901693    30.973761998420
         P           -0.169433988528    -1.120895287044     0.305031098307    30.973761998420
         P           -2.694939988528     0.498165712956    -0.188462901693    30.973761998420
         O            1.967367011472     1.629536712956    -0.172025901693    15.994914619570
         O            1.251383111472    -0.846002987044    -0.477477201693    15.994914619570
         O            3.318742111472     0.147114312956    -1.665505301693    15.994914619570
         O            3.342844011472    -0.270725287044     0.914514098307    15.994914619570
         O           -0.974256988528     0.183974712956    -0.210281901693    15.994914619570
         O            0.107196011472    -1.057118287044     1.794444098307    15.994914619570
         O           -0.701150988528    -2.407841287044    -0.288155901693    15.994914619570
         O           -3.218857988528    -0.245822287044     1.053650098307    15.994914619570
         O           -2.698938988528     2.031373712956    -0.083694901693    15.994914619570
         O           -3.197479988528    -0.052515287044    -1.535130901693    15.994914619570
         C            1.435579011472     1.990853712956     1.117534098307    12.000000000000
         H            1.030856011472     1.124376712956     1.640113098307     1.007825032230
         H            2.216627011472     2.461913712956     1.722564098307     1.007825032230
         H            0.629978011472     2.704608712956     0.938725098307     1.007825032230

  Basis Set: AUG-CC-PVTZ
    Blend: AUG-CC-PVTZ
  Basis Set: (AUG-CC-PVTZ AUX)
    Blend: AUG-CC-PVTZ-JKFIT
	 Reference Energy          =   -1810.6901858494427415 [Eh]
	 Singles Energy            =      -0.0000000000000000 [Eh]
	 Same-Spin Energy          =      -0.9125541532719921 [Eh]
	 Opposite-Spin Energy      =      -2.5244511700494967 [Eh]
	 Correlation Energy        =      -3.4370053233214888 [Eh]
	 Total Energy              =   -1814.1271911727642419 [Eh]

	 ================> DF-SCS-MP2 Energies <==================
	-----------------------------------------------------------
	 SCS Same-Spin Scale       =       0.3333333333333333 [-]
	 SCS Opposite-Spin Scale   =       1.2000000000000000 [-]
	 SCS Same-Spin Energy      =      -0.3041847177573307 [Eh]
	 SCS Opposite-Spin Energy  =      -3.0293414040593958 [Eh]
	 SCS Correlation Energy    =      -3.3335261218167265 [Eh]
	 SCS Total Energy          =   -1814.0237119712594449 [Eh]
	-----------------------------------------------------------

  Dipole Moment: [D]
     X:     9.3837      Y:     2.3066      Z:     1.3992     Total:     9.7638

*** Psi4 exiting successfully. Buy a developer a beer!
