                               Psi4 1.4a3.dev225

  ==> Input File <==

--------------------------------------------------------------------------
#psi4
#
memory 32 gb

molecule  {
-4 1
  P       -2.5202440    -0.2449420     0.3712220
  P        0.3565170    -0.5960480    -0.3589090
  P        3.1750170     0.3881900     0.1554910
  O       -2.7927880     1.3311510    -0.1150520
  O       -0.9169740    -0.0836090     0.6422800
  O       -3.1856250    -0.4605710     1.7148300
  O       -2.8507450    -1.1694890    -0.7786080
  O        1.4898640     0.0841660     0.5723090
  O        0.2127210     0.0849480    -1.7048820
  O        0.4027150    -2.1095660    -0.2874290
  O        3.5327910    -0.6840640    -0.8835370
  O        3.1643710     1.8286230    -0.3742880
  O        3.8338960     0.2099350     1.5311200
  C       -4.0928263     1.5799536    -0.5109124
  H       -4.4292020     0.9309370    -1.3496150
  H       -4.8386320     1.4471050     0.3059850
  H       -4.1840730     2.6280350    -0.8559160
units angstrom
no_reorient  #important for SAPT in psi4, default
symmetry c1  #important for SAPT in psi4, default
}

set PROPERTIES_ORIGIN ["COM"]
properties('MP2/aug-cc-pvtz', properties = ['dipole'])
--------------------------------------------------------------------------

    Molecular point group: c1
  Charge       = -4
  Multiplicity = 1
  Basis Set: AUG-CC-PVTZ
    Blend: AUG-CC-PVTZ
  Basis Set: (AUG-CC-PVTZ AUX)
    Blend: AUG-CC-PVTZ-JKFIT

    Orbital Energies [Eh]
    ---------------------

    Doubly Occupied:

       1A    -79.583276     2A    -79.518156     3A    -79.475953
       4A    -20.122409     5A    -20.043273     6A    -20.016821
       7A    -20.006723     8A    -19.985032     9A    -19.937770
      10A    -19.936188    11A    -19.922436    12A    -19.917525
      13A    -19.913693    14A    -10.885754    15A     -7.097589
      16A     -7.031226    17A     -6.989712    18A     -4.996786
      19A     -4.995380    20A     -4.994475    21A     -4.930632
      22A     -4.929041    23A     -4.927900    24A     -4.889110
      25A     -4.886997    26A     -4.886869    27A     -0.948550
      28A     -0.857626    29A     -0.809082    30A     -0.778950
      31A     -0.762931    32A     -0.737300    33A     -0.706650
      34A     -0.687865    35A     -0.662454    36A     -0.657757
      37A     -0.520973    38A     -0.315445    39A     -0.255276
      40A     -0.219999    41A     -0.204224    42A     -0.169792
      43A     -0.139691    44A     -0.106961    45A     -0.093930
      46A     -0.078477    47A     -0.062866    48A     -0.052744
      49A     -0.035715    50A     -0.023731    51A     -0.013640
      52A     -0.010586    53A      0.008034    54A      0.010508
      55A      0.022311    56A      0.032564    57A      0.046090
      58A      0.054003    59A      0.060511    60A      0.080246
      61A      0.096686    62A      0.102861    63A      0.106512
      64A      0.107478    65A      0.123952    66A      0.134500
      67A      0.147460    68A      0.153783    69A      0.174053

  @DF-RHF Final Energy: -1810.67651034458390

   => Energetics <=

    Nuclear Repulsion Energy =           1426.9793669469547694
    One-Electron Energy =               -5428.7669772034314519
    Two-Electron Energy =                2191.1110999118927793
    Total Energy =                      -1810.6765103445841305
  Basis Set: (AUG-CC-PVTZ AUX)
    Blend: AUG-CC-PVTZ-RI
    Molecular point group: c1

    Geometry (in Angstrom), charge = -4, multiplicity = 1:

       Center              X                  Y                   Z               Mass
    ------------   -----------------  -----------------  -----------------  -----------------
         P           -2.575793190415    -0.224370731673     0.362940962131    30.973761998420
         P            0.300967809585    -0.575476731673    -0.367190037869    30.973761998420
         P            3.119467809585     0.408761268327     0.147209962131    30.973761998420
         O           -2.848337190415     1.351722268327    -0.123333037869    15.994914619570
         O           -0.972523190415    -0.063037731673     0.633998962131    15.994914619570
         O           -3.241174190415    -0.439999731673     1.706548962131    15.994914619570
         O           -2.906294190415    -1.148917731673    -0.786889037869    15.994914619570
         O            1.434314809585     0.104737268327     0.564027962131    15.994914619570
         O            0.157171809585     0.105519268327    -1.713163037869    15.994914619570
         O            0.347165809585    -2.088994731673    -0.295710037869    15.994914619570
         O            3.477241809585    -0.663492731673    -0.891818037869    15.994914619570
         O            3.108821809585     1.849194268327    -0.382569037869    15.994914619570
         O            3.778346809585     0.230506268327     1.522838962131    15.994914619570
         C           -4.148375490415     1.600524868327    -0.519193437869    12.000000000000
         H           -4.484751190415     0.951508268327    -1.357896037869     1.007825032230
         H           -4.894181190415     1.467676268327     0.297703962131     1.007825032230
         H           -4.239622190415     2.648606268327    -0.864197037869     1.007825032230

  Basis Set: AUG-CC-PVTZ
    Blend: AUG-CC-PVTZ
  Basis Set: (AUG-CC-PVTZ AUX)
    Blend: AUG-CC-PVTZ-JKFIT
	 Reference Energy          =   -1810.6765103445839031 [Eh]
	 Singles Energy            =      -0.0000000000000000 [Eh]
	 Same-Spin Energy          =      -0.9123879127432416 [Eh]
	 Opposite-Spin Energy      =      -2.5246192045640994 [Eh]
	 Correlation Energy        =      -3.4370071173073411 [Eh]
	 Total Energy              =   -1814.1135174618912060 [Eh]

	 ================> DF-SCS-MP2 Energies <==================
	-----------------------------------------------------------
	 SCS Same-Spin Scale       =       0.3333333333333333 [-]
	 SCS Opposite-Spin Scale   =       1.2000000000000000 [-]
	 SCS Same-Spin Energy      =      -0.3041293042477472 [Eh]
	 SCS Opposite-Spin Energy  =      -3.0295430454769190 [Eh]
	 SCS Correlation Energy    =      -3.3336723497246661 [Eh]
	 SCS Total Energy          =   -1814.0101826943084689 [Eh]
	-----------------------------------------------------------

  Dipole Moment: [D]
     X:   -14.7451      Y:     2.5963      Z:     0.0819     Total:    14.9721

*** Psi4 exiting successfully. Buy a developer a beer!
