                               Psi4 1.3.2 release

  ==> Input File <==

--------------------------------------------------------------------------
#psi4
#
memory 32 gb

molecule  {
-4 1
  P        2.5828670     0.0826120    -0.3559070
  P       -0.1833470    -1.1435920     0.2927960
  P       -2.7088530     0.4754690    -0.2006980
  O        1.9534540     1.6068400    -0.1842610
  O        1.2509400    -0.8782220    -0.5450080
  O        3.2679280     0.0927970    -1.6978490
  O        3.3289310    -0.2934220     0.9022790
  O       -0.8898042     0.1433167    -0.2237643
  O        0.0932830    -1.0798150     1.7822090
  O       -0.7150640    -2.4305380    -0.3003910
  O       -3.2327710    -0.2685190     1.0414150
  O       -2.7128520     2.0086770    -0.0959300
  O       -3.2113930    -0.0752120    -1.5473660
  C        1.4216660     1.9681570     1.1052990
  H        1.0169430     1.1016800     1.6278780
  H        2.2027140     2.4392170     1.7103290
  H        0.6160650     2.6819120     0.9264900
units angstrom
no_reorient  #important for SAPT in psi4, default
symmetry c1  #important for SAPT in psi4, default
}

set PROPERTIES_ORIGIN ["COM"]
properties('MP2/aug-cc-pvtz', properties = ['dipole'])
--------------------------------------------------------------------------

    Molecular point group: c1
  Charge       = -4
  Multiplicity = 1
  Basis Set: AUG-CC-PVTZ
    Blend: AUG-CC-PVTZ
  Basis Set: (AUG-CC-PVTZ AUX)
    Blend: AUG-CC-PVTZ-JKFIT

    Orbital Energies [Eh]
    ---------------------

    Doubly Occupied:

       1A    -79.566449     2A    -79.511212     3A    -79.493183
       4A    -20.081020     5A    -20.025845     6A    -19.997673
       7A    -19.997613     8A    -19.988255     9A    -19.941413
      10A    -19.939269    11A    -19.934642    12A    -19.930181
      13A    -19.928233    14A    -10.808286    15A     -7.080232
      16A     -7.025981    17A     -7.006181    18A     -4.979190
      19A     -4.978211    20A     -4.977469    21A     -4.925291
      22A     -4.923902    23A     -4.922854    24A     -4.905599
      25A     -4.903246    26A     -4.903110    27A     -0.896707
      28A     -0.842183    29A     -0.803355    30A     -0.771155
      31A     -0.752585    32A     -0.742487    33A     -0.716229
      34A     -0.693030    35A     -0.672765    36A     -0.668442
      37A     -0.463069    38A     -0.285149    39A     -0.227093
      40A     -0.175955    41A     -0.159135    42A     -0.144630
      43A     -0.121773    44A     -0.099286    45A     -0.077687
      46A     -0.066182    47A     -0.048848    48A     -0.039427
      49A     -0.028503    50A     -0.012979    51A     -0.002771
      52A      0.000809    53A      0.008442    54A      0.017568
      55A      0.021269    56A      0.041604    57A      0.049709
      58A      0.058599    59A      0.072442    60A      0.076218
      61A      0.091448    62A      0.093201    63A      0.097389
      64A      0.102857    65A      0.118606    66A      0.128640
      67A      0.134820    68A      0.142641    69A      0.162379

  @DF-RHF Final Energy: -1810.68306959353163

   => Energetics <=

    Nuclear Repulsion Energy =           1463.4972627677445871
    One-Electron Energy =               -5502.8260156798442040
    Two-Electron Energy =                2228.6456833185684445
    Total Energy =                      -1810.6830695935313997
  Basis Set: (AUG-CC-PVTZ AUX)
    Blend: AUG-CC-PVTZ-RI
    Molecular point group: c1

    Geometry (in Angstrom), charge = -4, multiplicity = 1:

       Center              X                  Y                   Z               Mass
    ------------   -----------------  -----------------  -----------------  -----------------
         P            2.592305954779     0.108837597365    -0.339095329535    30.973761998420
         P           -0.173908045221    -1.117366402635     0.309607670465    30.973761998420
         P           -2.699414045221     0.501694597365    -0.183886329535    30.973761998420
         O            1.962892954779     1.633065597365    -0.167449329535    15.994914619570
         O            1.260378954779    -0.851996402635    -0.528196329535    15.994914619570
         O            3.277366954779     0.119022597365    -1.681037329535    15.994914619570
         O            3.338369954779    -0.267196402635     0.919090670465    15.994914619570
         O           -0.880365245221     0.169542297365    -0.206952629535    15.994914619570
         O            0.102721954779    -1.053589402635     1.799020670465    15.994914619570
         O           -0.705625045221    -2.404312402635    -0.283579329535    15.994914619570
         O           -3.223332045221    -0.242293402635     1.058226670465    15.994914619570
         O           -2.703413045221     2.034902597365    -0.079118329535    15.994914619570
         O           -3.201954045221    -0.048986402635    -1.530554329535    15.994914619570
         C            1.431104954779     1.994382597365     1.122110670465    12.000000000000
         H            1.026381954779     1.127905597365     1.644689670465     1.007825032230
         H            2.212152954779     2.465442597365     1.727140670465     1.007825032230
         H            0.625503954779     2.708137597365     0.943301670465     1.007825032230

  Basis Set: AUG-CC-PVTZ
    Blend: AUG-CC-PVTZ
  Basis Set: (AUG-CC-PVTZ AUX)
    Blend: AUG-CC-PVTZ-JKFIT
	 Reference Energy          =   -1810.6830695935316271 [Eh]
	 Singles Energy            =      -0.0000000000000000 [Eh]
	 Same-Spin Energy          =      -0.9133313149041890 [Eh]
	 Opposite-Spin Energy      =      -2.5264328163623349 [Eh]
	 Correlation Energy        =      -3.4397641312665237 [Eh]
	 Total Energy              =   -1814.1228337247980562 [Eh]

	 ================> DF-SCS-MP2 Energies <==================
	-----------------------------------------------------------
	 SCS Same-Spin Scale       =       0.3333333333333333 [-]
	 SCS Opposite-Spin Scale   =       1.2000000000000000 [-]
	 SCS Same-Spin Energy      =      -0.3044437716347296 [Eh]
	 SCS Opposite-Spin Energy  =      -3.0317193796348016 [Eh]
	 SCS Correlation Energy    =      -3.3361631512695311 [Eh]
	 SCS Total Energy          =   -1814.0192327448012293 [Eh]
	-----------------------------------------------------------

  Dipole Moment: [D]
     X:     8.1912      Y:     2.7000      Z:     1.4694     Total:     8.7489

*** Psi4 exiting successfully. Buy a developer a beer!
