                               Psi4 1.3.2 release

  ==> Input File <==

--------------------------------------------------------------------------
#psi4
#
memory 32 gb

molecule  {
-4 1
  P        2.5828670     0.0826120    -0.3559070
  P       -0.1833470    -1.1435920     0.2927960
  P       -2.7088530     0.4754690    -0.2006980
  O        1.9204289     1.5997353    -0.2642197
  O        1.2509400    -0.8782220    -0.5450080
  O        3.2679280     0.0927970    -1.6978490
  O        3.3460405    -0.3630072     0.8688521
  O       -0.9881700     0.1612780    -0.2225170
  O        0.0932830    -1.0798150     1.7822090
  O       -0.7150640    -2.4305380    -0.3003910
  O       -3.2327710    -0.2685190     1.0414150
  O       -2.7128520     2.0086770    -0.0959300
  O       -3.2113930    -0.0752120    -1.5473660
  C        1.4216660     1.9681570     1.1052990
  H        1.0169430     1.1016800     1.6278780
  H        2.2027140     2.4392170     1.7103290
  H        0.6160650     2.6819120     0.9264900
units angstrom
no_reorient  #important for SAPT in psi4, default
symmetry c1  #important for SAPT in psi4, default
}

set PROPERTIES_ORIGIN ["COM"]
properties('MP2/aug-cc-pvtz', properties = ['dipole'])
--------------------------------------------------------------------------

    Molecular point group: c1
  Charge       = -4
  Multiplicity = 1
  Basis Set: AUG-CC-PVTZ
    Blend: AUG-CC-PVTZ
  Basis Set: (AUG-CC-PVTZ AUX)
    Blend: AUG-CC-PVTZ-JKFIT

    Orbital Energies [Eh]
    ---------------------

    Doubly Occupied:

       1A    -79.569972     2A    -79.525734     3A    -79.479592
       4A    -20.093202     5A    -20.033792     6A    -20.005900
       7A    -19.995332     8A    -19.992119     9A    -19.950094
      10A    -19.943989    11A    -19.923958    12A    -19.918825
      13A    -19.917228    14A    -10.821252    15A     -7.084054
      16A     -7.038646    17A     -6.993094    18A     -4.982974
      19A     -4.981985    20A     -4.981251    21A     -4.937898
      22A     -4.936554    23A     -4.935638    24A     -4.892549
      25A     -4.890377    26A     -4.890222    27A     -0.894056
      28A     -0.840144    29A     -0.804212    30A     -0.776428
      31A     -0.754545    32A     -0.740948    33A     -0.713074
      34A     -0.698900    35A     -0.663371    36A     -0.658794
      37A     -0.472167    38A     -0.291451    39A     -0.230813
      40A     -0.181274    41A     -0.160834    42A     -0.138417
      43A     -0.126292    44A     -0.098738    45A     -0.079833
      46A     -0.064984    47A     -0.052245    48A     -0.045435
      49A     -0.033951    50A     -0.014479    51A     -0.011408
      52A     -0.000464    53A      0.008694    54A      0.015923
      55A      0.021997    56A      0.039632    57A      0.047969
      58A      0.053827    59A      0.068973    60A      0.073060
      61A      0.092322    62A      0.100747    63A      0.102670
      64A      0.104276    65A      0.114581    66A      0.125759
      67A      0.144670    68A      0.150840    69A      0.172225

  @DF-RHF Final Energy: -1810.68008059405429

   => Energetics <=

    Nuclear Repulsion Energy =           1462.1324324419642835
    One-Electron Energy =               -5499.9743744219949804
    Two-Electron Energy =                2227.1618613859764082
    Total Energy =                      -1810.6800805940542887
  Basis Set: (AUG-CC-PVTZ AUX)
    Blend: AUG-CC-PVTZ-RI
    Molecular point group: c1

    Geometry (in Angstrom), charge = -4, multiplicity = 1:

       Center              X                  Y                   Z               Mass
    ------------   -----------------  -----------------  -----------------  -----------------
         P            2.599129257534     0.112344056143    -0.332399983036    30.973761998420
         P           -0.167084742466    -1.113859943857     0.316303016964    30.973761998420
         P           -2.692590742466     0.505201056143    -0.177190983036    30.973761998420
         O            1.936691157534     1.629467356143    -0.240712683036    15.994914619570
         O            1.267202257534    -0.848489943857    -0.521500983036    15.994914619570
         O            3.284190257534     0.122529056143    -1.674341983036    15.994914619570
         O            3.362302757534    -0.333275143857     0.892359116964    15.994914619570
         O           -0.971907742466     0.191010056143    -0.199009983036    15.994914619570
         O            0.109545257534    -1.050082943857     1.805716016964    15.994914619570
         O           -0.698801742466    -2.400805943857    -0.276883983036    15.994914619570
         O           -3.216508742466    -0.238786943857     1.064922016964    15.994914619570
         O           -2.696589742466     2.038409056143    -0.072422983036    15.994914619570
         O           -3.195130742466    -0.045479943857    -1.523858983036    15.994914619570
         C            1.437928257534     1.997889056143     1.128806016964    12.000000000000
         H            1.033205257534     1.131412056143     1.651385016964     1.007825032230
         H            2.218976257534     2.468949056143     1.733836016964     1.007825032230
         H            0.632327257534     2.711644056143     0.949997016964     1.007825032230

  Basis Set: AUG-CC-PVTZ
    Blend: AUG-CC-PVTZ
  Basis Set: (AUG-CC-PVTZ AUX)
    Blend: AUG-CC-PVTZ-JKFIT
	 Reference Energy          =   -1810.6800805940542887 [Eh]
	 Singles Energy            =      -0.0000000000000000 [Eh]
	 Same-Spin Energy          =      -0.9136179927080974 [Eh]
	 Opposite-Spin Energy      =      -2.5279209595071164 [Eh]
	 Correlation Energy        =      -3.4415389522152138 [Eh]
	 Total Energy              =   -1814.1216195462695850 [Eh]

	 ================> DF-SCS-MP2 Energies <==================
	-----------------------------------------------------------
	 SCS Same-Spin Scale       =       0.3333333333333333 [-]
	 SCS Opposite-Spin Scale   =       1.2000000000000000 [-]
	 SCS Same-Spin Energy      =      -0.3045393309026991 [Eh]
	 SCS Opposite-Spin Energy  =      -3.0335051514085394 [Eh]
	 SCS Correlation Energy    =      -3.3380444823112385 [Eh]
	 SCS Total Energy          =   -1814.0181250763655498 [Eh]
	-----------------------------------------------------------

  Dipole Moment: [D]
     X:     9.2217      Y:     2.5862      Z:     1.8904     Total:     9.7622

*** Psi4 exiting successfully. Buy a developer a beer!
