                               Psi4 1.4a3.dev225

  ==> Input File <==

--------------------------------------------------------------------------
#psi4
#
memory 32 gb

molecule  {
-4 1
  P       -2.5202440    -0.2449420     0.3712220
  P        0.3565170    -0.5960480    -0.3589090
  P        3.1750170     0.3881900     0.1554910
  O       -2.7927880     1.3311510    -0.1150520
  O       -0.8679145    -0.0786723     0.6505743
  O       -3.1856250    -0.4605710     1.7148300
  O       -2.8507450    -1.1694890    -0.7786080
  O        1.4898640     0.0841660     0.5723090
  O        0.2127210     0.0849480    -1.7048820
  O        0.4027150    -2.1095660    -0.2874290
  O        3.5327910    -0.6840640    -0.8835370
  O        3.1643710     1.8286230    -0.3742880
  O        3.8338960     0.2099350     1.5311200
  C       -4.1398760     1.5889580    -0.5252390
  H       -4.4292020     0.9309370    -1.3496150
  H       -4.8386320     1.4471050     0.3059850
  H       -4.1840730     2.6280350    -0.8559160
units angstrom
no_reorient  #important for SAPT in psi4, default
symmetry c1  #important for SAPT in psi4, default
}

set PROPERTIES_ORIGIN ["COM"]
properties('MP2/aug-cc-pvtz', properties = ['dipole'])
--------------------------------------------------------------------------

    Molecular point group: c1
  Charge       = -4
  Multiplicity = 1
  Basis Set: AUG-CC-PVTZ
    Blend: AUG-CC-PVTZ
  Basis Set: (AUG-CC-PVTZ AUX)
    Blend: AUG-CC-PVTZ-JKFIT

    Orbital Energies [Eh]
    ---------------------

    Doubly Occupied:

       1A    -79.588878     2A    -79.510688     3A    -79.472639
       4A    -20.123336     5A    -20.042232     6A    -20.020692
       7A    -20.010200     8A    -19.978985     9A    -19.933159
      10A    -19.932013    11A    -19.919716    12A    -19.914871
      13A    -19.910884    14A    -10.886531    15A     -7.102386
      16A     -7.024310    17A     -6.986395    18A     -5.001512
      19A     -5.000134    20A     -4.999310    21A     -4.923742
      22A     -4.922153    23A     -4.921024    24A     -4.885758
      25A     -4.883711    26A     -4.883582    27A     -0.933758
      28A     -0.851246    29A     -0.809699    30A     -0.774511
      31A     -0.765847    32A     -0.732435    33A     -0.702647
      34A     -0.683837    35A     -0.659744    36A     -0.655000
      37A     -0.531377    38A     -0.308963    39A     -0.252015
      40A     -0.223861    41A     -0.197644    42A     -0.165589
      43A     -0.138746    44A     -0.107788    45A     -0.093642
      46A     -0.081206    47A     -0.063826    48A     -0.051779
      49A     -0.033612    50A     -0.028915    51A     -0.009440
      52A     -0.007616    53A      0.006709    54A      0.013119
      55A      0.025294    56A      0.034053    57A      0.044028
      58A      0.057988    59A      0.058108    60A      0.083105
      61A      0.100259    62A      0.105591    63A      0.110109
      64A      0.111210    65A      0.128159    66A      0.138376
      67A      0.150520    68A      0.157059    69A      0.176733

  @DF-RHF Final Energy: -1810.66945081150016

   => Energetics <=

    Nuclear Repulsion Energy =           1425.2781264500995348
    One-Electron Energy =               -5425.6088322863515714
    Two-Electron Energy =                2189.6612550247518811
    Total Energy =                      -1810.6694508115001554
  Basis Set: (AUG-CC-PVTZ AUX)
    Blend: AUG-CC-PVTZ-RI
    Molecular point group: c1

    Geometry (in Angstrom), charge = -4, multiplicity = 1:

       Center              X                  Y                   Z               Mass
    ------------   -----------------  -----------------  -----------------  -----------------
         P           -2.576614807136    -0.225068824798     0.363087484985    30.973761998420
         P            0.300146192864    -0.576174824798    -0.367043515015    30.973761998420
         P            3.118646192864     0.408063175202     0.147356484985    30.973761998420
         O           -2.849158807136     1.351024175202    -0.123186515015    15.994914619570
         O           -0.924285307136    -0.058799124798     0.642439784985    15.994914619570
         O           -3.241995807136    -0.440697824798     1.706695484985    15.994914619570
         O           -2.907115807136    -1.149615824798    -0.786742515015    15.994914619570
         O            1.433493192864     0.104039175202     0.564174484985    15.994914619570
         O            0.156350192864     0.104821175202    -1.713016515015    15.994914619570
         O            0.346344192864    -2.089692824798    -0.295563515015    15.994914619570
         O            3.476420192864    -0.664190824798    -0.891671515015    15.994914619570
         O            3.108000192864     1.848496175202    -0.382422515015    15.994914619570
         O            3.777525192864     0.229808175202     1.522985484985    15.994914619570
         C           -4.196246807136     1.608831175202    -0.533373515015    12.000000000000
         H           -4.485572807136     0.950810175202    -1.357749515015     1.007825032230
         H           -4.895002807136     1.466978175202     0.297850484985     1.007825032230
         H           -4.240443807136     2.647908175202    -0.864050515015     1.007825032230

  Basis Set: AUG-CC-PVTZ
    Blend: AUG-CC-PVTZ
  Basis Set: (AUG-CC-PVTZ AUX)
    Blend: AUG-CC-PVTZ-JKFIT
	 Reference Energy          =   -1810.6694508115001554 [Eh]
	 Singles Energy            =      -0.0000000000000000 [Eh]
	 Same-Spin Energy          =      -0.9127336799967214 [Eh]
	 Opposite-Spin Energy      =      -2.5262163917417286 [Eh]
	 Correlation Energy        =      -3.4389500717384500 [Eh]
	 Total Energy              =   -1814.1084008832385734 [Eh]

	 ================> DF-SCS-MP2 Energies <==================
	-----------------------------------------------------------
	 SCS Same-Spin Scale       =       0.3333333333333333 [-]
	 SCS Opposite-Spin Scale   =       1.2000000000000000 [-]
	 SCS Same-Spin Energy      =      -0.3042445599989071 [Eh]
	 SCS Opposite-Spin Energy  =      -3.0314596700900744 [Eh]
	 SCS Correlation Energy    =      -3.3357042300889814 [Eh]
	 SCS Total Energy          =   -1814.0051550415892052 [Eh]
	-----------------------------------------------------------

  Dipole Moment: [D]
     X:   -15.5284      Y:     2.7514      Z:     0.0727     Total:    15.7705

*** Psi4 exiting successfully. Buy a developer a beer!
