                               Psi4 1.3.2 release

  ==> Input File <==

--------------------------------------------------------------------------
#psi4
#
memory 32 gb

molecule  {
-4 1
  P        2.5828670     0.0826120    -0.3559070
  P       -0.1833470    -1.1435920     0.2927960
  P       -2.7088530     0.4754690    -0.2006980
  O        1.9534540     1.6068400    -0.1842610
  O        1.2509400    -0.8782220    -0.5450080
  O        3.2679280     0.0927970    -1.6978490
  O        3.3289310    -0.2934220     0.9022790
  O       -0.9909839     0.1463093    -0.2235393
  O        0.0932830    -1.0798150     1.7822090
  O       -0.7150640    -2.4305380    -0.3003910
  O       -3.2327710    -0.2685190     1.0414150
  O       -2.7262626     2.0085836    -0.0959337
  O       -3.2113930    -0.0752120    -1.5473660
  C        1.4216660     1.9681570     1.1052990
  H        1.0169430     1.1016800     1.6278780
  H        2.2027140     2.4392170     1.7103290
  H        0.6160650     2.6819120     0.9264900
units angstrom
no_reorient  #important for SAPT in psi4, default
symmetry c1  #important for SAPT in psi4, default
}

set PROPERTIES_ORIGIN ["COM"]
properties('MP2/aug-cc-pvtz', properties = ['dipole'])
--------------------------------------------------------------------------

    Molecular point group: c1
  Charge       = -4
  Multiplicity = 1
  Basis Set: AUG-CC-PVTZ
    Blend: AUG-CC-PVTZ
  Basis Set: (AUG-CC-PVTZ AUX)
    Blend: AUG-CC-PVTZ-JKFIT

    Orbital Energies [Eh]
    ---------------------

    Doubly Occupied:

       1A    -79.572660     2A    -79.525927     3A    -79.480530
       4A    -20.086039     5A    -20.038190     6A    -20.002935
       7A    -20.002656     8A    -19.993422     9A    -19.949702
      10A    -19.943970    11A    -19.925069    12A    -19.918912
      13A    -19.916964    14A    -10.812202    15A     -7.086486
      16A     -7.039022    17A     -6.993994    18A     -4.985438
      19A     -4.984488    20A     -4.983671    21A     -4.938288
      22A     -4.936963    23A     -4.935965    24A     -4.893458
      25A     -4.891274    26A     -4.891104    27A     -0.902244
      28A     -0.846392    29A     -0.807847    30A     -0.778577
      31A     -0.757713    32A     -0.741899    33A     -0.714590
      34A     -0.698881    35A     -0.663780    36A     -0.658845
      37A     -0.467304    38A     -0.294175    39A     -0.235735
      40A     -0.185321    41A     -0.164763    42A     -0.149281
      43A     -0.126036    44A     -0.098935    45A     -0.082970
      46A     -0.065262    47A     -0.052564    48A     -0.044505
      49A     -0.032643    50A     -0.016599    51A     -0.006963
      52A      0.000167    53A      0.009678    54A      0.014570
      55A      0.021607    56A      0.037119    57A      0.046877
      58A      0.053376    59A      0.067172    60A      0.071001
      61A      0.091421    62A      0.100385    63A      0.101243
      64A      0.103776    65A      0.114467    66A      0.125950
      67A      0.144238    68A      0.150482    69A      0.172075

  @DF-RHF Final Energy: -1810.68987965211136

   => Energetics <=

    Nuclear Repulsion Energy =           1463.0251991495365473
    One-Electron Energy =               -5501.6350541845677071
    Two-Electron Energy =                2227.9199753829198016
    Total Energy =                      -1810.6898796521113582
  Basis Set: (AUG-CC-PVTZ AUX)
    Blend: AUG-CC-PVTZ-RI
    Molecular point group: c1

    Geometry (in Angstrom), charge = -4, multiplicity = 1:

       Center              X                  Y                   Z               Mass
    ------------   -----------------  -----------------  -----------------  -----------------
         P            2.599147700764     0.108664497286    -0.339108542506    30.973761998420
         P           -0.167066299236    -1.117539502714     0.309594457494    30.973761998420
         P           -2.692572299236     0.501521497286    -0.183899542506    30.973761998420
         O            1.969734700764     1.632892497286    -0.167462542506    15.994914619570
         O            1.267220700764    -0.852169502714    -0.528209542506    15.994914619570
         O            3.284208700764     0.118849497286    -1.681050542506    15.994914619570
         O            3.345211700764    -0.267369502714     0.919077457494    15.994914619570
         O           -0.974703199236     0.172361797286    -0.206740842506    15.994914619570
         O            0.109563700764    -1.053762502714     1.799007457494    15.994914619570
         O           -0.698783299236    -2.404485502714    -0.283592542506    15.994914619570
         O           -3.216490299236    -0.242466502714     1.058213457494    15.994914619570
         O           -2.709981899236     2.034636097286    -0.079135242506    15.994914619570
         O           -3.195112299236    -0.049159502714    -1.530567542506    15.994914619570
         C            1.437946700764     1.994209497286     1.122097457494    12.000000000000
         H            1.033223700764     1.127732497286     1.644676457494     1.007825032230
         H            2.218994700764     2.465269497286     1.727127457494     1.007825032230
         H            0.632345700764     2.707964497286     0.943288457494     1.007825032230

  Basis Set: AUG-CC-PVTZ
    Blend: AUG-CC-PVTZ
  Basis Set: (AUG-CC-PVTZ AUX)
    Blend: AUG-CC-PVTZ-JKFIT
	 Reference Energy          =   -1810.6898796521113582 [Eh]
	 Singles Energy            =      -0.0000000000000000 [Eh]
	 Same-Spin Energy          =      -0.9128182169653082 [Eh]
	 Opposite-Spin Energy      =      -2.5252912519048492 [Eh]
	 Correlation Energy        =      -3.4381094688701572 [Eh]
	 Total Energy              =   -1814.1279891209815105 [Eh]

	 ================> DF-SCS-MP2 Energies <==================
	-----------------------------------------------------------
	 SCS Same-Spin Scale       =       0.3333333333333333 [-]
	 SCS Opposite-Spin Scale   =       1.2000000000000000 [-]
	 SCS Same-Spin Energy      =      -0.3042727389884360 [Eh]
	 SCS Opposite-Spin Energy  =      -3.0303495022858189 [Eh]
	 SCS Correlation Energy    =      -3.3346222412742548 [Eh]
	 SCS Total Energy          =   -1814.0245018933856045 [Eh]
	-----------------------------------------------------------

  Dipole Moment: [D]
     X:     9.2615      Y:     2.3960      Z:     1.6026     Total:     9.6997

*** Psi4 exiting successfully. Buy a developer a beer!
