                               Psi4 1.3.2 release

  ==> Input File <==

--------------------------------------------------------------------------
#psi4
#
memory 32 gb

molecule  {
-4 1
  P        2.5828670     0.0826120    -0.3559070
  P       -0.1833470    -1.1435920     0.2927960
  P       -2.7088530     0.4754690    -0.2006980
  O        1.9469936     1.5829157    -0.1799766
  O        1.2509400    -0.8782220    -0.5450080
  O        3.2679280     0.0927970    -1.6978490
  O        3.3289310    -0.2934220     0.9022790
  O       -0.9881700     0.1612780    -0.2225170
  O        0.0932830    -1.0798150     1.7822090
  O       -0.7150640    -2.4305380    -0.3003910
  O       -3.2327710    -0.2685190     1.0414150
  O       -2.7128520     2.0086770    -0.0959300
  O       -3.2113930    -0.0752120    -1.5473660
  C        1.4216660     1.9681570     1.1052990
  H        1.0217647     1.0907224     1.6130976
  H        2.2027140     2.4392170     1.7103290
  H        0.6160650     2.6819120     0.9264900
units angstrom
no_reorient  #important for SAPT in psi4, default
symmetry c1  #important for SAPT in psi4, default
}

set PROPERTIES_ORIGIN ["COM"]
properties('MP2/aug-cc-pvtz', properties = ['dipole'])
--------------------------------------------------------------------------

    Molecular point group: c1
  Charge       = -4
  Multiplicity = 1
  Basis Set: AUG-CC-PVTZ
    Blend: AUG-CC-PVTZ
  Basis Set: (AUG-CC-PVTZ AUX)
    Blend: AUG-CC-PVTZ-JKFIT

    Orbital Energies [Eh]
    ---------------------

    Doubly Occupied:

       1A    -79.570382     2A    -79.526312     3A    -79.479733
       4A    -20.084933     5A    -20.036251     6A    -20.001754
       7A    -20.001321     8A    -19.992637     9A    -19.949726
      10A    -19.944655    11A    -19.923914    12A    -19.919076
      13A    -19.917240    14A    -10.813116    15A     -7.084487
      16A     -7.039238    17A     -6.993236    18A     -4.983500
      19A     -4.982476    20A     -4.981680    21A     -4.938507
      22A     -4.937135    23A     -4.936207    24A     -4.892696
      25A     -4.890514    26A     -4.890363    27A     -0.905475
      28A     -0.845011    29A     -0.805981    30A     -0.777246
      31A     -0.756643    32A     -0.741544    33A     -0.713272
      34A     -0.699132    35A     -0.663395    36A     -0.658921
      37A     -0.469535    38A     -0.293110    39A     -0.235347
      40A     -0.184897    41A     -0.166213    42A     -0.151328
      43A     -0.125331    44A     -0.098678    45A     -0.082453
      46A     -0.064441    47A     -0.052041    48A     -0.042394
      49A     -0.031866    50A     -0.015703    51A     -0.007103
      52A      0.000448    53A      0.009305    54A      0.015273
      55A      0.021832    56A      0.037913    57A      0.047781
      58A      0.054667    59A      0.067925    60A      0.071614
      61A      0.091595    62A      0.100681    63A      0.102518
      64A      0.104089    65A      0.114400    66A      0.125711
      67A      0.144618    68A      0.150658    69A      0.172153

  @DF-RHF Final Energy: -1810.68947705711389

   => Energetics <=

    Nuclear Repulsion Energy =           1464.0162246456595767
    One-Electron Energy =               -5503.6814725220046967
    Two-Electron Energy =                2228.9757708192314567
    Total Energy =                      -1810.6894770571138906
  Basis Set: (AUG-CC-PVTZ AUX)
    Blend: AUG-CC-PVTZ-RI
    Molecular point group: c1

    Geometry (in Angstrom), charge = -4, multiplicity = 1:

       Center              X                  Y                   Z               Mass
    ------------   -----------------  -----------------  -----------------  -----------------
         P            2.598546584534     0.109234847980    -0.339370001747    30.973761998420
         P           -0.167667415466    -1.116969152020     0.309332998253    30.973761998420
         P           -2.693173415466     0.502091847980    -0.184161001747    30.973761998420
         O            1.962673184534     1.609538547980    -0.163439601747    15.994914619570
         O            1.266619584534    -0.851599152020    -0.528471001747    15.994914619570
         O            3.283607584534     0.119419847980    -1.681312001747    15.994914619570
         O            3.344610584534    -0.266799152020     0.918815998253    15.994914619570
         O           -0.972490415466     0.187900847980    -0.205980001747    15.994914619570
         O            0.108962584534    -1.053192152020     1.798745998253    15.994914619570
         O           -0.699384415466    -2.403915152020    -0.283854001747    15.994914619570
         O           -3.217091415466    -0.241896152020     1.057951998253    15.994914619570
         O           -2.697172415466     2.035299847980    -0.079393001747    15.994914619570
         O           -3.195713415466    -0.048589152020    -1.530829001747    15.994914619570
         C            1.437345584534     1.994779847980     1.121835998253    12.000000000000
         H            1.037444284534     1.117345247980     1.629634598253     1.007825032230
         H            2.218393584534     2.465839847980     1.726865998253     1.007825032230
         H            0.631744584534     2.708534847980     0.943026998253     1.007825032230

  Basis Set: AUG-CC-PVTZ
    Blend: AUG-CC-PVTZ
  Basis Set: (AUG-CC-PVTZ AUX)
    Blend: AUG-CC-PVTZ-JKFIT
	 Reference Energy          =   -1810.6894770571138906 [Eh]
	 Singles Energy            =      -0.0000000000000000 [Eh]
	 Same-Spin Energy          =      -0.9128271967040515 [Eh]
	 Opposite-Spin Energy      =      -2.5251547141218631 [Eh]
	 Correlation Energy        =      -3.4379819108259149 [Eh]
	 Total Energy              =   -1814.1274589679399014 [Eh]

	 ================> DF-SCS-MP2 Energies <==================
	-----------------------------------------------------------
	 SCS Same-Spin Scale       =       0.3333333333333333 [-]
	 SCS Opposite-Spin Scale   =       1.2000000000000000 [-]
	 SCS Same-Spin Energy      =      -0.3042757322346838 [Eh]
	 SCS Opposite-Spin Energy  =      -3.0301856569462355 [Eh]
	 SCS Correlation Energy    =      -3.3344613891809196 [Eh]
	 SCS Total Energy          =   -1814.0239384462947783 [Eh]
	-----------------------------------------------------------

  Dipole Moment: [D]
     X:     9.2493      Y:     2.4387      Z:     1.6221     Total:     9.7020

*** Psi4 exiting successfully. Buy a developer a beer!
