                               Psi4 1.4a3.dev225

  ==> Input File <==

--------------------------------------------------------------------------
#psi4
#
memory 32 gb

molecule  {
-4 1
  P       -2.5202440    -0.2449420     0.3712220
  P        0.3565170    -0.5960480    -0.3589090
  P        3.1750170     0.3881900     0.1554910
  O       -2.7927880     1.3311510    -0.1150520
  O       -0.9169740    -0.0836090     0.6422800
  O       -3.1856250    -0.4605710     1.7148300
  O       -2.8551167    -1.1817185    -0.7938174
  O        1.4898640     0.0841660     0.5723090
  O        0.2127210     0.0849480    -1.7048820
  O        0.4027150    -2.1095660    -0.2874290
  O        3.5327910    -0.6840640    -0.8835370
  O        3.1643710     1.8286230    -0.3742880
  O        3.8338960     0.2099350     1.5311200
  C       -4.1398760     1.5889580    -0.5252390
  H       -4.4292020     0.9309370    -1.3496150
  H       -4.8386320     1.4471050     0.3059850
  H       -4.1840730     2.6280350    -0.8559160
units angstrom
no_reorient  #important for SAPT in psi4, default
symmetry c1  #important for SAPT in psi4, default
}

set PROPERTIES_ORIGIN ["COM"]
properties('MP2/aug-cc-pvtz', properties = ['dipole'])
--------------------------------------------------------------------------

    Molecular point group: c1
  Charge       = -4
  Multiplicity = 1
  Basis Set: AUG-CC-PVTZ
    Blend: AUG-CC-PVTZ
  Basis Set: (AUG-CC-PVTZ AUX)
    Blend: AUG-CC-PVTZ-JKFIT

    Orbital Energies [Eh]
    ---------------------

    Doubly Occupied:

       1A    -79.584387     2A    -79.517582     3A    -79.475646
       4A    -20.120498     5A    -20.043374     6A    -20.016799
       7A    -20.005817     8A    -19.984617     9A    -19.937085
      10A    -19.935444    11A    -19.922165    12A    -19.917236
      13A    -19.913369    14A    -10.883862    15A     -7.097982
      16A     -7.030654    17A     -6.989404    18A     -4.997191
      19A     -4.995846    20A     -4.994825    21A     -4.930064
      22A     -4.928467    23A     -4.927322    24A     -4.888801
      25A     -4.886690    26A     -4.886561    27A     -0.931897
      28A     -0.853981    29A     -0.805994    30A     -0.778158
      31A     -0.756706    32A     -0.736775    33A     -0.706162
      34A     -0.687146    35A     -0.662171    36A     -0.657443
      37A     -0.528816    38A     -0.309877    39A     -0.252764
      40A     -0.221301    41A     -0.197035    42A     -0.165756
      43A     -0.140322    44A     -0.108291    45A     -0.094131
      46A     -0.079357    47A     -0.062764    48A     -0.052338
      49A     -0.034830    50A     -0.025061    51A     -0.013055
      52A     -0.009773    53A      0.010591    54A      0.011429
      55A      0.022771    56A      0.033731    57A      0.049971
      58A      0.054574    59A      0.063024    60A      0.081071
      61A      0.097162    62A      0.103186    63A      0.106866
      64A      0.107977    65A      0.124623    66A      0.135105
      67A      0.147802    68A      0.154158    69A      0.174352

  @DF-RHF Final Energy: -1810.67356761089695

   => Energetics <=

    Nuclear Repulsion Energy =           1424.6965619606171458
    One-Electron Energy =               -5424.3298593450435874
    Two-Electron Energy =                2188.9597297735294887
    Total Energy =                      -1810.6735676108969528
  Basis Set: (AUG-CC-PVTZ AUX)
    Blend: AUG-CC-PVTZ-RI
    Molecular point group: c1

    Geometry (in Angstrom), charge = -4, multiplicity = 1:

       Center              X                  Y                   Z               Mass
    ------------   -----------------  -----------------  -----------------  -----------------
         P           -2.573424635733    -0.224043897034     0.364490800493    30.973761998420
         P            0.303336364267    -0.575149897034    -0.365640199507    30.973761998420
         P            3.121836364267     0.409088102966     0.148759800493    30.973761998420
         O           -2.845968635733     1.352049102966    -0.121783199507    15.994914619570
         O           -0.970154635733    -0.062710897034     0.635548800493    15.994914619570
         O           -3.238805635733    -0.439672897034     1.708098800493    15.994914619570
         O           -2.908297335733    -1.160820397034    -0.800548599507    15.994914619570
         O            1.436683364267     0.105064102966     0.565577800493    15.994914619570
         O            0.159540364267     0.105846102966    -1.711613199507    15.994914619570
         O            0.349534364267    -2.088667897034    -0.294160199507    15.994914619570
         O            3.479610364267    -0.663165897034    -0.890268199507    15.994914619570
         O            3.111190364267     1.849521102966    -0.381019199507    15.994914619570
         O            3.780715364267     0.230833102966     1.524388800493    15.994914619570
         C           -4.193056635733     1.609856102966    -0.531970199507    12.000000000000
         H           -4.482382635733     0.951835102966    -1.356346199507     1.007825032230
         H           -4.891812635733     1.468003102966     0.299253800493     1.007825032230
         H           -4.237253635733     2.648933102966    -0.862647199507     1.007825032230

  Basis Set: AUG-CC-PVTZ
    Blend: AUG-CC-PVTZ
  Basis Set: (AUG-CC-PVTZ AUX)
    Blend: AUG-CC-PVTZ-JKFIT
	 Reference Energy          =   -1810.6735676108969528 [Eh]
	 Singles Energy            =      -0.0000000000000000 [Eh]
	 Same-Spin Energy          =      -0.9127965490039549 [Eh]
	 Opposite-Spin Energy      =      -2.5262748289984462 [Eh]
	 Correlation Energy        =      -3.4390713780024011 [Eh]
	 Total Energy              =   -1814.1126389888993344 [Eh]

	 ================> DF-SCS-MP2 Energies <==================
	-----------------------------------------------------------
	 SCS Same-Spin Scale       =       0.3333333333333333 [-]
	 SCS Opposite-Spin Scale   =       1.2000000000000000 [-]
	 SCS Same-Spin Energy      =      -0.3042655163346516 [Eh]
	 SCS Opposite-Spin Energy  =      -3.0315297947981352 [Eh]
	 SCS Correlation Energy    =      -3.3357953111327867 [Eh]
	 SCS Total Energy          =   -1814.0093629220298226 [Eh]
	-----------------------------------------------------------

  Dipole Moment: [D]
     X:   -14.9369      Y:     2.7803      Z:     0.0784     Total:    15.1936

*** Psi4 exiting successfully. Buy a developer a beer!
