                               Psi4 1.4a3.dev225

  ==> Input File <==

--------------------------------------------------------------------------
#psi4
#
memory 32 gb

molecule  {
-4 1
  P       -2.5202440    -0.2449420     0.3712220
  P        0.3565170    -0.5960480    -0.3589090
  P        3.1750170     0.3881900     0.1554910
  O       -2.7927880     1.3311510    -0.1150520
  O       -0.9660335    -0.0885457     0.6339857
  O       -3.1856250    -0.4605710     1.7148300
  O       -2.8507450    -1.1694890    -0.7786080
  O        1.4898640     0.0841660     0.5723090
  O        0.2127210     0.0849480    -1.7048820
  O        0.4027150    -2.1095660    -0.2874290
  O        3.5327910    -0.6840640    -0.8835370
  O        3.1643710     1.8286230    -0.3742880
  O        3.8338960     0.2099350     1.5311200
  C       -4.1398760     1.5889580    -0.5252390
  H       -4.4292020     0.9309370    -1.3496150
  H       -4.8386320     1.4471050     0.3059850
  H       -4.1840730     2.6280350    -0.8559160
units angstrom
no_reorient  #important for SAPT in psi4, default
symmetry c1  #important for SAPT in psi4, default
}

set PROPERTIES_ORIGIN ["COM"]
properties('MP2/aug-cc-pvtz', properties = ['dipole'])
--------------------------------------------------------------------------

    Molecular point group: c1
  Charge       = -4
  Multiplicity = 1
  Basis Set: AUG-CC-PVTZ
    Blend: AUG-CC-PVTZ
  Basis Set: (AUG-CC-PVTZ AUX)
    Blend: AUG-CC-PVTZ-JKFIT

    Orbital Energies [Eh]
    ---------------------

    Doubly Occupied:

       1A    -79.571650     2A    -79.523859     3A    -79.478293
       4A    -20.114699     5A    -20.040702     6A    -20.009142
       7A    -19.999584     8A    -19.989649     9A    -19.941060
      10A    -19.938841    11A    -19.924307    12A    -19.919301
      13A    -19.915625    14A    -10.880133    15A     -7.086980
      16A     -7.036449    17A     -6.992057    18A     -4.986125
      19A     -4.984926    20A     -4.983860    21A     -4.935834
      22A     -4.934226    23A     -4.933069    24A     -4.891483
      25A     -4.889316    26A     -4.889187    27A     -0.929333
      28A     -0.856856    29A     -0.806010    30A     -0.779674
      31A     -0.756411    32A     -0.740583    33A     -0.709389
      34A     -0.690407    35A     -0.664297    36A     -0.659628
      37A     -0.524904    38A     -0.308229    39A     -0.251911
      40A     -0.217448    41A     -0.195299    42A     -0.165888
      43A     -0.140460    44A     -0.108844    45A     -0.095749
      46A     -0.077217    47A     -0.062048    48A     -0.051924
      49A     -0.036624    50A     -0.022277    51A     -0.015806
      52A     -0.011418    53A      0.009219    54A      0.012743
      55A      0.020718    56A      0.035840    57A      0.050857
      58A      0.052764    59A      0.065379    60A      0.080082
      61A      0.094494    62A      0.101031    63A      0.104093
      64A      0.104994    65A      0.121271    66A      0.131963
      67A      0.145375    68A      0.151568    69A      0.172239

  @DF-RHF Final Energy: -1810.67830450953352

   => Energetics <=

    Nuclear Repulsion Energy =           1426.1253956309685691
    One-Electron Energy =               -5427.1786807859270994
    Two-Electron Energy =                2190.3749806454252393
    Total Energy =                      -1810.6783045095335183
  Basis Set: (AUG-CC-PVTZ AUX)
    Blend: AUG-CC-PVTZ-RI
    Molecular point group: c1

    Geometry (in Angstrom), charge = -4, multiplicity = 1:

       Center              X                  Y                   Z               Mass
    ------------   -----------------  -----------------  -----------------  -----------------
         P           -2.570756499108    -0.224479322067     0.364077926474    30.973761998420
         P            0.306004500892    -0.575585322067    -0.366053073526    30.973761998420
         P            3.124504500892     0.408652677933     0.148346926474    30.973761998420
         O           -2.843300499108     1.351613677933    -0.122196073526    15.994914619570
         O           -1.016545999108    -0.068083022067     0.626841626474    15.994914619570
         O           -3.236137499108    -0.440108322067     1.707685926474    15.994914619570
         O           -2.901257499108    -1.149026322067    -0.785752073526    15.994914619570
         O            1.439351500892     0.104628677933     0.565164926474    15.994914619570
         O            0.162208500892     0.105410677933    -1.712026073526    15.994914619570
         O            0.352202500892    -2.089103322067    -0.294573073526    15.994914619570
         O            3.482278500892    -0.663601322067    -0.890681073526    15.994914619570
         O            3.113858500892     1.849085677933    -0.381432073526    15.994914619570
         O            3.783383500892     0.230397677933     1.523975926474    15.994914619570
         C           -4.190388499108     1.609420677933    -0.532383073526    12.000000000000
         H           -4.479714499108     0.951399677933    -1.356759073526     1.007825032230
         H           -4.889144499108     1.467567677933     0.298840926474     1.007825032230
         H           -4.234585499108     2.648497677933    -0.863060073526     1.007825032230

  Basis Set: AUG-CC-PVTZ
    Blend: AUG-CC-PVTZ
  Basis Set: (AUG-CC-PVTZ AUX)
    Blend: AUG-CC-PVTZ-JKFIT
	 Reference Energy          =   -1810.6783045095335183 [Eh]
	 Singles Energy            =      -0.0000000000000000 [Eh]
	 Same-Spin Energy          =      -0.9120946705206485 [Eh]
	 Opposite-Spin Energy      =      -2.5243642039056162 [Eh]
	 Correlation Energy        =      -3.4364588744262647 [Eh]
	 Total Energy              =   -1814.1147633839598257 [Eh]

	 ================> DF-SCS-MP2 Energies <==================
	-----------------------------------------------------------
	 SCS Same-Spin Scale       =       0.3333333333333333 [-]
	 SCS Opposite-Spin Scale   =       1.2000000000000000 [-]
	 SCS Same-Spin Energy      =      -0.3040315568402162 [Eh]
	 SCS Opposite-Spin Energy  =      -3.0292370446867394 [Eh]
	 SCS Correlation Energy    =      -3.3332686015269557 [Eh]
	 SCS Total Energy          =   -1814.0115731110604429 [Eh]
	-----------------------------------------------------------

  Dipole Moment: [D]
     X:   -14.4062      Y:     2.6732      Z:    -0.0663     Total:    14.6523

*** Psi4 exiting successfully. Buy a developer a beer!
