                               Psi4 1.3.2 release

  ==> Input File <==

--------------------------------------------------------------------------
#psi4
#
memory 32 gb

molecule  {
-4 1
  P        2.5828670     0.0826120    -0.3559070
  P       -0.1833470    -1.1435920     0.2927960
  P       -2.7088530     0.4754690    -0.2006980
  O        1.9534540     1.6068400    -0.1842610
  O        1.2509400    -0.8782220    -0.5450080
  O        3.2679280     0.0927970    -1.6978490
  O        3.3289310    -0.2934220     0.9022790
  O       -0.9881700     0.1612780    -0.2225170
  O        0.0932830    -1.0798150     1.7822090
  O       -0.7150640    -2.4305380    -0.3003910
  O       -3.2397164    -0.2768129     1.0334450
  O       -2.7128520     2.0086770    -0.0959300
  O       -3.2184550    -0.0845850    -1.5408309
  C        1.4216660     1.9681570     1.1052990
  H        1.0169430     1.1016800     1.6278780
  H        2.2027140     2.4392170     1.7103290
  H        0.6160650     2.6819120     0.9264900
units angstrom
no_reorient  #important for SAPT in psi4, default
symmetry c1  #important for SAPT in psi4, default
}

set PROPERTIES_ORIGIN ["COM"]
properties('MP2/aug-cc-pvtz', properties = ['dipole'])
--------------------------------------------------------------------------

    Molecular point group: c1
  Charge       = -4
  Multiplicity = 1
  Basis Set: AUG-CC-PVTZ
    Blend: AUG-CC-PVTZ
  Basis Set: (AUG-CC-PVTZ AUX)
    Blend: AUG-CC-PVTZ-JKFIT

    Orbital Energies [Eh]
    ---------------------

    Doubly Occupied:

       1A    -79.572704     2A    -79.527090     3A    -79.479816
       4A    -20.085848     5A    -20.038465     6A    -20.002976
       7A    -20.002683     8A    -19.993498     9A    -19.950293
      10A    -19.945194    11A    -19.925001    12A    -19.918366
      13A    -19.916533    14A    -10.811928    15A     -7.086528
      16A     -7.040023    17A     -6.993319    18A     -4.985479
      19A     -4.984532    20A     -4.983714    21A     -4.939300
      22A     -4.937915    23A     -4.936980    24A     -4.892772
      25A     -4.890567    26A     -4.890473    27A     -0.902115
      28A     -0.845847    29A     -0.806838    30A     -0.778170
      31A     -0.757749    32A     -0.742113    33A     -0.713748
      34A     -0.699658    35A     -0.664231    36A     -0.657764
      37A     -0.467038    38A     -0.294010    39A     -0.234868
      40A     -0.184306    41A     -0.164215    42A     -0.148999
      43A     -0.126116    44A     -0.099002    45A     -0.082968
      46A     -0.065057    47A     -0.052101    48A     -0.044239
      49A     -0.031996    50A     -0.016358    51A     -0.006815
      52A      0.000346    53A      0.009497    54A      0.014570
      55A      0.021579    56A      0.037276    57A      0.047299
      58A      0.053364    59A      0.066902    60A      0.070799
      61A      0.090916    62A      0.100726    63A      0.101947
      64A      0.104145    65A      0.113934    66A      0.125293
      67A      0.144139    68A      0.151109    69A      0.172486

  @DF-RHF Final Energy: -1810.68896534082887

   => Energetics <=

    Nuclear Repulsion Energy =           1462.8105014974801179
    One-Electron Energy =               -5501.2149495273606590
    Two-Electron Energy =                2227.7154826890518962
    Total Energy =                      -1810.6889653408288723
  Basis Set: (AUG-CC-PVTZ AUX)
    Blend: AUG-CC-PVTZ-RI
    Molecular point group: c1

    Geometry (in Angstrom), charge = -4, multiplicity = 1:

       Center              X                  Y                   Z               Mass
    ------------   -----------------  -----------------  -----------------  -----------------
         P            2.599015326253     0.108820019873    -0.339084128660    30.973761998420
         P           -0.167198673747    -1.117383980127     0.309618871340    30.973761998420
         P           -2.692704673747     0.501677019873    -0.183875128660    30.973761998420
         O            1.969602326253     1.633048019873    -0.167438128660    15.994914619570
         O            1.267088326253    -0.852013980127    -0.528185128660    15.994914619570
         O            3.284076326253     0.119005019873    -1.681026128660    15.994914619570
         O            3.345079326253    -0.267213980127     0.919101871340    15.994914619570
         O           -0.972021673747     0.187486019873    -0.205694128660    15.994914619570
         O            0.109431326253    -1.053606980127     1.799031871340    15.994914619570
         O           -0.698915673747    -2.404329980127    -0.283568128660    15.994914619570
         O           -3.223568073747    -0.250604880127     1.050267871340    15.994914619570
         O           -2.696703673747     2.034885019873    -0.079107128660    15.994914619570
         O           -3.202306673747    -0.058376980127    -1.524008028660    15.994914619570
         C            1.437814326253     1.994365019873     1.122121871340    12.000000000000
         H            1.033091326253     1.127888019873     1.644700871340     1.007825032230
         H            2.218862326253     2.465425019873     1.727151871340     1.007825032230
         H            0.632213326253     2.708120019873     0.943312871340     1.007825032230

  Basis Set: AUG-CC-PVTZ
    Blend: AUG-CC-PVTZ
  Basis Set: (AUG-CC-PVTZ AUX)
    Blend: AUG-CC-PVTZ-JKFIT
	 Reference Energy          =   -1810.6889653408288723 [Eh]
	 Singles Energy            =      -0.0000000000000000 [Eh]
	 Same-Spin Energy          =      -0.9129978717852483 [Eh]
	 Opposite-Spin Energy      =      -2.5257480877140881 [Eh]
	 Correlation Energy        =      -3.4387459594993364 [Eh]
	 Total Energy              =   -1814.1277113003282011 [Eh]

	 ================> DF-SCS-MP2 Energies <==================
	-----------------------------------------------------------
	 SCS Same-Spin Scale       =       0.3333333333333333 [-]
	 SCS Opposite-Spin Scale   =       1.2000000000000000 [-]
	 SCS Same-Spin Energy      =      -0.3043326239284161 [Eh]
	 SCS Opposite-Spin Energy  =      -3.0308977052569057 [Eh]
	 SCS Correlation Energy    =      -3.3352303291853218 [Eh]
	 SCS Total Energy          =   -1814.0241956700142509 [Eh]
	-----------------------------------------------------------

  Dipole Moment: [D]
     X:     9.2967      Y:     2.3821      Z:     1.6134     Total:     9.7317

*** Psi4 exiting successfully. Buy a developer a beer!
