                               Psi4 1.3.2 release

  ==> Input File <==

--------------------------------------------------------------------------
#psi4
#
memory 32 gb

molecule  {
-4 1
  P        2.5828670     0.0826120    -0.3559070
  P       -0.1833470    -1.1435920     0.2927960
  P       -2.7088530     0.4754690    -0.2006980
  O        1.9534540     1.6068400    -0.1842610
  O        1.2509400    -0.8782220    -0.5450080
  O        3.2679280     0.0927970    -1.6978490
  O        3.3289310    -0.2934220     0.9022790
  O       -0.9714136     0.1775629    -0.2066779
  O        0.0932830    -1.0798150     1.7822090
  O       -0.6968460    -2.4440397    -0.2868405
  O       -3.2327710    -0.2685190     1.0414150
  O       -2.7128520     2.0086770    -0.0959300
  O       -3.2113930    -0.0752120    -1.5473660
  C        1.4216660     1.9681570     1.1052990
  H        1.0169430     1.1016800     1.6278780
  H        2.2027140     2.4392170     1.7103290
  H        0.6160650     2.6819120     0.9264900
units angstrom
no_reorient  #important for SAPT in psi4, default
symmetry c1  #important for SAPT in psi4, default
}

set PROPERTIES_ORIGIN ["COM"]
properties('MP2/aug-cc-pvtz', properties = ['dipole'])
--------------------------------------------------------------------------

    Molecular point group: c1
  Charge       = -4
  Multiplicity = 1
  Basis Set: AUG-CC-PVTZ
    Blend: AUG-CC-PVTZ
  Basis Set: (AUG-CC-PVTZ AUX)
    Blend: AUG-CC-PVTZ-JKFIT

    Orbital Energies [Eh]
    ---------------------

    Doubly Occupied:

       1A    -79.571586     2A    -79.525901     3A    -79.481955
       4A    -20.084687     5A    -20.036650     6A    -20.001930
       7A    -20.001782     8A    -19.994323     9A    -19.947448
      10A    -19.946322    11A    -19.924822    12A    -19.922053
      13A    -19.919098    14A    -10.810722    15A     -7.085402
      16A     -7.038929    17A     -6.995393    18A     -4.984353
      19A     -4.983404    20A     -4.982594    21A     -4.938221
      22A     -4.936749    23A     -4.935917    24A     -4.894839
      25A     -4.892641    26A     -4.892501    27A     -0.900935
      28A     -0.844614    29A     -0.805640    30A     -0.777031
      31A     -0.756768    32A     -0.741963    33A     -0.714478
      34A     -0.698691    35A     -0.664818    36A     -0.661001
      37A     -0.465834    38A     -0.292491    39A     -0.233125
      40A     -0.182564    41A     -0.162768    42A     -0.147844
      43A     -0.125207    44A     -0.099115    45A     -0.082086
      46A     -0.065378    47A     -0.051040    48A     -0.043283
      49A     -0.031201    50A     -0.015765    51A     -0.005820
      52A      0.000102    53A      0.009814    54A      0.015419
      55A      0.020483    56A      0.038124    57A      0.047448
      58A      0.054444    59A      0.067672    60A      0.071551
      61A      0.090643    62A      0.099471    63A      0.101987
      64A      0.102939    65A      0.113986    66A      0.125810
      67A      0.142879    68A      0.148453    69A      0.170339

  @DF-RHF Final Energy: -1810.68832671197924

   => Energetics <=

    Nuclear Repulsion Energy =           1462.5952605701440916
    One-Electron Energy =               -5500.8109341588742609
    Two-Electron Energy =                2227.5273468767509257
    Total Energy =                      -1810.6883267119792436
  Basis Set: (AUG-CC-PVTZ AUX)
    Blend: AUG-CC-PVTZ-RI
    Molecular point group: c1

    Geometry (in Angstrom), charge = -4, multiplicity = 1:

       Center              X                  Y                   Z               Mass
    ------------   -----------------  -----------------  -----------------  -----------------
         P            2.596090811407     0.107599023074    -0.340924540974    30.973761998420
         P           -0.170123188593    -1.118604976926     0.307778459026    30.973761998420
         P           -2.695629188593     0.500456023074    -0.185715540974    30.973761998420
         O            1.966677811407     1.631827023074    -0.169278540974    15.994914619570
         O            1.264163811407    -0.853234976926    -0.530025540974    15.994914619570
         O            3.281151811407     0.117784023074    -1.682866540974    15.994914619570
         O            3.342154811407    -0.268434976926     0.917261459026    15.994914619570
         O           -0.958189788593     0.202549923074    -0.191695440974    15.994914619570
         O            0.106506811407    -1.054827976926     1.797191459026    15.994914619570
         O           -0.683622188593    -2.419052676926    -0.271858040974    15.994914619570
         O           -3.219547188593    -0.243531976926     1.056397459026    15.994914619570
         O           -2.699628188593     2.033664023074    -0.080947540974    15.994914619570
         O           -3.198169188593    -0.050224976926    -1.532383540974    15.994914619570
         C            1.434889811407     1.993144023074     1.120281459026    12.000000000000
         H            1.030166811407     1.126667023074     1.642860459026     1.007825032230
         H            2.215937811407     2.464204023074     1.725311459026     1.007825032230
         H            0.629288811407     2.706899023074     0.941472459026     1.007825032230

  Basis Set: AUG-CC-PVTZ
    Blend: AUG-CC-PVTZ
  Basis Set: (AUG-CC-PVTZ AUX)
    Blend: AUG-CC-PVTZ-JKFIT
	 Reference Energy          =   -1810.6883267119792436 [Eh]
	 Singles Energy            =      -0.0000000000000000 [Eh]
	 Same-Spin Energy          =      -0.9131550622720738 [Eh]
	 Opposite-Spin Energy      =      -2.5261545189698813 [Eh]
	 Correlation Energy        =      -3.4393095812419552 [Eh]
	 Total Energy              =   -1814.1276362932212578 [Eh]

	 ================> DF-SCS-MP2 Energies <==================
	-----------------------------------------------------------
	 SCS Same-Spin Scale       =       0.3333333333333333 [-]
	 SCS Opposite-Spin Scale   =       1.2000000000000000 [-]
	 SCS Same-Spin Energy      =      -0.3043850207573579 [Eh]
	 SCS Opposite-Spin Energy  =      -3.0313854227638575 [Eh]
	 SCS Correlation Energy    =      -3.3357704435212154 [Eh]
	 SCS Total Energy          =   -1814.0240971555003853 [Eh]
	-----------------------------------------------------------

  Dipole Moment: [D]
     X:     9.0716      Y:     2.3679      Z:     1.5395     Total:     9.5011

*** Psi4 exiting successfully. Buy a developer a beer!
