                               Psi4 1.4a3.dev225

  ==> Input File <==

--------------------------------------------------------------------------
#psi4
#
memory 32 gb

molecule  {
-4 1
  P       -2.5202440    -0.2449420     0.3712220
  P        0.3565170    -0.5960480    -0.3589090
  P        3.1750170     0.3881900     0.1554910
  O       -2.7927880     1.3311510    -0.1150520
  O       -0.9169740    -0.0836090     0.6422800
  O       -3.1856250    -0.4605710     1.7148300
  O       -2.8507450    -1.1694890    -0.7786080
  O        1.5089878     0.0876162     0.5675788
  O        0.2127210     0.0849480    -1.7048820
  O        0.4027150    -2.1095660    -0.2874290
  O        3.5327910    -0.6840640    -0.8835370
  O        3.1643710     1.8286230    -0.3742880
  O        3.8338960     0.2099350     1.5311200
  C       -4.1398760     1.5889580    -0.5252390
  H       -4.4292020     0.9309370    -1.3496150
  H       -4.8386320     1.4471050     0.3059850
  H       -4.1840730     2.6280350    -0.8559160
units angstrom
no_reorient  #important for SAPT in psi4, default
symmetry c1  #important for SAPT in psi4, default
}

set PROPERTIES_ORIGIN ["COM"]
properties('MP2/aug-cc-pvtz', properties = ['dipole'])
--------------------------------------------------------------------------

    Molecular point group: c1
  Charge       = -4
  Multiplicity = 1
  Basis Set: AUG-CC-PVTZ
    Blend: AUG-CC-PVTZ
  Basis Set: (AUG-CC-PVTZ AUX)
    Blend: AUG-CC-PVTZ-JKFIT

    Orbital Energies [Eh]
    ---------------------

    Doubly Occupied:

       1A    -79.582109     2A    -79.520315     3A    -79.472636
       4A    -20.120007     5A    -20.044017     6A    -20.016078
       7A    -20.006045     8A    -19.984931     9A    -19.938712
      10A    -19.936523    11A    -19.919836    12A    -19.914877
      13A    -19.911071    14A    -10.884102    15A     -7.096360
      16A     -7.033063    17A     -6.986554    18A     -4.995506
      19A     -4.994207    20A     -4.993283    21A     -4.932449
      22A     -4.930886    23A     -4.929746    24A     -4.885965
      25A     -4.883874    26A     -4.883742    27A     -0.932268
      28A     -0.854665    29A     -0.807672    30A     -0.779393
      31A     -0.762271    32A     -0.736494    33A     -0.705302
      34A     -0.688362    35A     -0.660134    36A     -0.655432
      37A     -0.528954    38A     -0.309996    39A     -0.253585
      40A     -0.221464    41A     -0.197623    42A     -0.166517
      43A     -0.141386    44A     -0.109357    45A     -0.094246
      46A     -0.080173    47A     -0.063343    48A     -0.052533
      49A     -0.035673    50A     -0.026292    51A     -0.013428
      52A     -0.010349    53A      0.008485    54A      0.011703
      55A      0.024471    56A      0.033314    57A      0.047039
      58A      0.054445    59A      0.061058    60A      0.080144
      61A      0.096918    62A      0.104819    63A      0.108025
      64A      0.109037    65A      0.123852    66A      0.134487
      67A      0.149977    68A      0.155999    69A      0.176432

  @DF-RHF Final Energy: -1810.67575905078411

   => Energetics <=

    Nuclear Repulsion Energy =           1425.6590160895373174
    One-Electron Energy =               -5426.2623523034153550
    Two-Electron Energy =                2189.9275771630937015
    Total Energy =                      -1810.6757590507841087
  Basis Set: (AUG-CC-PVTZ AUX)
    Blend: AUG-CC-PVTZ-RI
    Molecular point group: c1

    Geometry (in Angstrom), charge = -4, multiplicity = 1:

       Center              X                  Y                   Z               Mass
    ------------   -----------------  -----------------  -----------------  -----------------
         P           -2.574827461651    -0.224980071601     0.363865127774    30.973761998420
         P            0.301933538349    -0.576086071601    -0.366265872226    30.973761998420
         P            3.120433538349     0.408151928399     0.148134127774    30.973761998420
         O           -2.847371461651     1.351112928399    -0.122408872226    15.994914619570
         O           -0.971557461651    -0.063647071601     0.634923127774    15.994914619570
         O           -3.240208461651    -0.440609071601     1.707473127774    15.994914619570
         O           -2.905328461651    -1.149527071601    -0.785964872226    15.994914619570
         O            1.454404338349     0.107578128399     0.560221927774    15.994914619570
         O            0.158137538349     0.104909928399    -1.712238872226    15.994914619570
         O            0.348131538349    -2.089604071601    -0.294785872226    15.994914619570
         O            3.478207538349    -0.664102071601    -0.890893872226    15.994914619570
         O            3.109787538349     1.848584928399    -0.381644872226    15.994914619570
         O            3.779312538349     0.229896928399     1.523763127774    15.994914619570
         C           -4.194459461651     1.608919928399    -0.532595872226    12.000000000000
         H           -4.483785461651     0.950898928399    -1.356971872226     1.007825032230
         H           -4.893215461651     1.467066928399     0.298628127774     1.007825032230
         H           -4.238656461651     2.647996928399    -0.863272872226     1.007825032230

  Basis Set: AUG-CC-PVTZ
    Blend: AUG-CC-PVTZ
  Basis Set: (AUG-CC-PVTZ AUX)
    Blend: AUG-CC-PVTZ-JKFIT
	 Reference Energy          =   -1810.6757590507841087 [Eh]
	 Singles Energy            =      -0.0000000000000000 [Eh]
	 Same-Spin Energy          =      -0.9123213735904777 [Eh]
	 Opposite-Spin Energy      =      -2.5250868321300106 [Eh]
	 Correlation Energy        =      -3.4374082057204882 [Eh]
	 Total Energy              =   -1814.1131672565045392 [Eh]

	 ================> DF-SCS-MP2 Energies <==================
	-----------------------------------------------------------
	 SCS Same-Spin Scale       =       0.3333333333333333 [-]
	 SCS Opposite-Spin Scale   =       1.2000000000000000 [-]
	 SCS Same-Spin Energy      =      -0.3041071245301592 [Eh]
	 SCS Opposite-Spin Energy  =      -3.0301041985560127 [Eh]
	 SCS Correlation Energy    =      -3.3342113230861719 [Eh]
	 SCS Total Energy          =   -1814.0099703738703738 [Eh]
	-----------------------------------------------------------

  Dipole Moment: [D]
     X:   -15.2155      Y:     2.6546      Z:    -0.0074     Total:    15.4454

*** Psi4 exiting successfully. Buy a developer a beer!
