                               Psi4 1.3.2 release

  ==> Input File <==

--------------------------------------------------------------------------
#psi4
#
memory 32 gb

molecule  {
-4 1
  P        2.5859970     0.0855296    -0.3697284
  P       -0.1833470    -1.1435920     0.2927960
  P       -2.7088530     0.4754690    -0.2006980
  O        1.9534540     1.6068400    -0.1842610
  O        1.2509400    -0.8782220    -0.5450080
  O        3.2679280     0.0927970    -1.6978490
  O        3.3289310    -0.2934220     0.9022790
  O       -0.9881700     0.1612780    -0.2225170
  O        0.0932830    -1.0798150     1.7822090
  O       -0.7150640    -2.4305380    -0.3003910
  O       -3.2327710    -0.2685190     1.0414150
  O       -2.7128520     2.0086770    -0.0959300
  O       -3.2113930    -0.0752120    -1.5473660
  C        1.4187257     1.9795393     1.1008360
  H        1.0169430     1.1016800     1.6278780
  H        2.2027140     2.4392170     1.7103290
  H        0.6160650     2.6819120     0.9264900
units angstrom
no_reorient  #important for SAPT in psi4, default
symmetry c1  #important for SAPT in psi4, default
}

set PROPERTIES_ORIGIN ["COM"]
properties('MP2/aug-cc-pvtz', properties = ['dipole'])
--------------------------------------------------------------------------

    Molecular point group: c1
  Charge       = -4
  Multiplicity = 1
  Basis Set: AUG-CC-PVTZ
    Blend: AUG-CC-PVTZ
  Basis Set: (AUG-CC-PVTZ AUX)
    Blend: AUG-CC-PVTZ-JKFIT

    Orbital Energies [Eh]
    ---------------------

    Doubly Occupied:

       1A    -79.572569     2A    -79.526349     3A    -79.479657
       4A    -20.084779     5A    -20.037137     6A    -20.005392
       7A    -20.000821     8A    -19.992548     9A    -19.949281
      10A    -19.944792    11A    -19.923798    12A    -19.919058
      13A    -19.917148    14A    -10.811269    15A     -7.086418
      16A     -7.039256    17A     -6.993160    18A     -4.985367
      19A     -4.984444    20A     -4.983597    21A     -4.938536
      22A     -4.937150    23A     -4.936215    24A     -4.892620
      25A     -4.890437    26A     -4.890287    27A     -0.901182
      28A     -0.844599    29A     -0.807627    30A     -0.778694
      31A     -0.756789    32A     -0.741521    33A     -0.713140
      34A     -0.698969    35A     -0.663303    36A     -0.658863
      37A     -0.467005    38A     -0.292971    39A     -0.233668
      40A     -0.183943    41A     -0.162123    42A     -0.150887
      43A     -0.125582    44A     -0.098602    45A     -0.083233
      46A     -0.064126    47A     -0.052883    48A     -0.042229
      49A     -0.031116    50A     -0.016147    51A     -0.006322
      52A      0.000643    53A      0.010036    54A      0.014619
      55A      0.021871    56A      0.034496    57A      0.047698
      58A      0.055847    59A      0.067733    60A      0.070769
      61A      0.091372    62A      0.100796    63A      0.102591
      64A      0.104192    65A      0.114560    66A      0.125889
      67A      0.144716    68A      0.150723    69A      0.172227

  @DF-RHF Final Energy: -1810.68839360172956

   => Energetics <=

    Nuclear Repulsion Energy =           1462.5156086511449303
    One-Electron Energy =               -5500.6743409962346050
    Two-Electron Energy =                2227.4703387433596617
    Total Energy =                      -1810.6883936017297856
  Basis Set: (AUG-CC-PVTZ AUX)
    Blend: AUG-CC-PVTZ-RI
    Molecular point group: c1

    Geometry (in Angstrom), charge = -4, multiplicity = 1:

       Center              X                  Y                   Z               Mass
    ------------   -----------------  -----------------  -----------------  -----------------
         P            2.601078816585     0.109835608699    -0.351193262578    30.973761998420
         P           -0.168265183415    -1.119285991301     0.311331137422    30.973761998420
         P           -2.693771183415     0.499775008699    -0.182162862578    30.973761998420
         O            1.968535816585     1.631146008699    -0.165725862578    15.994914619570
         O            1.266021816585    -0.853915991301    -0.526472862578    15.994914619570
         O            3.283009816585     0.117103008699    -1.679313862578    15.994914619570
         O            3.344012816585    -0.269115991301     0.920814137422    15.994914619570
         O           -0.973088183415     0.185584008699    -0.203981862578    15.994914619570
         O            0.108364816585    -1.055508991301     1.800744137422    15.994914619570
         O           -0.699982183415    -2.406231991301    -0.281855862578    15.994914619570
         O           -3.217689183415    -0.244212991301     1.059950137422    15.994914619570
         O           -2.697770183415     2.032983008699    -0.077394862578    15.994914619570
         O           -3.196311183415    -0.050905991301    -1.528830862578    15.994914619570
         C            1.433807516585     2.003845308699     1.119371137422    12.000000000000
         H            1.032024816585     1.125986008699     1.646413137422     1.007825032230
         H            2.217795816585     2.463523008699     1.728864137422     1.007825032230
         H            0.631146816585     2.706218008699     0.945025137422     1.007825032230

  Basis Set: AUG-CC-PVTZ
    Blend: AUG-CC-PVTZ
  Basis Set: (AUG-CC-PVTZ AUX)
    Blend: AUG-CC-PVTZ-JKFIT
	 Reference Energy          =   -1810.6883936017295582 [Eh]
	 Singles Energy            =      -0.0000000000000000 [Eh]
	 Same-Spin Energy          =      -0.9129451613360264 [Eh]
	 Opposite-Spin Energy      =      -2.5255876862085520 [Eh]
	 Correlation Energy        =      -3.4385328475445784 [Eh]
	 Total Energy              =   -1814.1269264492741513 [Eh]

	 ================> DF-SCS-MP2 Energies <==================
	-----------------------------------------------------------
	 SCS Same-Spin Scale       =       0.3333333333333333 [-]
	 SCS Opposite-Spin Scale   =       1.2000000000000000 [-]
	 SCS Same-Spin Energy      =      -0.3043150537786755 [Eh]
	 SCS Opposite-Spin Energy  =      -3.0307052234502625 [Eh]
	 SCS Correlation Energy    =      -3.3350202772289381 [Eh]
	 SCS Total Energy          =   -1814.0234138789585359 [Eh]
	-----------------------------------------------------------

  Dipole Moment: [D]
     X:     9.3006      Y:     2.3893      Z:     1.4202     Total:     9.7071

*** Psi4 exiting successfully. Buy a developer a beer!
