                               Psi4 1.3.2 release

  ==> Input File <==

--------------------------------------------------------------------------
#psi4
#
memory 32 gb

molecule  {
-4 1
  P        2.5828670     0.0826120    -0.3559070
  P       -0.1833470    -1.1435920     0.2927960
  P       -2.7088530     0.4754690    -0.2006980
  O        1.9534540     1.6068400    -0.1842610
  O        1.2648715    -0.9054334    -0.4960674
  O        3.2679280     0.0927970    -1.6978490
  O        3.2928515    -0.3307582     0.9114099
  O       -0.9881700     0.1612780    -0.2225170
  O        0.0932830    -1.0798150     1.7822090
  O       -0.7150640    -2.4305380    -0.3003910
  O       -3.2327710    -0.2685190     1.0414150
  O       -2.7128520     2.0086770    -0.0959300
  O       -3.2113930    -0.0752120    -1.5473660
  C        1.4216660     1.9681570     1.1052990
  H        1.0169430     1.1016800     1.6278780
  H        2.2027140     2.4392170     1.7103290
  H        0.6160650     2.6819120     0.9264900
units angstrom
no_reorient  #important for SAPT in psi4, default
symmetry c1  #important for SAPT in psi4, default
}

set PROPERTIES_ORIGIN ["COM"]
properties('MP2/aug-cc-pvtz', properties = ['dipole'])
--------------------------------------------------------------------------

    Molecular point group: c1
  Charge       = -4
  Multiplicity = 1
  Basis Set: AUG-CC-PVTZ
    Blend: AUG-CC-PVTZ
  Basis Set: (AUG-CC-PVTZ AUX)
    Blend: AUG-CC-PVTZ-JKFIT

    Orbital Energies [Eh]
    ---------------------

    Doubly Occupied:

       1A    -79.573880     2A    -79.523761     3A    -79.479613
       4A    -20.088647     5A    -20.035009     6A    -20.006937
       7A    -20.000369     8A    -19.992790     9A    -19.944712
      10A    -19.942641    11A    -19.923780    12A    -19.918940
      13A    -19.916840    14A    -10.812565    15A     -7.087616
      16A     -7.036807    17A     -6.993111    18A     -4.986570
      19A     -4.985699    20A     -4.984743    21A     -4.936118
      22A     -4.934742    23A     -4.933748    24A     -4.892577
      25A     -4.890385    26A     -4.890232    27A     -0.903566
      28A     -0.846984    29A     -0.806930    30A     -0.778452
      31A     -0.758454    32A     -0.739458    33A     -0.712218
      34A     -0.696340    35A     -0.663209    36A     -0.658628
      37A     -0.468035    38A     -0.295361    39A     -0.235423
      40A     -0.185922    41A     -0.165400    42A     -0.150736
      43A     -0.124199    44A     -0.097326    45A     -0.084473
      46A     -0.064165    47A     -0.051795    48A     -0.044755
      49A     -0.030786    50A     -0.016167    51A     -0.006894
      52A      0.000976    53A      0.008602    54A      0.015215
      55A      0.022597    56A      0.034530    57A      0.048464
      58A      0.054650    59A      0.069132    60A      0.071948
      61A      0.092857    62A      0.101383    63A      0.103174
      64A      0.104762    65A      0.116980    66A      0.128181
      67A      0.144924    68A      0.151041    69A      0.172403

  @DF-RHF Final Energy: -1810.68771508913801

   => Energetics <=

    Nuclear Repulsion Energy =           1463.8440317100578341
    One-Electron Energy =               -5503.3501157800092187
    Two-Electron Energy =                2228.8183689808138297
    Total Energy =                      -1810.6877150891377823
  Basis Set: (AUG-CC-PVTZ AUX)
    Blend: AUG-CC-PVTZ-RI
    Molecular point group: c1

    Geometry (in Angstrom), charge = -4, multiplicity = 1:

       Center              X                  Y                   Z               Mass
    ------------   -----------------  -----------------  -----------------  -----------------
         P            2.599501370162     0.111619086121    -0.342637026884    30.973761998420
         P           -0.166712629838    -1.114584913879     0.306065973116    30.973761998420
         P           -2.692218629838     0.504476086121    -0.187428026884    30.973761998420
         O            1.970088370162     1.635847086121    -0.170991026884    15.994914619570
         O            1.281505870162    -0.876426313879    -0.482797426884    15.994914619570
         O            3.284562370162     0.121804086121    -1.684579026884    15.994914619570
         O            3.309485870162    -0.301751113879     0.924679873116    15.994914619570
         O           -0.971535629838     0.190285086121    -0.209247026884    15.994914619570
         O            0.109917370162    -1.050807913879     1.795478973116    15.994914619570
         O           -0.698429629838    -2.401530913879    -0.287121026884    15.994914619570
         O           -3.216136629838    -0.239511913879     1.054684973116    15.994914619570
         O           -2.696217629838     2.037684086121    -0.082660026884    15.994914619570
         O           -3.194758629838    -0.046204913879    -1.534096026884    15.994914619570
         C            1.438300370162     1.997164086121     1.118568973116    12.000000000000
         H            1.033577370162     1.130687086121     1.641147973116     1.007825032230
         H            2.219348370162     2.468224086121     1.723598973116     1.007825032230
         H            0.632699370162     2.710919086121     0.939759973116     1.007825032230

  Basis Set: AUG-CC-PVTZ
    Blend: AUG-CC-PVTZ
  Basis Set: (AUG-CC-PVTZ AUX)
    Blend: AUG-CC-PVTZ-JKFIT
	 Reference Energy          =   -1810.6877150891380097 [Eh]
	 Singles Energy            =      -0.0000000000000000 [Eh]
	 Same-Spin Energy          =      -0.9128886708347844 [Eh]
	 Opposite-Spin Energy      =      -2.5253086553835415 [Eh]
	 Correlation Energy        =      -3.4381973262183259 [Eh]
	 Total Energy              =   -1814.1259124153564244 [Eh]

	 ================> DF-SCS-MP2 Energies <==================
	-----------------------------------------------------------
	 SCS Same-Spin Scale       =       0.3333333333333333 [-]
	 SCS Opposite-Spin Scale   =       1.2000000000000000 [-]
	 SCS Same-Spin Energy      =      -0.3042962236115948 [Eh]
	 SCS Opposite-Spin Energy  =      -3.0303703864602496 [Eh]
	 SCS Correlation Energy    =      -3.3346666100718445 [Eh]
	 SCS Total Energy          =   -1814.0223816992097454 [Eh]
	-----------------------------------------------------------

  Dipole Moment: [D]
     X:     9.4293      Y:     2.4960      Z:     1.4757     Total:     9.8651

*** Psi4 exiting successfully. Buy a developer a beer!
