                               Psi4 1.4a3.dev225

  ==> Input File <==

--------------------------------------------------------------------------
#psi4
#
memory 32 gb

molecule  {
-4 1
  P       -2.5202440    -0.2449420     0.3712220
  P        0.3565170    -0.5960480    -0.3589090
  P        3.1750170     0.3881900     0.1554910
  O       -2.7846366     1.2840125    -0.1005083
  O       -0.9169740    -0.0836090     0.6422800
  O       -3.1856250    -0.4605710     1.7148300
  O       -2.8507450    -1.1694890    -0.7786080
  O        1.4898640     0.0841660     0.5723090
  O        0.2127210     0.0849480    -1.7048820
  O        0.4027150    -2.1095660    -0.2874290
  O        3.5327910    -0.6840640    -0.8835370
  O        3.1643710     1.8286230    -0.3742880
  O        3.8338960     0.2099350     1.5311200
  C       -4.1398760     1.5889580    -0.5252390
  H       -4.4292020     0.9309370    -1.3496150
  H       -4.8386320     1.4471050     0.3059850
  H       -4.1840730     2.6280350    -0.8559160
units angstrom
no_reorient  #important for SAPT in psi4, default
symmetry c1  #important for SAPT in psi4, default
}

set PROPERTIES_ORIGIN ["COM"]
properties('MP2/aug-cc-pvtz', properties = ['dipole'])
--------------------------------------------------------------------------

    Molecular point group: c1
  Charge       = -4
  Multiplicity = 1
  Basis Set: AUG-CC-PVTZ
    Blend: AUG-CC-PVTZ
  Basis Set: (AUG-CC-PVTZ AUX)
    Blend: AUG-CC-PVTZ-JKFIT

    Orbital Energies [Eh]
    ---------------------

    Doubly Occupied:

       1A    -79.574454     2A    -79.515776     3A    -79.474847
       4A    -20.120609     5A    -20.038338     6A    -20.010449
       7A    -20.000243     8A    -19.983237     9A    -19.935488
      10A    -19.934222    11A    -19.921440    12A    -19.916610
      13A    -19.912630    14A    -10.889690    15A     -7.089553
      16A     -7.028823    17A     -6.988600    18A     -4.988819
      19A     -4.987422    20A     -4.986441    21A     -4.928212
      22A     -4.926658    23A     -4.925516    24A     -4.887991
      25A     -4.885892    26A     -4.885764    27A     -0.937926
      28A     -0.849992    29A     -0.803796    30A     -0.775853
      31A     -0.757490    32A     -0.735370    33A     -0.704965
      34A     -0.685763    35A     -0.661470    36A     -0.656741
      37A     -0.536969    38A     -0.309012    39A     -0.252767
      40A     -0.223074    41A     -0.201545    42A     -0.163018
      43A     -0.139534    44A     -0.109796    45A     -0.094907
      46A     -0.078277    47A     -0.063542    48A     -0.051048
      49A     -0.034511    50A     -0.025861    51A     -0.011726
      52A     -0.008434    53A      0.011608    54A      0.012862
      55A      0.023886    56A      0.037589    57A      0.051896
      58A      0.055832    59A      0.065881    60A      0.082866
      61A      0.098438    62A      0.103920    63A      0.107795
      64A      0.109115    65A      0.126029    66A      0.136315
      67A      0.148624    68A      0.155024    69A      0.175040

  @DF-RHF Final Energy: -1810.67394961559057

   => Energetics <=

    Nuclear Repulsion Energy =           1427.4880549716242513
    One-Electron Energy =               -5430.1072245884070071
    Two-Electron Energy =                2191.9452200011919558
    Total Energy =                      -1810.6739496155905726
  Basis Set: (AUG-CC-PVTZ AUX)
    Blend: AUG-CC-PVTZ-RI
    Molecular point group: c1

    Geometry (in Angstrom), charge = -4, multiplicity = 1:

       Center              X                  Y                   Z               Mass
    ------------   -----------------  -----------------  -----------------  -----------------
         P           -2.574172341858    -0.221959614939     0.362714357352    30.973761998420
         P            0.302588658142    -0.573065614939    -0.367416642648    30.973761998420
         P            3.121088658142     0.411172385061     0.146983357352    30.973761998420
         O           -2.838564941858     1.306994885061    -0.109015942648    15.994914619570
         O           -0.970902341858    -0.060626614939     0.633772357352    15.994914619570
         O           -3.239553341858    -0.437588614939     1.706322357352    15.994914619570
         O           -2.904673341858    -1.146506614939    -0.787115642648    15.994914619570
         O            1.435935658142     0.107148385061     0.563801357352    15.994914619570
         O            0.158792658142     0.107930385061    -1.713389642648    15.994914619570
         O            0.348786658142    -2.086583614939    -0.295936642648    15.994914619570
         O            3.478862658142    -0.661081614939    -0.892044642648    15.994914619570
         O            3.110442658142     1.851605385061    -0.382795642648    15.994914619570
         O            3.779967658142     0.232917385061     1.522612357352    15.994914619570
         C           -4.193804341858     1.611940385061    -0.533746642648    12.000000000000
         H           -4.483130341858     0.953919385061    -1.358122642648     1.007825032230
         H           -4.892560341858     1.470087385061     0.297477357352     1.007825032230
         H           -4.238001341858     2.651017385061    -0.864423642648     1.007825032230

  Basis Set: AUG-CC-PVTZ
    Blend: AUG-CC-PVTZ
  Basis Set: (AUG-CC-PVTZ AUX)
    Blend: AUG-CC-PVTZ-JKFIT
	 Reference Energy          =   -1810.6739496155905726 [Eh]
	 Singles Energy            =      -0.0000000000000000 [Eh]
	 Same-Spin Energy          =      -0.9119485132167975 [Eh]
	 Opposite-Spin Energy      =      -2.5241172652885200 [Eh]
	 Correlation Energy        =      -3.4360657785053172 [Eh]
	 Total Energy              =   -1814.1100153940958535 [Eh]

	 ================> DF-SCS-MP2 Energies <==================
	-----------------------------------------------------------
	 SCS Same-Spin Scale       =       0.3333333333333333 [-]
	 SCS Opposite-Spin Scale   =       1.2000000000000000 [-]
	 SCS Same-Spin Energy      =      -0.3039828377389325 [Eh]
	 SCS Opposite-Spin Energy  =      -3.0289407183462238 [Eh]
	 SCS Correlation Energy    =      -3.3329235560851562 [Eh]
	 SCS Total Energy          =   -1814.0068731716758066 [Eh]
	-----------------------------------------------------------

  Dipole Moment: [D]
     X:   -15.1565      Y:     2.9896      Z:    -0.0899     Total:    15.4488

*** Psi4 exiting successfully. Buy a developer a beer!
