                               Psi4 1.3.2 release

  ==> Input File <==

--------------------------------------------------------------------------
#psi4
#
memory 32 gb

molecule  {
-4 1
  P        2.5828670     0.0826120    -0.3559070
  P       -0.1833470    -1.1435920     0.2927960
  P       -2.7088530     0.4754690    -0.2006980
  O        1.9534540     1.6068400    -0.1842610
  O        1.2542714    -0.8851359    -0.5327921
  O        3.2679280     0.0927970    -1.6978490
  O        3.3199946    -0.3028008     0.9047059
  O       -0.9881700     0.1612780    -0.2225170
  O        0.0932830    -1.0798150     1.7822090
  O       -0.7150640    -2.4305380    -0.3003910
  O       -3.2327710    -0.2685190     1.0414150
  O       -2.7128520     2.0086770    -0.0959300
  O       -3.2113930    -0.0752120    -1.5473660
  C        1.4216660     1.9681570     1.1052990
  H        1.0169430     1.1016800     1.6278780
  H        2.2027140     2.4392170     1.7103290
  H        0.6160650     2.6819120     0.9264900
units angstrom
no_reorient  #important for SAPT in psi4, default
symmetry c1  #important for SAPT in psi4, default
}

set PROPERTIES_ORIGIN ["COM"]
properties('MP2/aug-cc-pvtz', properties = ['dipole'])
--------------------------------------------------------------------------

    Molecular point group: c1
  Charge       = -4
  Multiplicity = 1
  Basis Set: AUG-CC-PVTZ
    Blend: AUG-CC-PVTZ
  Basis Set: (AUG-CC-PVTZ AUX)
    Blend: AUG-CC-PVTZ-JKFIT

    Orbital Energies [Eh]
    ---------------------

    Doubly Occupied:

       1A    -79.572909     2A    -79.526107     3A    -79.479782
       4A    -20.086409     5A    -20.037513     6A    -20.003670
       7A    -20.002251     8A    -19.992902     9A    -19.948742
      10A    -19.944570    11A    -19.923870    12A    -19.919124
      13A    -19.917229    14A    -10.811919    15A     -7.086706
      16A     -7.039070    17A     -6.993285    18A     -4.985658
      19A     -4.984730    20A     -4.983880    21A     -4.938357
      22A     -4.936970    23A     -4.936025    24A     -4.892747
      25A     -4.890560    26A     -4.890409    27A     -0.902348
      28A     -0.846021    29A     -0.806710    30A     -0.778101
      31A     -0.757900    32A     -0.741409    33A     -0.713198
      34A     -0.698787    35A     -0.663375    36A     -0.658935
      37A     -0.467124    38A     -0.294283    39A     -0.234815
      40A     -0.184547    41A     -0.164354    42A     -0.149282
      43A     -0.125549    44A     -0.098505    45A     -0.083266
      46A     -0.064818    47A     -0.051904    48A     -0.044248
      49A     -0.031578    50A     -0.016161    51A     -0.006708
      52A      0.000363    53A      0.009420    54A      0.014864
      55A      0.021852    56A      0.036690    57A      0.047653
      58A      0.053784    59A      0.067521    60A      0.071044
      61A      0.091532    62A      0.100784    63A      0.102555
      64A      0.104086    65A      0.114668    66A      0.126021
      67A      0.144630    68A      0.150641    69A      0.172160

  @DF-RHF Final Energy: -1810.68892268989975

   => Energetics <=

    Nuclear Repulsion Energy =           1463.1562215894659857
    One-Electron Energy =               -5501.9321916290919035
    Two-Electron Energy =                2228.0870473497261628
    Total Energy =                      -1810.6889226898997549
  Basis Set: (AUG-CC-PVTZ AUX)
    Blend: AUG-CC-PVTZ-RI
    Molecular point group: c1

    Geometry (in Angstrom), charge = -4, multiplicity = 1:

       Center              X                  Y                   Z               Mass
    ------------   -----------------  -----------------  -----------------  -----------------
         P            2.598513651272     0.108737971678    -0.340044066277    30.973761998420
         P           -0.167700348728    -1.117466028322     0.308658933723    30.973761998420
         P           -2.693206348728     0.501594971678    -0.184835066277    30.973761998420
         O            1.969100651272     1.632965971678    -0.168398066277    15.994914619570
         O            1.269918051272    -0.859009928322    -0.516929166277    15.994914619570
         O            3.283574651272     0.118922971678    -1.681986066277    15.994914619570
         O            3.335641251272    -0.276674828322     0.920568833723    15.994914619570
         O           -0.972523348728     0.187403971678    -0.206654066277    15.994914619570
         O            0.108929651272    -1.053689028322     1.798071933723    15.994914619570
         O           -0.699417348728    -2.404412028322    -0.284528066277    15.994914619570
         O           -3.217124348728    -0.242393028322     1.057277933723    15.994914619570
         O           -2.697205348728     2.034802971678    -0.080067066277    15.994914619570
         O           -3.195746348728    -0.049086028322    -1.531503066277    15.994914619570
         C            1.437312651272     1.994282971678     1.121161933723    12.000000000000
         H            1.032589651272     1.127805971678     1.643740933723     1.007825032230
         H            2.218360651272     2.465342971678     1.726191933723     1.007825032230
         H            0.631711651272     2.708037971678     0.942352933723     1.007825032230

  Basis Set: AUG-CC-PVTZ
    Blend: AUG-CC-PVTZ
  Basis Set: (AUG-CC-PVTZ AUX)
    Blend: AUG-CC-PVTZ-JKFIT
	 Reference Energy          =   -1810.6889226898997549 [Eh]
	 Singles Energy            =      -0.0000000000000000 [Eh]
	 Same-Spin Energy          =      -0.9129610786262002 [Eh]
	 Opposite-Spin Energy      =      -2.5256165878804566 [Eh]
	 Correlation Energy        =      -3.4385776665066570 [Eh]
	 Total Energy              =   -1814.1275003564064718 [Eh]

	 ================> DF-SCS-MP2 Energies <==================
	-----------------------------------------------------------
	 SCS Same-Spin Scale       =       0.3333333333333333 [-]
	 SCS Opposite-Spin Scale   =       1.2000000000000000 [-]
	 SCS Same-Spin Energy      =      -0.3043203595420667 [Eh]
	 SCS Opposite-Spin Energy  =      -3.0307399054565480 [Eh]
	 SCS Correlation Energy    =      -3.3350602649986145 [Eh]
	 SCS Total Energy          =   -1814.0239829548984289 [Eh]
	-----------------------------------------------------------

  Dipole Moment: [D]
     X:     9.3016      Y:     2.3784      Z:     1.5750     Total:     9.7292

*** Psi4 exiting successfully. Buy a developer a beer!
