                               Psi4 1.4a3.dev225

  ==> Input File <==

--------------------------------------------------------------------------
#psi4
#
memory 32 gb

molecule  {
-4 1
  P       -2.5202440    -0.2449420     0.3712220
  P        0.3565170    -0.5960480    -0.3589090
  P        3.1750170     0.3881900     0.1554910
  O       -2.7927880     1.3311510    -0.1150520
  O       -0.9169740    -0.0836090     0.6422800
  O       -3.1856250    -0.4605710     1.7148300
  O       -2.8507450    -1.1694890    -0.7786080
  O        1.4898640     0.0841660     0.5723090
  O        0.2127210     0.0849480    -1.7048820
  O        0.4011912    -2.0596449    -0.2897867
  O        3.5327910    -0.6840640    -0.8835370
  O        3.1643710     1.8286230    -0.3742880
  O        3.8338960     0.2099350     1.5311200
  C       -4.1398760     1.5889580    -0.5252390
  H       -4.4292020     0.9309370    -1.3496150
  H       -4.8386320     1.4471050     0.3059850
  H       -4.1840730     2.6280350    -0.8559160
units angstrom
no_reorient  #important for SAPT in psi4, default
symmetry c1  #important for SAPT in psi4, default
}

set PROPERTIES_ORIGIN ["COM"]
properties('MP2/aug-cc-pvtz', properties = ['dipole'])
--------------------------------------------------------------------------

    Molecular point group: c1
  Charge       = -4
  Multiplicity = 1
  Basis Set: AUG-CC-PVTZ
    Blend: AUG-CC-PVTZ
  Basis Set: (AUG-CC-PVTZ AUX)
    Blend: AUG-CC-PVTZ-JKFIT

    Orbital Energies [Eh]
    ---------------------

    Doubly Occupied:

       1A    -79.579469     2A    -79.506965     3A    -79.474109
       4A    -20.118074     5A    -20.038409     6A    -20.014228
       7A    -20.004380     8A    -19.980344     9A    -19.934625
      10A    -19.930474    11A    -19.920986    12A    -19.915728
      13A    -19.912417    14A    -10.882593    15A     -7.093743
      16A     -7.022162    17A     -6.987844    18A     -4.992895
      19A     -4.991565    20A     -4.990691    21A     -4.921342
      22A     -4.919919    23A     -4.919019    24A     -4.887220
      25A     -4.885152    26A     -4.885021    27A     -0.930173
      28A     -0.852627    29A     -0.807286    30A     -0.775814
      31A     -0.760554    32A     -0.742999    33A     -0.708631
      34A     -0.689716    35A     -0.660905    36A     -0.656279
      37A     -0.527350    38A     -0.306559    39A     -0.250095
      40A     -0.219869    41A     -0.194899    42A     -0.163854
      43A     -0.138676    44A     -0.106631    45A     -0.093314
      46A     -0.078566    47A     -0.062541    48A     -0.050743
      49A     -0.035306    50A     -0.024632    51A     -0.011502
      52A     -0.009583    53A      0.010338    54A      0.011400
      55A      0.022800    56A      0.034601    57A      0.048600
      58A      0.053359    59A      0.062025    60A      0.078857
      61A      0.096719    62A      0.103981    63A      0.106285
      64A      0.108936    65A      0.125131    66A      0.135162
      67A      0.149117    68A      0.155678    69A      0.175512

  @DF-RHF Final Energy: -1810.67670090485012

   => Energetics <=

    Nuclear Repulsion Energy =           1428.3018819956400876
    One-Electron Energy =               -5431.7772151339549964
    Two-Electron Energy =                2192.7986322334645592
    Total Energy =                      -1810.6767009048503496
  Basis Set: (AUG-CC-PVTZ AUX)
    Blend: AUG-CC-PVTZ-RI
    Molecular point group: c1

    Geometry (in Angstrom), charge = -4, multiplicity = 1:

       Center              X                  Y                   Z               Mass
    ------------   -----------------  -----------------  -----------------  -----------------
         P           -2.573594672886    -0.227754670267     0.363723474926    30.973761998420
         P            0.303166327114    -0.578860670267    -0.366407525074    30.973761998420
         P            3.121666327114     0.405377329733     0.147992474926    30.973761998420
         O           -2.846138672886     1.348338329733    -0.122550525074    15.994914619570
         O           -0.970324672886    -0.066421670267     0.634781474926    15.994914619570
         O           -3.238975672886    -0.443383670267     1.707331474926    15.994914619570
         O           -2.904095672886    -1.152301670267    -0.786106525074    15.994914619570
         O            1.436513327114     0.101353329733     0.564810474926    15.994914619570
         O            0.159370327114     0.102135329733    -1.712380525074    15.994914619570
         O            0.347840527114    -2.042457570267    -0.297285225074    15.994914619570
         O            3.479440327114    -0.666876670267    -0.891035525074    15.994914619570
         O            3.111020327114     1.845810329733    -0.381786525074    15.994914619570
         O            3.780545327114     0.227122329733     1.523621474926    15.994914619570
         C           -4.193226672886     1.606145329733    -0.532737525074    12.000000000000
         H           -4.482552672886     0.948124329733    -1.357113525074     1.007825032230
         H           -4.891982672886     1.464292329733     0.298486474926     1.007825032230
         H           -4.237423672886     2.645222329733    -0.863414525074     1.007825032230

  Basis Set: AUG-CC-PVTZ
    Blend: AUG-CC-PVTZ
  Basis Set: (AUG-CC-PVTZ AUX)
    Blend: AUG-CC-PVTZ-JKFIT
	 Reference Energy          =   -1810.6767009048501222 [Eh]
	 Singles Energy            =      -0.0000000000000000 [Eh]
	 Same-Spin Energy          =      -0.9114503853670199 [Eh]
	 Opposite-Spin Energy      =      -2.5228550163003893 [Eh]
	 Correlation Energy        =      -3.4343054016674093 [Eh]
	 Total Energy              =   -1814.1110063065175382 [Eh]

	 ================> DF-SCS-MP2 Energies <==================
	-----------------------------------------------------------
	 SCS Same-Spin Scale       =       0.3333333333333333 [-]
	 SCS Opposite-Spin Scale   =       1.2000000000000000 [-]
	 SCS Same-Spin Energy      =      -0.3038167951223399 [Eh]
	 SCS Opposite-Spin Energy  =      -3.0274260195604672 [Eh]
	 SCS Correlation Energy    =      -3.3312428146828070 [Eh]
	 SCS Total Energy          =   -1814.0079437195329319 [Eh]
	-----------------------------------------------------------

  Dipole Moment: [D]
     X:   -14.9797      Y:     2.3954      Z:     0.0234     Total:    15.1700

*** Psi4 exiting successfully. Buy a developer a beer!
