                               Psi4 1.3.2 release

  ==> Input File <==

--------------------------------------------------------------------------
#psi4
#
memory 32 gb

molecule  {
-4 1
  P        2.5828670     0.0826120    -0.3559070
  P       -0.1833470    -1.1435920     0.2927960
  P       -2.7088530     0.4754690    -0.2006980
  O        1.9534540     1.6068400    -0.1842610
  O        1.2509400    -0.8782220    -0.5450080
  O        3.2679280     0.0927970    -1.6978490
  O        3.3289310    -0.2934220     0.9022790
  O       -0.9881700     0.1612780    -0.2225170
  O        0.0892960    -1.0923725     1.7834285
  O       -0.7148608    -2.4360796    -0.2884033
  O       -3.2327710    -0.2685190     1.0414150
  O       -2.7128520     2.0086770    -0.0959300
  O       -3.2113930    -0.0752120    -1.5473660
  C        1.4216660     1.9681570     1.1052990
  H        1.0169430     1.1016800     1.6278780
  H        2.2027140     2.4392170     1.7103290
  H        0.6160650     2.6819120     0.9264900
units angstrom
no_reorient  #important for SAPT in psi4, default
symmetry c1  #important for SAPT in psi4, default
}

set PROPERTIES_ORIGIN ["COM"]
properties('MP2/aug-cc-pvtz', properties = ['dipole'])
--------------------------------------------------------------------------

    Molecular point group: c1
  Charge       = -4
  Multiplicity = 1
  Basis Set: AUG-CC-PVTZ
    Blend: AUG-CC-PVTZ
  Basis Set: (AUG-CC-PVTZ AUX)
    Blend: AUG-CC-PVTZ-JKFIT

    Orbital Energies [Eh]
    ---------------------

    Doubly Occupied:

       1A    -79.572956     2A    -79.526764     3A    -79.480125
       4A    -20.086071     5A    -20.038967     6A    -20.003137
       7A    -20.002862     8A    -19.993887     9A    -19.949186
      10A    -19.944371    11A    -19.924180    12A    -19.919474
      13A    -19.917440    14A    -10.812233    15A     -7.086777
      16A     -7.039702    17A     -6.993636    18A     -4.985727
      19A     -4.984783    20A     -4.983960    21A     -4.938972
      22A     -4.937557    23A     -4.936687    24A     -4.893102
      25A     -4.890906    26A     -4.890756    27A     -0.902344
      28A     -0.845959    29A     -0.806977    30A     -0.778467
      31A     -0.757912    32A     -0.742090    33A     -0.713927
      34A     -0.698278    35A     -0.663679    36A     -0.659213
      37A     -0.467284    38A     -0.294278    39A     -0.235112
      40A     -0.184485    41A     -0.164402    42A     -0.149215
      43A     -0.126163    44A     -0.098970    45A     -0.083116
      46A     -0.065252    47A     -0.052052    48A     -0.044363
      49A     -0.031972    50A     -0.016484    51A     -0.007050
      52A      0.000026    53A      0.009537    54A      0.014614
      55A      0.021338    56A      0.037135    57A      0.047440
      58A      0.053225    59A      0.066893    60A      0.070936
      61A      0.090959    62A      0.100526    63A      0.102092
      64A      0.103725    65A      0.114528    66A      0.126294
      67A      0.144324    68A      0.150266    69A      0.171882

  @DF-RHF Final Energy: -1810.68901295472347

   => Energetics <=

    Nuclear Repulsion Energy =           1462.6553008375203717
    One-Electron Energy =               -5500.8935801612678915
    Two-Electron Energy =                2227.5492663690238260
    Total Energy =                      -1810.6890129547236938
  Basis Set: (AUG-CC-PVTZ AUX)
    Blend: AUG-CC-PVTZ-RI
    Molecular point group: c1

    Geometry (in Angstrom), charge = -4, multiplicity = 1:

       Center              X                  Y                   Z               Mass
    ------------   -----------------  -----------------  -----------------  -----------------
         P            2.598404914427     0.108845824873    -0.339958352123    30.973761998420
         P           -0.167809085573    -1.117358175127     0.308744647877    30.973761998420
         P           -2.693315085573     0.501702824873    -0.184749352123    30.973761998420
         O            1.968991914427     1.633073824873    -0.168312352123    15.994914619570
         O            1.266477914427    -0.851988175127    -0.529059352123    15.994914619570
         O            3.283465914427     0.119030824873    -1.681900352123    15.994914619570
         O            3.344468914427    -0.267188175127     0.918227647877    15.994914619570
         O           -0.972632085573     0.187511824873    -0.206568352123    15.994914619570
         O            0.104833914427    -1.066138675127     1.799377147877    15.994914619570
         O           -0.699322885573    -2.409845775127    -0.272454652123    15.994914619570
         O           -3.217233085573    -0.242285175127     1.057363647877    15.994914619570
         O           -2.697314085573     2.034910824873    -0.079981352123    15.994914619570
         O           -3.195855085573    -0.048978175127    -1.531417352123    15.994914619570
         C            1.437203914427     1.994390824873     1.121247647877    12.000000000000
         H            1.032480914427     1.127913824873     1.643826647877     1.007825032230
         H            2.218251914427     2.465450824873     1.726277647877     1.007825032230
         H            0.631602914427     2.708145824873     0.942438647877     1.007825032230

  Basis Set: AUG-CC-PVTZ
    Blend: AUG-CC-PVTZ
  Basis Set: (AUG-CC-PVTZ AUX)
    Blend: AUG-CC-PVTZ-JKFIT
	 Reference Energy          =   -1810.6890129547234665 [Eh]
	 Singles Energy            =      -0.0000000000000000 [Eh]
	 Same-Spin Energy          =      -0.9129654895993651 [Eh]
	 Opposite-Spin Energy      =      -2.5257017669467627 [Eh]
	 Correlation Energy        =      -3.4386672565461280 [Eh]
	 Total Energy              =   -1814.1276802112695350 [Eh]

	 ================> DF-SCS-MP2 Energies <==================
	-----------------------------------------------------------
	 SCS Same-Spin Scale       =       0.3333333333333333 [-]
	 SCS Opposite-Spin Scale   =       1.2000000000000000 [-]
	 SCS Same-Spin Energy      =      -0.3043218298664550 [Eh]
	 SCS Opposite-Spin Energy  =      -3.0308421203361151 [Eh]
	 SCS Correlation Energy    =      -3.3351639502025701 [Eh]
	 SCS Total Energy          =   -1814.0241769049259801 [Eh]
	-----------------------------------------------------------

  Dipole Moment: [D]
     X:     9.2657      Y:     2.3934      Z:     1.5777     Total:     9.6990

*** Psi4 exiting successfully. Buy a developer a beer!
