                               Psi4 1.3.2 release

  ==> Input File <==

--------------------------------------------------------------------------
#psi4
#
memory 32 gb

molecule  {
-4 1
  P        2.5828670     0.0826120    -0.3559070
  P       -0.2575065    -1.1776773     0.3153517
  P       -2.7209419     0.3932449    -0.1622254
  O        1.9534540     1.6068400    -0.1842610
  O        1.2509400    -0.8782220    -0.5450080
  O        3.2679280     0.0927970    -1.6978490
  O        3.3289310    -0.2934220     0.9022790
  O       -0.9881700     0.1612780    -0.2225170
  O        0.0932830    -1.0798150     1.7822090
  O       -0.7150640    -2.4305380    -0.3003910
  O       -3.2327710    -0.2685190     1.0414150
  O       -2.7128520     2.0086770    -0.0959300
  O       -3.2113930    -0.0752120    -1.5473660
  C        1.4216660     1.9681570     1.1052990
  H        1.0169430     1.1016800     1.6278780
  H        2.2027140     2.4392170     1.7103290
  H        0.6160650     2.6819120     0.9264900
units angstrom
no_reorient  #important for SAPT in psi4, default
symmetry c1  #important for SAPT in psi4, default
}

set PROPERTIES_ORIGIN ["COM"]
properties('MP2/aug-cc-pvtz', properties = ['dipole'])
--------------------------------------------------------------------------

    Molecular point group: c1
  Charge       = -4
  Multiplicity = 1
  Basis Set: AUG-CC-PVTZ
    Blend: AUG-CC-PVTZ
  Basis Set: (AUG-CC-PVTZ AUX)
    Blend: AUG-CC-PVTZ-JKFIT

    Orbital Energies [Eh]
    ---------------------

    Doubly Occupied:

       1A    -79.560468     2A    -79.529054     3A    -79.482288
       4A    -20.077288     5A    -20.017656     6A    -20.002379
       7A    -19.994224     8A    -19.993463     9A    -19.962092
      10A    -19.957646    11A    -19.937119    12A    -19.922723
      13A    -19.911506    14A    -10.806109    15A     -7.074319
      16A     -7.043587    17A     -6.996898    18A     -4.973300
      19A     -4.972221    20A     -4.971612    21A     -4.942720
      22A     -4.941275    23A     -4.940519    24A     -4.896187
      25A     -4.894529    26A     -4.893639    27A     -0.891216
      28A     -0.838440    29A     -0.804542    30A     -0.776701
      31A     -0.749196    32A     -0.746135    33A     -0.734584
      34A     -0.718632    35A     -0.679094    36A     -0.634613
      37A     -0.460392    38A     -0.274866    39A     -0.228080
      40A     -0.173802    41A     -0.156362    42A     -0.140809
      43A     -0.124501    44A     -0.102548    45A     -0.074462
      46A     -0.068909    47A     -0.052879    48A     -0.041671
      49A     -0.031659    50A     -0.015370    51A     -0.006396
      52A      0.002609    53A      0.009059    54A      0.018991
      55A      0.022647    56A      0.035883    57A      0.045170
      58A      0.060498    59A      0.061941    60A      0.072480
      61A      0.080854    62A      0.091159    63A      0.096527
      64A      0.103713    65A      0.109478    66A      0.114528
      67A      0.134613    68A      0.158261    69A      0.174789

  @DF-RHF Final Energy: -1810.67414662712076

   => Energetics <=

    Nuclear Repulsion Energy =           1462.2330429869259660
    One-Electron Energy =               -5500.1594243562149131
    Two-Electron Energy =                2227.2522347421681843
    Total Energy =                      -1810.6741466271205354
  Basis Set: (AUG-CC-PVTZ AUX)
    Blend: AUG-CC-PVTZ-RI
    Molecular point group: c1

    Geometry (in Angstrom), charge = -4, multiplicity = 1:

       Center              X                  Y                   Z               Mass
    ------------   -----------------  -----------------  -----------------  -----------------
         P            2.608150995936     0.121212832947    -0.346225863095    30.973761998420
         P           -0.232222504064    -1.139076467053     0.325032836905    30.973761998420
         P           -2.695657904064     0.431845732947    -0.152544263095    30.973761998420
         O            1.978737995936     1.645440832947    -0.174579863095    15.994914619570
         O            1.276223995936    -0.839621167053    -0.535326863095    15.994914619570
         O            3.293211995936     0.131397832947    -1.688167863095    15.994914619570
         O            3.354214995936    -0.254821167053     0.911960136905    15.994914619570
         O           -0.962886004064     0.199878832947    -0.212835863095    15.994914619570
         O            0.118566995936    -1.041214167053     1.791890136905    15.994914619570
         O           -0.689780004064    -2.391937167053    -0.290709863095    15.994914619570
         O           -3.207487004064    -0.229918167053     1.051096136905    15.994914619570
         O           -2.687568004064     2.047277832947    -0.086248863095    15.994914619570
         O           -3.186109004064    -0.036611167053    -1.537684863095    15.994914619570
         C            1.446949995936     2.006757832947     1.114980136905    12.000000000000
         H            1.042226995936     1.140280832947     1.637559136905     1.007825032230
         H            2.227997995936     2.477817832947     1.720010136905     1.007825032230
         H            0.641348995936     2.720512832947     0.936171136905     1.007825032230

  Basis Set: AUG-CC-PVTZ
    Blend: AUG-CC-PVTZ
  Basis Set: (AUG-CC-PVTZ AUX)
    Blend: AUG-CC-PVTZ-JKFIT
	 Reference Energy          =   -1810.6741466271207628 [Eh]
	 Singles Energy            =      -0.0000000000000000 [Eh]
	 Same-Spin Energy          =      -0.9134408456398664 [Eh]
	 Opposite-Spin Energy      =      -2.5269379202429540 [Eh]
	 Correlation Energy        =      -3.4403787658828202 [Eh]
	 Total Energy              =   -1814.1145253930035324 [Eh]

	 ================> DF-SCS-MP2 Energies <==================
	-----------------------------------------------------------
	 SCS Same-Spin Scale       =       0.3333333333333333 [-]
	 SCS Opposite-Spin Scale   =       1.2000000000000000 [-]
	 SCS Same-Spin Energy      =      -0.3044802818799555 [Eh]
	 SCS Opposite-Spin Energy  =      -3.0323255042915447 [Eh]
	 SCS Correlation Energy    =      -3.3368057861715004 [Eh]
	 SCS Total Energy          =   -1814.0109524132922161 [Eh]
	-----------------------------------------------------------

  Dipole Moment: [D]
     X:     7.9693      Y:     0.5929      Z:     2.2934     Total:     8.3139

*** Psi4 exiting successfully. Buy a developer a beer!
