                               Psi4 1.3.2 release

  ==> Input File <==

--------------------------------------------------------------------------
#psi4
#
memory 32 gb

molecule  {
-4 1
  P        2.5828670     0.0826120    -0.3559070
  P       -0.1833470    -1.1435920     0.2927960
  P       -2.7088530     0.4754690    -0.2006980
  O        1.9534540     1.6068400    -0.1842610
  O        1.2509400    -0.8782220    -0.5450080
  O        3.2679280     0.0927970    -1.6978490
  O        3.3289310    -0.2934220     0.9022790
  O       -0.9881700     0.1612780    -0.2225170
  O        0.0932830    -1.0798150     1.7822090
  O       -0.7150640    -2.4305380    -0.3003910
  O       -3.2327710    -0.2685190     1.0414150
  O       -2.7128520     2.0086770    -0.0959300
  O       -3.2440412    -0.1109878    -1.6348542
  C        1.4216660     1.9681570     1.1052990
  H        1.0169430     1.1016800     1.6278780
  H        2.2027140     2.4392170     1.7103290
  H        0.6160650     2.6819120     0.9264900
units angstrom
no_reorient  #important for SAPT in psi4, default
symmetry c1  #important for SAPT in psi4, default
}

set PROPERTIES_ORIGIN ["COM"]
properties('MP2/aug-cc-pvtz', properties = ['dipole'])
--------------------------------------------------------------------------

    Molecular point group: c1
  Charge       = -4
  Multiplicity = 1
  Basis Set: AUG-CC-PVTZ
    Blend: AUG-CC-PVTZ
  Basis Set: (AUG-CC-PVTZ AUX)
    Blend: AUG-CC-PVTZ-JKFIT

    Orbital Energies [Eh]
    ---------------------

    Doubly Occupied:

       1A    -79.574046     2A    -79.530002     3A    -79.496801
       4A    -20.087403     5A    -20.040389     6A    -20.004251
       7A    -20.003682     8A    -19.999852     9A    -19.952947
      10A    -19.947003    11A    -19.932895    12A    -19.926588
      13A    -19.924788    14A    -10.813738    15A     -7.087876
      16A     -7.042944    17A     -7.007934    18A     -4.986829
      19A     -4.985882    20A     -4.985053    21A     -4.942205
      22A     -4.940864    23A     -4.939874    24A     -4.907494
      25A     -4.905340    26A     -4.904693    27A     -0.903700
      28A     -0.848165    29A     -0.809011    30A     -0.779374
      31A     -0.758891    32A     -0.742378    33A     -0.714864
      34A     -0.701781    35A     -0.670198    36A     -0.638046
      37A     -0.468805    38A     -0.296291    39A     -0.237931
      40A     -0.187987    41A     -0.166384    42A     -0.150747
      43A     -0.128156    44A     -0.102280    45A     -0.084919
      46A     -0.067307    47A     -0.054139    48A     -0.046259
      49A     -0.034654    50A     -0.018037    51A     -0.008228
      52A     -0.000193    53A      0.008838    54A      0.013731
      55A      0.020247    56A      0.036367    57A      0.046912
      58A      0.052027    59A      0.065271    60A      0.069029
      61A      0.089304    62A      0.097034    63A      0.103614
      64A      0.106815    65A      0.114851    66A      0.124608
      67A      0.138345    68A      0.153984    69A      0.169327

  @DF-RHF Final Energy: -1810.67654220143777

   => Energetics <=

    Nuclear Repulsion Energy =           1458.3514208958670224
    One-Electron Energy =               -5491.8963394053034790
    Two-Electron Energy =                2222.8683763079989149
    Total Energy =                      -1810.6765422014377691
  Basis Set: (AUG-CC-PVTZ AUX)
    Blend: AUG-CC-PVTZ-RI
    Molecular point group: c1

    Geometry (in Angstrom), charge = -4, multiplicity = 1:

       Center              X                  Y                   Z               Mass
    ------------   -----------------  -----------------  -----------------  -----------------
         P            2.600128296710     0.109901232628    -0.333946217163    30.973761998420
         P           -0.166085703290    -1.116302767372     0.314756782837    30.973761998420
         P           -2.691591703290     0.502758232628    -0.178737217163    30.973761998420
         O            1.970715296710     1.634129232628    -0.162300217163    15.994914619570
         O            1.268201296710    -0.850932767372    -0.523047217163    15.994914619570
         O            3.285189296710     0.120086232628    -1.675888217163    15.994914619570
         O            3.346192296710    -0.266132767372     0.924239782837    15.994914619570
         O           -0.970908703290     0.188567232628    -0.200556217163    15.994914619570
         O            0.110544296710    -1.052525767372     1.804169782837    15.994914619570
         O           -0.697802703290    -2.403248767372    -0.278430217163    15.994914619570
         O           -3.215509703290    -0.241229767372     1.063375782837    15.994914619570
         O           -2.695590703290     2.035966232628    -0.073969217163    15.994914619570
         O           -3.226779903290    -0.083698567372    -1.612893417163    15.994914619570
         C            1.438927296710     1.995446232628     1.127259782837    12.000000000000
         H            1.034204296710     1.128969232628     1.649838782837     1.007825032230
         H            2.219975296710     2.466506232628     1.732289782837     1.007825032230
         H            0.633326296710     2.709201232628     0.948450782837     1.007825032230

  Basis Set: AUG-CC-PVTZ
    Blend: AUG-CC-PVTZ
  Basis Set: (AUG-CC-PVTZ AUX)
    Blend: AUG-CC-PVTZ-JKFIT
	 Reference Energy          =   -1810.6765422014377691 [Eh]
	 Singles Energy            =      -0.0000000000000000 [Eh]
	 Same-Spin Energy          =      -0.9147398860546252 [Eh]
	 Opposite-Spin Energy      =      -2.5304610634881626 [Eh]
	 Correlation Energy        =      -3.4452009495427878 [Eh]
	 Total Energy              =   -1814.1217431509805920 [Eh]

	 ================> DF-SCS-MP2 Energies <==================
	-----------------------------------------------------------
	 SCS Same-Spin Scale       =       0.3333333333333333 [-]
	 SCS Opposite-Spin Scale   =       1.2000000000000000 [-]
	 SCS Same-Spin Energy      =      -0.3049132953515417 [Eh]
	 SCS Opposite-Spin Energy  =      -3.0365532761857952 [Eh]
	 SCS Correlation Energy    =      -3.3414665715373371 [Eh]
	 SCS Total Energy          =   -1814.0180087729750085 [Eh]
	-----------------------------------------------------------

  Dipole Moment: [D]
     X:     9.6489      Y:     2.5413      Z:     2.3020     Total:    10.2400

*** Psi4 exiting successfully. Buy a developer a beer!
