                               Psi4 1.3.2 release

  ==> Input File <==

--------------------------------------------------------------------------
#psi4
#
memory 32 gb

molecule  {
-4 1
  P        2.5828670     0.0826120    -0.3559070
  P       -0.1833470    -1.1435920     0.2927960
  P       -2.7088530     0.4754690    -0.2006980
  O        1.9222932     1.5827889    -0.1068977
  O        1.2509400    -0.8782220    -0.5450080
  O        3.2883811     0.0175932    -1.6856600
  O        3.3289310    -0.2934220     0.9022790
  O       -0.9881700     0.1612780    -0.2225170
  O        0.0932830    -1.0798150     1.7822090
  O       -0.7150640    -2.4305380    -0.3003910
  O       -3.2327710    -0.2685190     1.0414150
  O       -2.7128520     2.0086770    -0.0959300
  O       -3.2113930    -0.0752120    -1.5473660
  C        1.4216660     1.9681570     1.1052990
  H        1.0169430     1.1016800     1.6278780
  H        2.2027140     2.4392170     1.7103290
  H        0.6160650     2.6819120     0.9264900
units angstrom
no_reorient  #important for SAPT in psi4, default
symmetry c1  #important for SAPT in psi4, default
}

set PROPERTIES_ORIGIN ["COM"]
properties('MP2/aug-cc-pvtz', properties = ['dipole'])
--------------------------------------------------------------------------

    Molecular point group: c1
  Charge       = -4
  Multiplicity = 1
  Basis Set: AUG-CC-PVTZ
    Blend: AUG-CC-PVTZ
  Basis Set: (AUG-CC-PVTZ AUX)
    Blend: AUG-CC-PVTZ-JKFIT

    Orbital Energies [Eh]
    ---------------------

    Doubly Occupied:

       1A    -79.576064     2A    -79.525758     3A    -79.479501
       4A    -20.084665     5A    -20.036579     6A    -20.009476
       7A    -19.999012     8A    -19.992387     9A    -19.948625
      10A    -19.944378    11A    -19.923615    12A    -19.919016
      13A    -19.916910    14A    -10.805889    15A     -7.089623
      16A     -7.038704    17A     -6.993004    18A     -4.988653
      19A     -4.987550    20A     -4.986843    21A     -4.937978
      22A     -4.936600    23A     -4.935662    24A     -4.892463
      25A     -4.890281    26A     -4.890132    27A     -0.919767
      28A     -0.850539    29A     -0.810538    30A     -0.778586
      31A     -0.757266    32A     -0.741256    33A     -0.712902
      34A     -0.698478    35A     -0.663141    36A     -0.658715
      37A     -0.467722    38A     -0.295310    39A     -0.242095
      40A     -0.190311    41A     -0.174148    42A     -0.163680
      43A     -0.126721    44A     -0.098755    45A     -0.085208
      46A     -0.064080    47A     -0.052345    48A     -0.039266
      49A     -0.029521    50A     -0.016301    51A     -0.005008
      52A      0.001789    53A      0.011274    54A      0.014774
      55A      0.022587    56A      0.034826    57A      0.047897
      58A      0.056152    59A      0.067821    60A      0.071381
      61A      0.091745    62A      0.101010    63A      0.102866
      64A      0.104347    65A      0.114996    66A      0.126453
      67A      0.144920    68A      0.150870    69A      0.172382

  @DF-RHF Final Energy: -1810.68710430271017

   => Energetics <=

    Nuclear Repulsion Energy =           1464.7210524481013181
    One-Electron Energy =               -5504.9504445446655154
    Two-Electron Energy =                2229.5422877938535748
    Total Energy =                      -1810.6871043027103951
  Basis Set: (AUG-CC-PVTZ AUX)
    Blend: AUG-CC-PVTZ-RI
    Molecular point group: c1

    Geometry (in Angstrom), charge = -4, multiplicity = 1:

       Center              X                  Y                   Z               Mass
    ------------   -----------------  -----------------  -----------------  -----------------
         P            2.598818313859     0.113691325485    -0.344516624346    30.973761998420
         P           -0.167395686141    -1.112512674515     0.304186375654    30.973761998420
         P           -2.692901686141     0.506548325485    -0.189307624346    30.973761998420
         O            1.938244513859     1.613868225485    -0.095507324346    15.994914619570
         O            1.266891313859    -0.847142674515    -0.533617624346    15.994914619570
         O            3.304332413859     0.048672525485    -1.674269624346    15.994914619570
         O            3.344882313859    -0.262342674515     0.913669375654    15.994914619570
         O           -0.972218686141     0.192357325485    -0.211126624346    15.994914619570
         O            0.109234313859    -1.048735674515     1.793599375654    15.994914619570
         O           -0.699112686141    -2.399458674515    -0.289000624346    15.994914619570
         O           -3.216819686141    -0.237439674515     1.052805375654    15.994914619570
         O           -2.696900686141     2.039756325485    -0.084539624346    15.994914619570
         O           -3.195441686141    -0.044132674515    -1.535975624346    15.994914619570
         C            1.437617313859     1.999236325485     1.116689375654    12.000000000000
         H            1.032894313859     1.132759325485     1.639268375654     1.007825032230
         H            2.218665313859     2.470296325485     1.721719375654     1.007825032230
         H            0.632016313859     2.712991325485     0.937880375654     1.007825032230

  Basis Set: AUG-CC-PVTZ
    Blend: AUG-CC-PVTZ
  Basis Set: (AUG-CC-PVTZ AUX)
    Blend: AUG-CC-PVTZ-JKFIT
	 Reference Energy          =   -1810.6871043027101678 [Eh]
	 Singles Energy            =      -0.0000000000000000 [Eh]
	 Same-Spin Energy          =      -0.9126778368067171 [Eh]
	 Opposite-Spin Energy      =      -2.5239447317505714 [Eh]
	 Correlation Energy        =      -3.4366225685572886 [Eh]
	 Total Energy              =   -1814.1237268712675359 [Eh]

	 ================> DF-SCS-MP2 Energies <==================
	-----------------------------------------------------------
	 SCS Same-Spin Scale       =       0.3333333333333333 [-]
	 SCS Opposite-Spin Scale   =       1.2000000000000000 [-]
	 SCS Same-Spin Energy      =      -0.3042259456022390 [Eh]
	 SCS Opposite-Spin Energy  =      -3.0287336781006857 [Eh]
	 SCS Correlation Energy    =      -3.3329596237029246 [Eh]
	 SCS Total Energy          =   -1814.0200639264130587 [Eh]
	-----------------------------------------------------------

  Dipole Moment: [D]
     X:     9.3376      Y:     2.4338      Z:     1.3141     Total:     9.7386

*** Psi4 exiting successfully. Buy a developer a beer!
