                               Psi4 1.4a3.dev225

  ==> Input File <==

--------------------------------------------------------------------------
#psi4
#
memory 32 gb

molecule  {
-4 1
  P       -2.5202440    -0.2449420     0.3712220
  P        0.3565170    -0.5960480    -0.3589090
  P        3.1750170     0.3881900     0.1554910
  O       -2.7927880     1.3311510    -0.1150520
  O       -0.9169740    -0.0836090     0.6422800
  O       -3.1856250    -0.4605710     1.7148300
  O       -2.8463733    -1.1572595    -0.7633986
  O        1.4898640     0.0841660     0.5723090
  O        0.2127210     0.0849480    -1.7048820
  O        0.4027150    -2.1095660    -0.2874290
  O        3.5327910    -0.6840640    -0.8835370
  O        3.1643710     1.8286230    -0.3742880
  O        3.8338960     0.2099350     1.5311200
  C       -4.1398760     1.5889580    -0.5252390
  H       -4.4292020     0.9309370    -1.3496150
  H       -4.8386320     1.4471050     0.3059850
  H       -4.1840730     2.6280350    -0.8559160
units angstrom
no_reorient  #important for SAPT in psi4, default
symmetry c1  #important for SAPT in psi4, default
}

set PROPERTIES_ORIGIN ["COM"]
properties('MP2/aug-cc-pvtz', properties = ['dipole'])
--------------------------------------------------------------------------

    Molecular point group: c1
  Charge       = -4
  Multiplicity = 1
  Basis Set: AUG-CC-PVTZ
    Blend: AUG-CC-PVTZ
  Basis Set: (AUG-CC-PVTZ AUX)
    Blend: AUG-CC-PVTZ-JKFIT

    Orbital Energies [Eh]
    ---------------------

    Doubly Occupied:

       1A    -79.576907     2A    -79.516863     3A    -79.475246
       4A    -20.117754     5A    -20.040234     6A    -20.013309
       7A    -20.004178     8A    -19.983951     9A    -19.936811
      10A    -19.935072    11A    -19.921796    12A    -19.916869
      13A    -19.913061    14A    -10.882975    15A     -7.091958
      16A     -7.029919    17A     -6.989003    18A     -4.991024
      19A     -4.989777    20A     -4.988961    21A     -4.929313
      22A     -4.927746    23A     -4.926608    24A     -4.888396
      25A     -4.886292    26A     -4.886163    27A     -0.930831
      28A     -0.853200    29A     -0.808650    30A     -0.777962
      31A     -0.764759    32A     -0.736223    33A     -0.705711
      34A     -0.686829    35A     -0.661806    36A     -0.657113
      37A     -0.527638    38A     -0.307267    39A     -0.251666
      40A     -0.220171    41A     -0.195810    42A     -0.164744
      43A     -0.139674    44A     -0.108364    45A     -0.094299
      46A     -0.079402    47A     -0.063278    48A     -0.051265
      49A     -0.035442    50A     -0.025769    51A     -0.012101
      52A     -0.009681    53A      0.008238    54A      0.011923
      55A      0.023196    56A      0.034656    57A      0.046428
      58A      0.054968    59A      0.061246    60A      0.081338
      61A      0.097704    62A      0.103523    63A      0.107283
      64A      0.108325    65A      0.125030    66A      0.135450
      67A      0.148163    68A      0.154541    69A      0.174691

  @DF-RHF Final Energy: -1810.67681356578078

   => Energetics <=

    Nuclear Repulsion Energy =           1426.6182403961233831
    One-Electron Energy =               -5428.2838270999836823
    Two-Electron Energy =                2190.9887731380795231
    Total Energy =                      -1810.6768135657807761
  Basis Set: (AUG-CC-PVTZ AUX)
    Blend: AUG-CC-PVTZ-RI
    Molecular point group: c1

    Geometry (in Angstrom), charge = -4, multiplicity = 1:

       Center              X                  Y                   Z               Mass
    ------------   -----------------  -----------------  -----------------  -----------------
         P           -2.573946670511    -0.225504249831     0.362674610966    30.973761998420
         P            0.302814329489    -0.576610249831    -0.367456389034    30.973761998420
         P            3.121314329489     0.407627750169     0.146943610966    30.973761998420
         O           -2.846490670511     1.350588750169    -0.123599389034    15.994914619570
         O           -0.970676670511    -0.064171249831     0.633732610966    15.994914619570
         O           -3.239327670511    -0.441133249831     1.706282610966    15.994914619570
         O           -2.900075970511    -1.137821749831    -0.771945989034    15.994914619570
         O            1.436161329489     0.103603750169     0.563761610966    15.994914619570
         O            0.159018329489     0.104385750169    -1.713429389034    15.994914619570
         O            0.349012329489    -2.090128249831    -0.295976389034    15.994914619570
         O            3.479088329489    -0.664626249831    -0.892084389034    15.994914619570
         O            3.110668329489     1.848060750169    -0.382835389034    15.994914619570
         O            3.780193329489     0.229372750169     1.522572610966    15.994914619570
         C           -4.193578670511     1.608395750169    -0.533786389034    12.000000000000
         H           -4.482904670511     0.950374750169    -1.358162389034     1.007825032230
         H           -4.892334670511     1.466542750169     0.297437610966     1.007825032230
         H           -4.237775670511     2.647472750169    -0.864463389034     1.007825032230

  Basis Set: AUG-CC-PVTZ
    Blend: AUG-CC-PVTZ
  Basis Set: (AUG-CC-PVTZ AUX)
    Blend: AUG-CC-PVTZ-JKFIT
	 Reference Energy          =   -1810.6768135657807761 [Eh]
	 Singles Energy            =      -0.0000000000000000 [Eh]
	 Same-Spin Energy          =      -0.9119688795418937 [Eh]
	 Opposite-Spin Energy      =      -2.5242048794305361 [Eh]
	 Correlation Energy        =      -3.4361737589724299 [Eh]
	 Total Energy              =   -1814.1129873247532487 [Eh]

	 ================> DF-SCS-MP2 Energies <==================
	-----------------------------------------------------------
	 SCS Same-Spin Scale       =       0.3333333333333333 [-]
	 SCS Opposite-Spin Scale   =       1.2000000000000000 [-]
	 SCS Same-Spin Energy      =      -0.3039896265139646 [Eh]
	 SCS Opposite-Spin Energy  =      -3.0290458553166433 [Eh]
	 SCS Correlation Energy    =      -3.3330354818306076 [Eh]
	 SCS Total Energy          =   -1814.0098490476113966 [Eh]
	-----------------------------------------------------------

  Dipole Moment: [D]
     X:   -15.0255      Y:     2.6483      Z:    -0.0675     Total:    15.2573

*** Psi4 exiting successfully. Buy a developer a beer!
