                               Psi4 1.3.2 release

  ==> Input File <==

--------------------------------------------------------------------------
#psi4
#
memory 32 gb

molecule  {
-4 1
  P        2.5828670     0.0826120    -0.3559070
  P       -0.1833470    -1.1435920     0.2927960
  P       -2.7088530     0.4754690    -0.2006980
  O        1.9534540     1.6068400    -0.1842610
  O        1.2509400    -0.8782220    -0.5450080
  O        3.1996448     0.1154291    -1.7302173
  O        3.2621523    -0.2815812     0.9429309
  O       -0.9881700     0.1612780    -0.2225170
  O        0.0932830    -1.0798150     1.7822090
  O       -0.7150640    -2.4305380    -0.3003910
  O       -3.2327710    -0.2685190     1.0414150
  O       -2.7128520     2.0086770    -0.0959300
  O       -3.2113930    -0.0752120    -1.5473660
  C        1.4216660     1.9681570     1.1052990
  H        1.0169430     1.1016800     1.6278780
  H        2.2027140     2.4392170     1.7103290
  H        0.6160650     2.6819120     0.9264900
units angstrom
no_reorient  #important for SAPT in psi4, default
symmetry c1  #important for SAPT in psi4, default
}

set PROPERTIES_ORIGIN ["COM"]
properties('MP2/aug-cc-pvtz', properties = ['dipole'])
--------------------------------------------------------------------------

    Molecular point group: c1
  Charge       = -4
  Multiplicity = 1
  Basis Set: AUG-CC-PVTZ
    Blend: AUG-CC-PVTZ
  Basis Set: (AUG-CC-PVTZ AUX)
    Blend: AUG-CC-PVTZ-JKFIT

    Orbital Energies [Eh]
    ---------------------

    Doubly Occupied:

       1A    -79.572809     2A    -79.524053     3A    -79.478236
       4A    -20.081097     5A    -20.032895     6A    -20.007223
       7A    -20.006664     8A    -19.990630     9A    -19.947270
      10A    -19.942970    11A    -19.922373    12A    -19.917729
      13A    -19.915862    14A    -10.808155    15A     -7.086660
      16A     -7.036975    17A     -6.991733    18A     -4.985634
      19A     -4.984852    20A     -4.983694    21A     -4.936232
      22A     -4.934885    23A     -4.933952    24A     -4.891188
      25A     -4.889014    26A     -4.888866    27A     -0.900040
      28A     -0.842201    29A     -0.805416    30A     -0.775420
      31A     -0.763884    32A     -0.739466    33A     -0.711446
      34A     -0.697124    35A     -0.661912    36A     -0.657550
      37A     -0.463397    38A     -0.290711    39A     -0.232103
      40A     -0.181682    41A     -0.161585    42A     -0.146141
      43A     -0.125690    44A     -0.096968    45A     -0.082479
      46A     -0.062863    47A     -0.051569    48A     -0.041702
      49A     -0.030143    50A     -0.014650    51A     -0.003548
      52A      0.001805    53A      0.011516    54A      0.014940
      55A      0.023717    56A      0.037604    57A      0.049413
      58A      0.051422    59A      0.064301    60A      0.072344
      61A      0.093441    62A      0.102221    63A      0.104232
      64A      0.105653    65A      0.116238    66A      0.127630
      67A      0.146145    68A      0.152158    69A      0.173562

  @DF-RHF Final Energy: -1810.68380386660897

   => Energetics <=

    Nuclear Repulsion Energy =           1464.8159504499951709
    One-Electron Energy =               -5505.4335141988458417
    Two-Electron Energy =                2229.9337598822412474
    Total Energy =                      -1810.6838038666091961
  Basis Set: (AUG-CC-PVTZ AUX)
    Blend: AUG-CC-PVTZ-RI
    Molecular point group: c1

    Geometry (in Angstrom), charge = -4, multiplicity = 1:

       Center              X                  Y                   Z               Mass
    ------------   -----------------  -----------------  -----------------  -----------------
         P            2.606243024752     0.105706952997    -0.339664382909    30.973761998420
         P           -0.159970975248    -1.120497047003     0.309038617091    30.973761998420
         P           -2.685476975248     0.498563952997    -0.184455382909    30.973761998420
         O            1.976830024752     1.629934952997    -0.168018382909    15.994914619570
         O            1.274316024752    -0.855127047003    -0.528765382909    15.994914619570
         O            3.223020824752     0.138524052997    -1.713974682909    15.994914619570
         O            3.285528324752    -0.258486247003     0.959173517091    15.994914619570
         O           -0.964793975248     0.184372952997    -0.206274382909    15.994914619570
         O            0.116659024752    -1.056720047003     1.798451617091    15.994914619570
         O           -0.691687975248    -2.407443047003    -0.284148382909    15.994914619570
         O           -3.209394975248    -0.245424047003     1.057657617091    15.994914619570
         O           -2.689475975248     2.031771952997    -0.079687382909    15.994914619570
         O           -3.188016975248    -0.052117047003    -1.531123382909    15.994914619570
         C            1.445042024752     1.991251952997     1.121541617091    12.000000000000
         H            1.040319024752     1.124774952997     1.644120617091     1.007825032230
         H            2.226090024752     2.462311952997     1.726571617091     1.007825032230
         H            0.639441024752     2.705006952997     0.942732617091     1.007825032230

  Basis Set: AUG-CC-PVTZ
    Blend: AUG-CC-PVTZ
  Basis Set: (AUG-CC-PVTZ AUX)
    Blend: AUG-CC-PVTZ-JKFIT
	 Reference Energy          =   -1810.6838038666089687 [Eh]
	 Singles Energy            =      -0.0000000000000000 [Eh]
	 Same-Spin Energy          =      -0.9135349901937324 [Eh]
	 Opposite-Spin Energy      =      -2.5267416654955364 [Eh]
	 Correlation Energy        =      -3.4402766556892690 [Eh]
	 Total Energy              =   -1814.1240805222982999 [Eh]

	 ================> DF-SCS-MP2 Energies <==================
	-----------------------------------------------------------
	 SCS Same-Spin Scale       =       0.3333333333333333 [-]
	 SCS Opposite-Spin Scale   =       1.2000000000000000 [-]
	 SCS Same-Spin Energy      =      -0.3045116633979108 [Eh]
	 SCS Opposite-Spin Energy  =      -3.0320899985946435 [Eh]
	 SCS Correlation Energy    =      -3.3366016619925540 [Eh]
	 SCS Total Energy          =   -1814.0204055286014864 [Eh]
	-----------------------------------------------------------

  Dipole Moment: [D]
     X:     9.6833      Y:     2.2485      Z:     1.5668     Total:    10.0636

*** Psi4 exiting successfully. Buy a developer a beer!
