                               Psi4 1.4a3.dev225

  ==> Input File <==

--------------------------------------------------------------------------
#psi4
#
memory 32 gb

molecule  {
-4 1
  P       -2.5202440    -0.2449420     0.3712220
  P        0.3565170    -0.5960480    -0.3589090
  P        3.1750170     0.3881900     0.1554910
  O       -2.7927880     1.3311510    -0.1150520
  O       -0.9169740    -0.0836090     0.6422800
  O       -3.1856250    -0.4605710     1.7148300
  O       -2.8507450    -1.1694890    -0.7786080
  O        1.4898640     0.0841660     0.5723090
  O        0.2127210     0.0849480    -1.7048820
  O        0.4027150    -2.1095660    -0.2874290
  O        3.5327910    -0.6840640    -0.8835370
  O        3.1647178     1.7816974    -0.3570292
  O        3.8338960     0.2099350     1.5311200
  C       -4.1398760     1.5889580    -0.5252390
  H       -4.4292020     0.9309370    -1.3496150
  H       -4.8386320     1.4471050     0.3059850
  H       -4.1840730     2.6280350    -0.8559160
units angstrom
no_reorient  #important for SAPT in psi4, default
symmetry c1  #important for SAPT in psi4, default
}

set PROPERTIES_ORIGIN ["COM"]
properties('MP2/aug-cc-pvtz', properties = ['dipole'])
--------------------------------------------------------------------------

    Molecular point group: c1
  Charge       = -4
  Multiplicity = 1
  Basis Set: AUG-CC-PVTZ
    Blend: AUG-CC-PVTZ
  Basis Set: (AUG-CC-PVTZ AUX)
    Blend: AUG-CC-PVTZ-JKFIT

    Orbital Energies [Eh]
    ---------------------

    Doubly Occupied:

       1A    -79.580131     2A    -79.515598     3A    -79.465291
       4A    -20.118832     5A    -20.040839     6A    -20.014564
       7A    -20.004479     8A    -19.980659     9A    -19.935452
      10A    -19.934330    11A    -19.917346    12A    -19.913915
      13A    -19.908389    14A    -10.883217    15A     -7.094413
      16A     -7.028662    17A     -6.980977    18A     -4.993562
      19A     -4.992245    20A     -4.991345    21A     -4.928073
      22A     -4.926463    23A     -4.925354    24A     -4.880196
      25A     -4.878484    26A     -4.878009    27A     -0.930949
      28A     -0.852539    29A     -0.806253    30A     -0.778654
      31A     -0.760721    32A     -0.739093    33A     -0.706437
      34A     -0.685800    35A     -0.667515    36A     -0.655191
      37A     -0.528002    38A     -0.307775    39A     -0.251188
      40A     -0.220497    41A     -0.195376    42A     -0.164093
      43A     -0.138325    44A     -0.107467    45A     -0.092847
      46A     -0.078749    47A     -0.062227    48A     -0.050776
      49A     -0.034531    50A     -0.024998    51A     -0.012261
      52A     -0.009235    53A      0.009751    54A      0.011222
      55A      0.022517    56A      0.034926    57A      0.048607
      58A      0.055076    59A      0.062703    60A      0.081988
      61A      0.097307    62A      0.100943    63A      0.107117
      64A      0.109765    65A      0.125497    66A      0.135468
      67A      0.151119    68A      0.154280    69A      0.176690

  @DF-RHF Final Energy: -1810.67594197448761

   => Energetics <=

    Nuclear Repulsion Energy =           1427.9993716833298549
    One-Electron Energy =               -5431.1759334370362922
    Two-Electron Energy =                2192.5006197792190505
    Total Energy =                      -1810.6759419744876141
  Basis Set: (AUG-CC-PVTZ AUX)
    Blend: AUG-CC-PVTZ-RI
    Molecular point group: c1

    Geometry (in Angstrom), charge = -4, multiplicity = 1:

       Center              X                  Y                   Z               Mass
    ------------   -----------------  -----------------  -----------------  -----------------
         P           -2.573706359216    -0.221972326378     0.362552249176    30.973761998420
         P            0.303054640784    -0.573078326378    -0.367578750824    30.973761998420
         P            3.121554640784     0.411159673622     0.146821249176    30.973761998420
         O           -2.846250359216     1.354120673622    -0.123721750824    15.994914619570
         O           -0.970436359216    -0.060639326378     0.633610249176    15.994914619570
         O           -3.239087359216    -0.437601326378     1.706160249176    15.994914619570
         O           -2.904207359216    -1.146519326378    -0.787277750824    15.994914619570
         O            1.436401640784     0.107135673622     0.563639249176    15.994914619570
         O            0.159258640784     0.107917673622    -1.713551750824    15.994914619570
         O            0.349252640784    -2.086596326378    -0.296098750824    15.994914619570
         O            3.479328640784    -0.661094326378    -0.892206750824    15.994914619570
         O            3.111255440784     1.804667073622    -0.365698950824    15.994914619570
         O            3.780433640784     0.232904673622     1.522450249176    15.994914619570
         C           -4.193338359216     1.611927673622    -0.533908750824    12.000000000000
         H           -4.482664359216     0.953906673622    -1.358284750824     1.007825032230
         H           -4.892094359216     1.470074673622     0.297315249176     1.007825032230
         H           -4.237535359216     2.651004673622    -0.864585750824     1.007825032230

  Basis Set: AUG-CC-PVTZ
    Blend: AUG-CC-PVTZ
  Basis Set: (AUG-CC-PVTZ AUX)
    Blend: AUG-CC-PVTZ-JKFIT
	 Reference Energy          =   -1810.6759419744876141 [Eh]
	 Singles Energy            =      -0.0000000000000000 [Eh]
	 Same-Spin Energy          =      -0.9115155858462884 [Eh]
	 Opposite-Spin Energy      =      -2.5229438695186253 [Eh]
	 Correlation Energy        =      -3.4344594553649137 [Eh]
	 Total Energy              =   -1814.1104014298525726 [Eh]

	 ================> DF-SCS-MP2 Energies <==================
	-----------------------------------------------------------
	 SCS Same-Spin Scale       =       0.3333333333333333 [-]
	 SCS Opposite-Spin Scale   =       1.2000000000000000 [-]
	 SCS Same-Spin Energy      =      -0.3038385286154295 [Eh]
	 SCS Opposite-Spin Energy  =      -3.0275326434223504 [Eh]
	 SCS Correlation Energy    =      -3.3313711720377799 [Eh]
	 SCS Total Energy          =   -1814.0073131465253482 [Eh]
	-----------------------------------------------------------

  Dipole Moment: [D]
     X:   -14.9184      Y:     3.0871      Z:    -0.1081     Total:    15.2349

*** Psi4 exiting successfully. Buy a developer a beer!
