                               Psi4 1.3.2 release

  ==> Input File <==

--------------------------------------------------------------------------
#psi4
#
memory 32 gb

molecule  {
-4 1
  P        2.5828670     0.0826120    -0.3559070
  P       -0.1833470    -1.1435920     0.2927960
  P       -2.7088530     0.4754690    -0.2006980
  O        1.9534540     1.6068400    -0.1842610
  O        1.2509400    -0.8782220    -0.5450080
  O        3.2679280     0.0927970    -1.6978490
  O        3.3289310    -0.2934220     0.9022790
  O       -0.9881700     0.1612780    -0.2225170
  O        0.1115276    -1.0756087     1.8804406
  O       -0.7150640    -2.4305380    -0.3003910
  O       -3.2327710    -0.2685190     1.0414150
  O       -2.7128520     2.0086770    -0.0959300
  O       -3.2113930    -0.0752120    -1.5473660
  C        1.4216660     1.9681570     1.1052990
  H        1.0169430     1.1016800     1.6278780
  H        2.2027140     2.4392170     1.7103290
  H        0.6160650     2.6819120     0.9264900
units angstrom
no_reorient  #important for SAPT in psi4, default
symmetry c1  #important for SAPT in psi4, default
}

set PROPERTIES_ORIGIN ["COM"]
properties('MP2/aug-cc-pvtz', properties = ['dipole'])
--------------------------------------------------------------------------

    Molecular point group: c1
  Charge       = -4
  Multiplicity = 1
  Basis Set: AUG-CC-PVTZ
    Blend: AUG-CC-PVTZ
  Basis Set: (AUG-CC-PVTZ AUX)
    Blend: AUG-CC-PVTZ-JKFIT

    Orbital Energies [Eh]
    ---------------------

    Doubly Occupied:

       1A    -79.574472     2A    -79.543699     3A    -79.482445
       4A    -20.086419     5A    -20.045029     6A    -20.004303
       7A    -20.003263     8A    -20.000448     9A    -19.954177
      10A    -19.954075    11A    -19.925908    12A    -19.921762
      13A    -19.918978    14A    -10.810895    15A     -7.088310
      16A     -7.053992    17A     -6.995999    18A     -4.987250
      19A     -4.986340    20A     -4.985461    21A     -4.953428
      22A     -4.952011    23A     -4.950550    24A     -4.895494
      25A     -4.893235    26A     -4.893089    27A     -0.903332
      28A     -0.847604    29A     -0.808381    30A     -0.781435
      31A     -0.758570    32A     -0.738527    33A     -0.715851
      34A     -0.678561    35A     -0.665520    36A     -0.661078
      37A     -0.466557    38A     -0.298882    39A     -0.237689
      40A     -0.186591    41A     -0.164421    42A     -0.149391
      43A     -0.127523    44A     -0.100788    45A     -0.084974
      46A     -0.067212    47A     -0.052963    48A     -0.044135
      49A     -0.032331    50A     -0.018367    51A     -0.008025
      52A      0.000776    53A      0.008552    54A      0.014616
      55A      0.020972    56A      0.036720    57A      0.049426
      58A      0.053504    59A      0.067992    60A      0.075538
      61A      0.088164    62A      0.098886    63A      0.101018
      64A      0.103805    65A      0.117485    66A      0.126878
      67A      0.142316    68A      0.148022    69A      0.170097

  @DF-RHF Final Energy: -1810.67482236252681

   => Energetics <=

    Nuclear Repulsion Energy =           1458.0799657754193959
    One-Electron Energy =               -5491.4396353479014579
    Two-Electron Energy =                2222.6848472099550236
    Total Energy =                      -1810.6748223625268110
  Basis Set: (AUG-CC-PVTZ AUX)
    Blend: AUG-CC-PVTZ-RI
    Molecular point group: c1

    Geometry (in Angstrom), charge = -4, multiplicity = 1:

       Center              X                  Y                   Z               Mass
    ------------   -----------------  -----------------  -----------------  -----------------
         P            2.597089683406     0.107514055247    -0.345034831960    30.973761998420
         P           -0.169124316594    -1.118689944753     0.303668168040    30.973761998420
         P           -2.694630316594     0.500371055247    -0.189825831960    30.973761998420
         O            1.967676683406     1.631742055247    -0.173388831960    15.994914619570
         O            1.265162683406    -0.853319944753    -0.534135831960    15.994914619570
         O            3.282150683406     0.117699055247    -1.686976831960    15.994914619570
         O            3.343153683406    -0.268519944753     0.913151168040    15.994914619570
         O           -0.973947316594     0.186180055247    -0.211644831960    15.994914619570
         O            0.125750283406    -1.050706644753     1.891312768040    15.994914619570
         O           -0.700841316594    -2.405635944753    -0.289518831960    15.994914619570
         O           -3.218548316594    -0.243616944753     1.052287168040    15.994914619570
         O           -2.698629316594     2.033579055247    -0.085057831960    15.994914619570
         O           -3.197170316594    -0.050309944753    -1.536493831960    15.994914619570
         C            1.435888683406     1.993059055247     1.116171168040    12.000000000000
         H            1.031165683406     1.126582055247     1.638750168040     1.007825032230
         H            2.216936683406     2.464119055247     1.721201168040     1.007825032230
         H            0.630287683406     2.706814055247     0.937362168040     1.007825032230

  Basis Set: AUG-CC-PVTZ
    Blend: AUG-CC-PVTZ
  Basis Set: (AUG-CC-PVTZ AUX)
    Blend: AUG-CC-PVTZ-JKFIT
	 Reference Energy          =   -1810.6748223625268110 [Eh]
	 Singles Energy            =      -0.0000000000000000 [Eh]
	 Same-Spin Energy          =      -0.9148821236171032 [Eh]
	 Opposite-Spin Energy      =      -2.5306178886273138 [Eh]
	 Correlation Energy        =      -3.4455000122444170 [Eh]
	 Total Energy              =   -1814.1203223747711490 [Eh]

	 ================> DF-SCS-MP2 Energies <==================
	-----------------------------------------------------------
	 SCS Same-Spin Scale       =       0.3333333333333333 [-]
	 SCS Opposite-Spin Scale   =       1.2000000000000000 [-]
	 SCS Same-Spin Energy      =      -0.3049607078723677 [Eh]
	 SCS Opposite-Spin Energy  =      -3.0367414663527765 [Eh]
	 SCS Correlation Energy    =      -3.3417021742251443 [Eh]
	 SCS Total Energy          =   -1814.0165245367520583 [Eh]
	-----------------------------------------------------------

  Dipole Moment: [D]
     X:     9.1050      Y:     2.3773      Z:     1.0330     Total:     9.4668

*** Psi4 exiting successfully. Buy a developer a beer!
