                               Psi4 1.3.2 release

  ==> Input File <==

--------------------------------------------------------------------------
#psi4
#
memory 32 gb

molecule  {
-4 1
  P        2.5828670     0.0826120    -0.3559070
  P       -0.1833470    -1.1435920     0.2927960
  P       -2.7088530     0.4754690    -0.2006980
  O        1.9324831     1.5912663    -0.1326201
  O        1.2509400    -0.8782220    -0.5450080
  O        3.2817756     0.0426515    -1.6901298
  O        3.3289310    -0.2934220     0.9022790
  O       -0.9881700     0.1612780    -0.2225170
  O        0.0932830    -1.0798150     1.7822090
  O       -0.7150640    -2.4305380    -0.3003910
  O       -3.2327710    -0.2685190     1.0414150
  O       -2.7128520     2.0086770    -0.0959300
  O       -3.2113930    -0.0752120    -1.5473660
  C        1.4216660     1.9681570     1.1052990
  H        1.0169430     1.1016800     1.6278780
  H        2.2027140     2.4392170     1.7103290
  H        0.6160650     2.6819120     0.9264900
units angstrom
no_reorient  #important for SAPT in psi4, default
symmetry c1  #important for SAPT in psi4, default
}

set PROPERTIES_ORIGIN ["COM"]
properties('MP2/aug-cc-pvtz', properties = ['dipole'])
--------------------------------------------------------------------------

    Molecular point group: c1
  Charge       = -4
  Multiplicity = 1
  Basis Set: AUG-CC-PVTZ
    Blend: AUG-CC-PVTZ
  Basis Set: (AUG-CC-PVTZ AUX)
    Blend: AUG-CC-PVTZ-JKFIT

    Orbital Energies [Eh]
    ---------------------

    Doubly Occupied:

       1A    -79.574775     2A    -79.526131     3A    -79.479617
       4A    -20.085095     5A    -20.037105     6A    -20.007164
       7A    -20.000257     8A    -19.992572     9A    -19.949114
      10A    -19.944653    11A    -19.923718    12A    -19.919074
      13A    -19.917064    14A    -10.807880    15A     -7.088429
      16A     -7.039073    17A     -6.993121    18A     -4.987424
      19A     -4.986385    20A     -4.985646    21A     -4.938348
      22A     -4.936967    23A     -4.936032    24A     -4.892581
      25A     -4.890397    26A     -4.890248    27A     -0.913133
      28A     -0.848994    29A     -0.809356    30A     -0.778406
      31A     -0.757435    32A     -0.741515    33A     -0.713105
      34A     -0.698849    35A     -0.663243    36A     -0.658826
      37A     -0.467275    38A     -0.294732    39A     -0.239574
      40A     -0.187922    41A     -0.170539    42A     -0.158952
      43A     -0.126417    44A     -0.098775    45A     -0.084481
      46A     -0.064358    47A     -0.052210    48A     -0.040896
      49A     -0.030330    50A     -0.016251    51A     -0.005456
      52A      0.001277    53A      0.010566    54A      0.014679
      55A      0.022298    56A      0.035327    57A      0.047721
      58A      0.055146    59A      0.067488    60A      0.071200
      61A      0.091523    62A      0.100849    63A      0.102687
      64A      0.104203    65A      0.114646    66A      0.126065
      67A      0.144786    68A      0.150748    69A      0.172277

  @DF-RHF Final Energy: -1810.68915836979932

   => Energetics <=

    Nuclear Repulsion Energy =           1464.0994967566093692
    One-Electron Energy =               -5503.7444813706961213
    Two-Electron Energy =                2228.9558262442874366
    Total Energy =                      -1810.6891583697993156
  Basis Set: (AUG-CC-PVTZ AUX)
    Blend: AUG-CC-PVTZ-RI
    Molecular point group: c1

    Geometry (in Angstrom), charge = -4, multiplicity = 1:

       Center              X                  Y                   Z               Mass
    ------------   -----------------  -----------------  -----------------  -----------------
         P            2.598604303125     0.111689037850    -0.342713964233    30.973761998420
         P           -0.167609696875    -1.114514962150     0.305989035767    30.973761998420
         P           -2.693115696875     0.504546037850    -0.187504964233    30.973761998420
         O            1.948220403125     1.620343337850    -0.119427064233    15.994914619570
         O            1.266677303125    -0.849144962150    -0.531814964233    15.994914619570
         O            3.297512903125     0.071728537850    -1.676936764233    15.994914619570
         O            3.344668303125    -0.264344962150     0.915472035767    15.994914619570
         O           -0.972432696875     0.190355037850    -0.209323964233    15.994914619570
         O            0.109020303125    -1.050737962150     1.795402035767    15.994914619570
         O           -0.699326696875    -2.401460962150    -0.287197964233    15.994914619570
         O           -3.217033696875    -0.239441962150     1.054608035767    15.994914619570
         O           -2.697114696875     2.037754037850    -0.082736964233    15.994914619570
         O           -3.195655696875    -0.046134962150    -1.534172964233    15.994914619570
         C            1.437403303125     1.997234037850     1.118492035767    12.000000000000
         H            1.032680303125     1.130757037850     1.641071035767     1.007825032230
         H            2.218451303125     2.468294037850     1.723522035767     1.007825032230
         H            0.631802303125     2.710989037850     0.939683035767     1.007825032230

  Basis Set: AUG-CC-PVTZ
    Blend: AUG-CC-PVTZ
  Basis Set: (AUG-CC-PVTZ AUX)
    Blend: AUG-CC-PVTZ-JKFIT
	 Reference Energy          =   -1810.6891583697993156 [Eh]
	 Singles Energy            =      -0.0000000000000000 [Eh]
	 Same-Spin Energy          =      -0.9127300580129007 [Eh]
	 Opposite-Spin Energy      =      -2.5244350440809429 [Eh]
	 Correlation Energy        =      -3.4371651020938438 [Eh]
	 Total Energy              =   -1814.1263234718931017 [Eh]

	 ================> DF-SCS-MP2 Energies <==================
	-----------------------------------------------------------
	 SCS Same-Spin Scale       =       0.3333333333333333 [-]
	 SCS Opposite-Spin Scale   =       1.2000000000000000 [-]
	 SCS Same-Spin Energy      =      -0.3042433526709669 [Eh]
	 SCS Opposite-Spin Energy  =      -3.0293220528971312 [Eh]
	 SCS Correlation Energy    =      -3.3335654055680983 [Eh]
	 SCS Total Energy          =   -1814.0227237753674672 [Eh]
	-----------------------------------------------------------

  Dipole Moment: [D]
     X:     9.3086      Y:     2.4072      Z:     1.4188     Total:     9.7189

*** Psi4 exiting successfully. Buy a developer a beer!
