                               Psi4 1.3.2 release

  ==> Input File <==

--------------------------------------------------------------------------
#psi4
#
memory 32 gb

molecule  {
-4 1
  P        2.5828670     0.0826120    -0.3559070
  P       -0.1833470    -1.1435920     0.2927960
  P       -2.7088530     0.4754690    -0.2006980
  O        1.9534540     1.6068400    -0.1842610
  O        1.2509400    -0.8782220    -0.5450080
  O        3.2679280     0.0927970    -1.6978490
  O        3.3289310    -0.2934220     0.9022790
  O       -0.9837525     0.1949285    -0.2732733
  O        0.0932830    -1.0798150     1.7822090
  O       -0.7150640    -2.4305380    -0.3003910
  O       -3.2822801    -0.2511429     1.0297773
  O       -2.7128520     2.0086770    -0.0959300
  O       -3.2113930    -0.0752120    -1.5473660
  C        1.4216660     1.9681570     1.1052990
  H        1.0169430     1.1016800     1.6278780
  H        2.2027140     2.4392170     1.7103290
  H        0.6160650     2.6819120     0.9264900
units angstrom
no_reorient  #important for SAPT in psi4, default
symmetry c1  #important for SAPT in psi4, default
}

set PROPERTIES_ORIGIN ["COM"]
properties('MP2/aug-cc-pvtz', properties = ['dipole'])
--------------------------------------------------------------------------

    Molecular point group: c1
  Charge       = -4
  Multiplicity = 1
  Basis Set: AUG-CC-PVTZ
    Blend: AUG-CC-PVTZ
  Basis Set: (AUG-CC-PVTZ AUX)
    Blend: AUG-CC-PVTZ-JKFIT

    Orbital Energies [Eh]
    ---------------------

    Doubly Occupied:

       1A    -79.573748     2A    -79.533793     3A    -79.476889
       4A    -20.086297     5A    -20.040445     6A    -20.004100
       7A    -20.003424     8A    -19.996688     9A    -19.957248
      10A    -19.950240    11A    -19.919349    12A    -19.918944
      13A    -19.914530    14A    -10.812490    15A     -7.087570
      16A     -7.046154    17A     -6.990555    18A     -4.986516
      19A     -4.985582    20A     -4.984753    21A     -4.945478
      22A     -4.943868    23A     -4.943132    24A     -4.889919
      25A     -4.887866    26A     -4.887717    27A     -0.902784
      28A     -0.845690    29A     -0.804469    30A     -0.776743
      31A     -0.758715    32A     -0.744908    33A     -0.711830
      34A     -0.704576    35A     -0.660607    36A     -0.656610
      37A     -0.467554    38A     -0.294864    39A     -0.233252
      40A     -0.181133    41A     -0.163178    42A     -0.149075
      43A     -0.127841    44A     -0.101200    45A     -0.084014
      46A     -0.065178    47A     -0.052028    48A     -0.044376
      49A     -0.030799    50A     -0.015953    51A     -0.007200
      52A     -0.000116    53A      0.008969    54A      0.013899
      55A      0.021006    56A      0.037073    57A      0.046870
      58A      0.052222    59A      0.064178    60A      0.068988
      61A      0.088377    62A      0.099227    63A      0.105023
      64A      0.105754    65A      0.111347    66A      0.121180
      67A      0.145975    68A      0.153165    69A      0.174772

  @DF-RHF Final Energy: -1810.68446332474127

   => Energetics <=

    Nuclear Repulsion Energy =           1460.7106221169126457
    One-Electron Energy =               -5496.9222538442627410
    Two-Electron Energy =                2225.5271684026088224
    Total Energy =                      -1810.6844633247415004
  Basis Set: (AUG-CC-PVTZ AUX)
    Blend: AUG-CC-PVTZ-RI
    Molecular point group: c1

    Geometry (in Angstrom), charge = -4, multiplicity = 1:

       Center              X                  Y                   Z               Mass
    ------------   -----------------  -----------------  -----------------  -----------------
         P            2.600871244254     0.104718595252    -0.335444495308    30.973761998420
         P           -0.165342755746    -1.121485404748     0.313258504692    30.973761998420
         P           -2.690848755746     0.497575595252    -0.180235495308    30.973761998420
         O            1.971458244254     1.628946595252    -0.163798495308    15.994914619570
         O            1.268944244254    -0.856115404748    -0.524545495308    15.994914619570
         O            3.285932244254     0.114903595252    -1.677386495308    15.994914619570
         O            3.346935244254    -0.271315404748     0.922741504692    15.994914619570
         O           -0.965748255746     0.217035095252    -0.252810795308    15.994914619570
         O            0.111287244254    -1.057708404748     1.802671504692    15.994914619570
         O           -0.697059755746    -2.408431404748    -0.279928495308    15.994914619570
         O           -3.264275855746    -0.229036304748     1.050239804692    15.994914619570
         O           -2.694847755746     2.030783595252    -0.075467495308    15.994914619570
         O           -3.193388755746    -0.053105404748    -1.526903495308    15.994914619570
         C            1.439670244254     1.990263595252     1.125761504692    12.000000000000
         H            1.034947244254     1.123786595252     1.648340504692     1.007825032230
         H            2.220718244254     2.461323595252     1.730791504692     1.007825032230
         H            0.634069244254     2.704018595252     0.946952504692     1.007825032230

  Basis Set: AUG-CC-PVTZ
    Blend: AUG-CC-PVTZ
  Basis Set: (AUG-CC-PVTZ AUX)
    Blend: AUG-CC-PVTZ-JKFIT
	 Reference Energy          =   -1810.6844633247412730 [Eh]
	 Singles Energy            =      -0.0000000000000000 [Eh]
	 Same-Spin Energy          =      -0.9136247043038538 [Eh]
	 Opposite-Spin Energy      =      -2.5274860280611819 [Eh]
	 Correlation Energy        =      -3.4411107323650358 [Eh]
	 Total Energy              =   -1814.1255740571064052 [Eh]

	 ================> DF-SCS-MP2 Energies <==================
	-----------------------------------------------------------
	 SCS Same-Spin Scale       =       0.3333333333333333 [-]
	 SCS Opposite-Spin Scale   =       1.2000000000000000 [-]
	 SCS Same-Spin Energy      =      -0.3045415681012846 [Eh]
	 SCS Opposite-Spin Energy  =      -3.0329832336734182 [Eh]
	 SCS Correlation Energy    =      -3.3375248017747028 [Eh]
	 SCS Total Energy          =   -1814.0219881265159074 [Eh]
	-----------------------------------------------------------

  Dipole Moment: [D]
     X:     9.5916      Y:     2.0913      Z:     1.7670     Total:     9.9747

*** Psi4 exiting successfully. Buy a developer a beer!
