                               Psi4 1.3.2 release

  ==> Input File <==

--------------------------------------------------------------------------
#psi4
#
memory 32 gb

molecule  {
-4 1
  P        2.5828670     0.0826120    -0.3559070
  P       -0.1833470    -1.1435920     0.2927960
  P       -2.7088530     0.4754690    -0.2006980
  O        1.9534540     1.6068400    -0.1842610
  O        1.2509400    -0.8782220    -0.5450080
  O        3.2679280     0.0927970    -1.6978490
  O        3.3289310    -0.2934220     0.9022790
  O       -0.9881700     0.1612780    -0.2225170
  O        0.0972490    -1.0672624     1.7808761
  O       -0.7152267    -2.4248984    -0.3123335
  O       -3.2327710    -0.2685190     1.0414150
  O       -2.7128520     2.0086770    -0.0959300
  O       -3.2113930    -0.0752120    -1.5473660
  C        1.4216660     1.9681570     1.1052990
  H        1.0169430     1.1016800     1.6278780
  H        2.2027140     2.4392170     1.7103290
  H        0.6160650     2.6819120     0.9264900
units angstrom
no_reorient  #important for SAPT in psi4, default
symmetry c1  #important for SAPT in psi4, default
}

set PROPERTIES_ORIGIN ["COM"]
properties('MP2/aug-cc-pvtz', properties = ['dipole'])
--------------------------------------------------------------------------

    Molecular point group: c1
  Charge       = -4
  Multiplicity = 1
  Basis Set: AUG-CC-PVTZ
    Blend: AUG-CC-PVTZ
  Basis Set: (AUG-CC-PVTZ AUX)
    Blend: AUG-CC-PVTZ-JKFIT

    Orbital Energies [Eh]
    ---------------------

    Doubly Occupied:

       1A    -79.572147     2A    -79.527064     3A    -79.479570
       4A    -20.085222     5A    -20.037621     6A    -20.002534
       7A    -20.002226     8A    -19.992028     9A    -19.951000
      10A    -19.946103    11A    -19.923633    12A    -19.918912
      13A    -19.917296    14A    -10.811156    15A     -7.085970
      16A     -7.039996    17A     -6.993069    18A     -4.984920
      19A     -4.983973    20A     -4.983160    21A     -4.939281
      22A     -4.937916    23A     -4.936930    24A     -4.892526
      25A     -4.890348    26A     -4.890199    27A     -0.901505
      28A     -0.845348    29A     -0.806307    30A     -0.777582
      31A     -0.757305    32A     -0.742001    33A     -0.713111
      34A     -0.700911    35A     -0.663198    36A     -0.658876
      37A     -0.466338    38A     -0.293360    39A     -0.234119
      40A     -0.183630    41A     -0.163584    42A     -0.148347
      43A     -0.125795    44A     -0.098878    45A     -0.082549
      46A     -0.064780    47A     -0.051786    48A     -0.043750
      49A     -0.031756    50A     -0.015824    51A     -0.006281
      52A      0.000309    53A      0.009881    54A      0.014934
      55A      0.021879    56A      0.037660    57A      0.047377
      58A      0.053801    59A      0.067104    60A      0.070938
      61A      0.091168    62A      0.100472    63A      0.102602
      64A      0.104117    65A      0.113395    66A      0.124358
      67A      0.144730    68A      0.150752    69A      0.172261

  @DF-RHF Final Energy: -1810.68885064379265

   => Energetics <=

    Nuclear Repulsion Energy =           1463.1933887911864076
    One-Electron Energy =               -5502.0165099828582242
    Two-Electron Energy =                2228.1342705478791686
    Total Energy =                      -1810.6888506437926480
  Basis Set: (AUG-CC-PVTZ AUX)
    Blend: AUG-CC-PVTZ-RI
    Molecular point group: c1

    Geometry (in Angstrom), charge = -4, multiplicity = 1:

       Center              X                  Y                   Z               Mass
    ------------   -----------------  -----------------  -----------------  -----------------
         P            2.597951917873     0.106679010962    -0.338377177956    30.973761998420
         P           -0.168262082127    -1.119524989038     0.310325822044    30.973761998420
         P           -2.693768082127     0.499536010962    -0.183168177956    30.973761998420
         O            1.968538917873     1.630907010962    -0.166731177956    15.994914619570
         O            1.266024917873    -0.854154989038    -0.527478177956    15.994914619570
         O            3.283012917873     0.116864010962    -1.680319177956    15.994914619570
         O            3.344015917873    -0.269354989038     0.919808822044    15.994914619570
         O           -0.973085082127     0.185345010962    -0.204987177956    15.994914619570
         O            0.112333917873    -1.043195389038     1.798405922044    15.994914619570
         O           -0.700141782127    -2.400831389038    -0.294803677956    15.994914619570
         O           -3.217686082127    -0.244451989038     1.058944822044    15.994914619570
         O           -2.697767082127     2.032744010962    -0.078400177956    15.994914619570
         O           -3.196308082127    -0.051144989038    -1.529836177956    15.994914619570
         C            1.436750917873     1.992224010962     1.122828822044    12.000000000000
         H            1.032027917873     1.125747010962     1.645407822044     1.007825032230
         H            2.217798917873     2.463284010962     1.727858822044     1.007825032230
         H            0.631149917873     2.705979010962     0.944019822044     1.007825032230

  Basis Set: AUG-CC-PVTZ
    Blend: AUG-CC-PVTZ
  Basis Set: (AUG-CC-PVTZ AUX)
    Blend: AUG-CC-PVTZ-JKFIT
	 Reference Energy          =   -1810.6888506437926480 [Eh]
	 Singles Energy            =      -0.0000000000000000 [Eh]
	 Same-Spin Energy          =      -0.9130560142576155 [Eh]
	 Opposite-Spin Energy      =      -2.5258405474414585 [Eh]
	 Correlation Energy        =      -3.4388965616990741 [Eh]
	 Total Energy              =   -1814.1277472054916871 [Eh]

	 ================> DF-SCS-MP2 Energies <==================
	-----------------------------------------------------------
	 SCS Same-Spin Scale       =       0.3333333333333333 [-]
	 SCS Opposite-Spin Scale   =       1.2000000000000000 [-]
	 SCS Same-Spin Energy      =      -0.3043520047525385 [Eh]
	 SCS Opposite-Spin Energy  =      -3.0310086569297501 [Eh]
	 SCS Correlation Energy    =      -3.3353606616822886 [Eh]
	 SCS Total Energy          =   -1814.0242113054748643 [Eh]
	-----------------------------------------------------------

  Dipole Moment: [D]
     X:     9.2472      Y:     2.2830      Z:     1.6397     Total:     9.6650

*** Psi4 exiting successfully. Buy a developer a beer!
