                               Psi4 1.3.2 release

  ==> Input File <==

--------------------------------------------------------------------------
#psi4
#
memory 32 gb

molecule  {
-4 1
  P        2.5828670     0.0826120    -0.3559070
  P       -0.1833470    -1.1435920     0.2927960
  P       -2.7088530     0.4754690    -0.2006980
  O        1.9658869     1.6550115    -0.1916501
  O        1.2509400    -0.8782220    -0.5450080
  O        3.2679280     0.0927970    -1.6978490
  O        3.3289310    -0.2934220     0.9022790
  O       -0.9881700     0.1612780    -0.2225170
  O        0.0932830    -1.0798150     1.7822090
  O       -0.7150640    -2.4305380    -0.3003910
  O       -3.2327710    -0.2685190     1.0414150
  O       -2.7128520     2.0086770    -0.0959300
  O       -3.2113930    -0.0752120    -1.5473660
  C        1.4216660     1.9681570     1.1052990
  H        1.0076708     1.1243835     1.6569567
  H        2.2027140     2.4392170     1.7103290
  H        0.6160650     2.6819120     0.9264900
units angstrom
no_reorient  #important for SAPT in psi4, default
symmetry c1  #important for SAPT in psi4, default
}

set PROPERTIES_ORIGIN ["COM"]
properties('MP2/aug-cc-pvtz', properties = ['dipole'])
--------------------------------------------------------------------------

    Molecular point group: c1
  Charge       = -4
  Multiplicity = 1
  Basis Set: AUG-CC-PVTZ
    Blend: AUG-CC-PVTZ
  Basis Set: (AUG-CC-PVTZ AUX)
    Blend: AUG-CC-PVTZ-JKFIT

    Orbital Energies [Eh]
    ---------------------

    Doubly Occupied:

       1A    -79.576850     2A    -79.528097     3A    -79.480075
       4A    -20.086855     5A    -20.042327     6A    -20.005912
       7A    -20.004229     8A    -19.993606     9A    -19.950832
      10A    -19.946414    11A    -19.923891    12A    -19.919426
      13A    -19.917617    14A    -10.808944    15A     -7.090176
      16A     -7.041049    17A     -6.993583    18A     -4.989020
      19A     -4.988198    20A     -4.987327    21A     -4.940346
      22A     -4.938920    23A     -4.937990    24A     -4.893049
      25A     -4.890852    26A     -4.890707    27A     -0.895550
      28A     -0.846571    29A     -0.807958    30A     -0.779614
      31A     -0.759584    32A     -0.743028    33A     -0.714009
      34A     -0.700553    35A     -0.663520    36A     -0.659292
      37A     -0.461624    38A     -0.295294    39A     -0.233021
      40A     -0.182811    41A     -0.160376    42A     -0.142764
      43A     -0.127329    44A     -0.099470    45A     -0.083625
      46A     -0.066182    47A     -0.051917    48A     -0.047166
      49A     -0.031890    50A     -0.017060    51A     -0.006102
      52A     -0.000142    53A      0.010818    54A      0.013795
      55A      0.021328    56A      0.036704    57A      0.046700
      58A      0.051233    59A      0.065128    60A      0.069581
      61A      0.090013    62A      0.100174    63A      0.102000
      64A      0.103591    65A      0.113056    66A      0.124484
      67A      0.144346    68A      0.150200    69A      0.171910

  @DF-RHF Final Energy: -1810.68580524220692

   => Energetics <=

    Nuclear Repulsion Energy =           1460.7521342136992644
    One-Electron Energy =               -5497.0205131660504776
    Two-Electron Energy =                2225.5825737101440609
    Total Energy =                      -1810.6858052422071523
  Basis Set: (AUG-CC-PVTZ AUX)
    Blend: AUG-CC-PVTZ-RI
    Molecular point group: c1

    Geometry (in Angstrom), charge = -4, multiplicity = 1:

       Center              X                  Y                   Z               Mass
    ------------   -----------------  -----------------  -----------------  -----------------
         P            2.597471559954     0.104803651031    -0.338838021239    30.973761998420
         P           -0.168742440046    -1.121400348969     0.309864978761    30.973761998420
         P           -2.694248440046     0.497660651031    -0.183629021239    30.973761998420
         O            1.980491459954     1.677203151031    -0.174581121239    15.994914619570
         O            1.265544559954    -0.856030348969    -0.527939021239    15.994914619570
         O            3.282532559954     0.114988651031    -1.680780021239    15.994914619570
         O            3.343535559954    -0.271230348969     0.919347978761    15.994914619570
         O           -0.973565440046     0.183469651031    -0.205448021239    15.994914619570
         O            0.107887559954    -1.057623348969     1.799277978761    15.994914619570
         O           -0.700459440046    -2.408346348969    -0.283322021239    15.994914619570
         O           -3.218166440046    -0.246327348969     1.058483978761    15.994914619570
         O           -2.698247440046     2.030868651031    -0.078861021239    15.994914619570
         O           -3.196788440046    -0.053020348969    -1.530297021239    15.994914619570
         C            1.436270559954     1.990348651031     1.122367978761    12.000000000000
         H            1.022275359954     1.146575151031     1.674025678761     1.007825032230
         H            2.217318559954     2.461408651031     1.727397978761     1.007825032230
         H            0.630669559954     2.704103651031     0.943558978761     1.007825032230

  Basis Set: AUG-CC-PVTZ
    Blend: AUG-CC-PVTZ
  Basis Set: (AUG-CC-PVTZ AUX)
    Blend: AUG-CC-PVTZ-JKFIT
	 Reference Energy          =   -1810.6858052422069250 [Eh]
	 Singles Energy            =      -0.0000000000000000 [Eh]
	 Same-Spin Energy          =      -0.9134467808354099 [Eh]
	 Opposite-Spin Energy      =      -2.5271280227406829 [Eh]
	 Correlation Energy        =      -3.4405748035760926 [Eh]
	 Total Energy              =   -1814.1263800457829802 [Eh]

	 ================> DF-SCS-MP2 Energies <==================
	-----------------------------------------------------------
	 SCS Same-Spin Scale       =       0.3333333333333333 [-]
	 SCS Opposite-Spin Scale   =       1.2000000000000000 [-]
	 SCS Same-Spin Energy      =      -0.3044822602784699 [Eh]
	 SCS Opposite-Spin Energy  =      -3.0325536272888196 [Eh]
	 SCS Correlation Energy    =      -3.3370358875672896 [Eh]
	 SCS Total Energy          =   -1814.0228411297741786 [Eh]
	-----------------------------------------------------------

  Dipole Moment: [D]
     X:     9.2722      Y:     2.1362      Z:     1.5791     Total:     9.6452

*** Psi4 exiting successfully. Buy a developer a beer!
