                               Psi4 1.4a3.dev225

  ==> Input File <==

--------------------------------------------------------------------------
#psi4
#
memory 32 gb

molecule  {
-4 1
  P       -2.5202440    -0.2449420     0.3712220
  P        0.3565170    -0.5960480    -0.3589090
  P        3.1750170     0.3881900     0.1554910
  O       -2.7927880     1.3311510    -0.1150520
  O       -0.9169740    -0.0836090     0.6422800
  O       -3.1856250    -0.4605710     1.7148300
  O       -2.8507450    -1.1694890    -0.7786080
  O        1.4898640     0.0841660     0.5723090
  O        0.2146189     0.0759596    -1.6871167
  O        0.4027150    -2.1095660    -0.2874290
  O        3.5327910    -0.6840640    -0.8835370
  O        3.1643710     1.8286230    -0.3742880
  O        3.8338960     0.2099350     1.5311200
  C       -4.1398760     1.5889580    -0.5252390
  H       -4.4292020     0.9309370    -1.3496150
  H       -4.8386320     1.4471050     0.3059850
  H       -4.1840730     2.6280350    -0.8559160
units angstrom
no_reorient  #important for SAPT in psi4, default
symmetry c1  #important for SAPT in psi4, default
}

set PROPERTIES_ORIGIN ["COM"]
properties('MP2/aug-cc-pvtz', properties = ['dipole'])
--------------------------------------------------------------------------

    Molecular point group: c1
  Charge       = -4
  Multiplicity = 1
  Basis Set: AUG-CC-PVTZ
    Blend: AUG-CC-PVTZ
  Basis Set: (AUG-CC-PVTZ AUX)
    Blend: AUG-CC-PVTZ-JKFIT

    Orbital Energies [Eh]
    ---------------------

    Doubly Occupied:

       1A    -79.580296     2A    -79.513327     3A    -79.475022
       4A    -20.119056     5A    -20.040475     6A    -20.014683
       7A    -20.004796     8A    -19.982709     9A    -19.935104
      10A    -19.934420    11A    -19.921561    12A    -19.916875
      13A    -19.912922    14A    -10.883398    15A     -7.094573
      16A     -7.027164    17A     -6.988771    18A     -4.993722
      19A     -4.992403    20A     -4.991508    21A     -4.926492
      22A     -4.924966    23A     -4.923909    24A     -4.888158
      25A     -4.886065    26A     -4.885939    27A     -0.931159
      28A     -0.853109    29A     -0.807009    30A     -0.777067
      31A     -0.760973    32A     -0.738372    33A     -0.706790
      34A     -0.689321    35A     -0.661658    36A     -0.657022
      37A     -0.528190    38A     -0.307927    39A     -0.251548
      40A     -0.220711    41A     -0.196025    42A     -0.164831
      43A     -0.139463    44A     -0.107649    45A     -0.093967
      46A     -0.079109    47A     -0.062842    48A     -0.051412
      49A     -0.034962    50A     -0.025333    51A     -0.012189
      52A     -0.009859    53A      0.009784    54A      0.011330
      55A      0.022854    56A      0.034501    57A      0.048150
      58A      0.054587    59A      0.062041    60A      0.080221
      61A      0.096708    62A      0.103525    63A      0.107548
      64A      0.108258    65A      0.124216    66A      0.134881
      67A      0.148345    68A      0.154786    69A      0.174789

  @DF-RHF Final Energy: -1810.67680469422066

   => Energetics <=

    Nuclear Repulsion Energy =           1426.6549968636409176
    One-Electron Energy =               -5428.3630341482785298
    Two-Electron Energy =                2191.0312325904169484
    Total Energy =                      -1810.6768046942206638
  Basis Set: (AUG-CC-PVTZ AUX)
    Blend: AUG-CC-PVTZ-RI
    Molecular point group: c1

    Geometry (in Angstrom), charge = -4, multiplicity = 1:

       Center              X                  Y                   Z               Mass
    ------------   -----------------  -----------------  -----------------  -----------------
         P           -2.573798969430    -0.224237410647     0.362522008009    30.973761998420
         P            0.302962030570    -0.575343410647    -0.367608991991    30.973761998420
         P            3.121462030570     0.408894589353     0.146791008009    30.973761998420
         O           -2.846342969430     1.351855589353    -0.123751991991    15.994914619570
         O           -0.970528969430    -0.062904410647     0.633580008009    15.994914619570
         O           -3.239179969430    -0.439866410647     1.706130008009    15.994914619570
         O           -2.904299969430    -1.148784410647    -0.787307991991    15.994914619570
         O            1.436309030570     0.104870589353     0.563609008009    15.994914619570
         O            0.161063930570     0.096664189353    -1.695816691991    15.994914619570
         O            0.349160030570    -2.088861410647    -0.296128991991    15.994914619570
         O            3.479236030570    -0.663359410647    -0.892236991991    15.994914619570
         O            3.110816030570     1.849327589353    -0.382987991991    15.994914619570
         O            3.780341030570     0.230639589353     1.522420008009    15.994914619570
         C           -4.193430969430     1.609662589353    -0.533938991991    12.000000000000
         H           -4.482756969430     0.951641589353    -1.358314991991     1.007825032230
         H           -4.892186969430     1.467809589353     0.297285008009     1.007825032230
         H           -4.237627969430     2.648739589353    -0.864615991991     1.007825032230

  Basis Set: AUG-CC-PVTZ
    Blend: AUG-CC-PVTZ
  Basis Set: (AUG-CC-PVTZ AUX)
    Blend: AUG-CC-PVTZ-JKFIT
	 Reference Energy          =   -1810.6768046942206638 [Eh]
	 Singles Energy            =      -0.0000000000000000 [Eh]
	 Same-Spin Energy          =      -0.9119991993439199 [Eh]
	 Opposite-Spin Energy      =      -2.5242610615781120 [Eh]
	 Correlation Energy        =      -3.4362602609220319 [Eh]
	 Total Energy              =   -1814.1130649551425904 [Eh]

	 ================> DF-SCS-MP2 Energies <==================
	-----------------------------------------------------------
	 SCS Same-Spin Scale       =       0.3333333333333333 [-]
	 SCS Opposite-Spin Scale   =       1.2000000000000000 [-]
	 SCS Same-Spin Energy      =      -0.3039997331146400 [Eh]
	 SCS Opposite-Spin Energy  =      -3.0291132738937345 [Eh]
	 SCS Correlation Energy    =      -3.3331130070083743 [Eh]
	 SCS Total Energy          =   -1814.0099177012291420 [Eh]
	-----------------------------------------------------------

  Dipole Moment: [D]
     X:   -14.9984      Y:     2.7587      Z:    -0.0953     Total:    15.2503

*** Psi4 exiting successfully. Buy a developer a beer!
