                               Psi4 1.3.2 release

  ==> Input File <==

--------------------------------------------------------------------------
#psi4
#
memory 32 gb

molecule  {
-4 1
  P        2.5828670     0.0826120    -0.3559070
  P       -0.1833470    -1.1435920     0.2927960
  P       -2.7088530     0.4754690    -0.2006980
  O        1.9534540     1.6068400    -0.1842610
  O        1.2509400    -0.8782220    -0.5450080
  O        3.2679280     0.0927970    -1.6978490
  O        3.3289310    -0.2934220     0.9022790
  O       -0.9881700     0.1612780    -0.2225170
  O        0.0852882    -1.1049338     1.7845344
  O       -0.7146171    -2.4415228    -0.2763714
  O       -3.2327710    -0.2685190     1.0414150
  O       -2.7128520     2.0086770    -0.0959300
  O       -3.2113930    -0.0752120    -1.5473660
  C        1.4216660     1.9681570     1.1052990
  H        1.0169430     1.1016800     1.6278780
  H        2.2027140     2.4392170     1.7103290
  H        0.6160650     2.6819120     0.9264900
units angstrom
no_reorient  #important for SAPT in psi4, default
symmetry c1  #important for SAPT in psi4, default
}

set PROPERTIES_ORIGIN ["COM"]
properties('MP2/aug-cc-pvtz', properties = ['dipole'])
--------------------------------------------------------------------------

    Molecular point group: c1
  Charge       = -4
  Multiplicity = 1
  Basis Set: AUG-CC-PVTZ
    Blend: AUG-CC-PVTZ
  Basis Set: (AUG-CC-PVTZ AUX)
    Blend: AUG-CC-PVTZ-JKFIT

    Orbital Energies [Eh]
    ---------------------

    Doubly Occupied:

       1A    -79.573357     2A    -79.526616     3A    -79.480400
       4A    -20.086491     5A    -20.039635     6A    -20.003437
       7A    -20.003178     8A    -19.994807     9A    -19.948253
      10A    -19.943482    11A    -19.924452    12A    -19.919754
      13A    -19.917513    14A    -10.812763    15A     -7.087177
      16A     -7.039560    17A     -6.993917    18A     -4.986128
      19A     -4.985185    20A     -4.984356    21A     -4.938822
      22A     -4.937382    23A     -4.936569    24A     -4.893388
      25A     -4.891183    26A     -4.891032    27A     -0.902761
      28A     -0.846271    29A     -0.807315    30A     -0.778906
      31A     -0.758213    32A     -0.742131    33A     -0.714329
      34A     -0.696908    35A     -0.663920    36A     -0.659378
      37A     -0.467752    38A     -0.294738    39A     -0.235605
      40A     -0.184911    41A     -0.164811    42A     -0.149645
      43A     -0.126351    44A     -0.099014    45A     -0.083402
      46A     -0.065485    47A     -0.052191    48A     -0.044660
      49A     -0.032084    50A     -0.016812    51A     -0.007432
      52A     -0.000118    53A      0.009359    54A      0.014475
      55A      0.021083    56A      0.036868    57A      0.047483
      58A      0.052941    59A      0.066752    60A      0.070989
      61A      0.090860    62A      0.100494    63A      0.101864
      64A      0.103544    65A      0.115160    66A      0.127360
      67A      0.144129    68A      0.150039    69A      0.171694

  @DF-RHF Final Energy: -1810.68890145409569

   => Energetics <=

    Nuclear Repulsion Energy =           1462.3935780937554227
    One-Electron Energy =               -5500.3471927551909175
    Two-Electron Energy =                2227.2647132073398097
    Total Energy =                      -1810.6889014540956850
  Basis Set: (AUG-CC-PVTZ AUX)
    Blend: AUG-CC-PVTZ-RI
    Molecular point group: c1

    Geometry (in Angstrom), charge = -4, multiplicity = 1:

       Center              X                  Y                   Z               Mass
    ------------   -----------------  -----------------  -----------------  -----------------
         P            2.598629654357     0.109920804305    -0.340742759621    30.973761998420
         P           -0.167584345643    -1.116283195695     0.307960240379    30.973761998420
         P           -2.693090345643     0.502777804305    -0.185533759621    30.973761998420
         O            1.969216654357     1.634148804305    -0.169096759621    15.994914619570
         O            1.266702654357    -0.850913195695    -0.529843759621    15.994914619570
         O            3.283690654357     0.120105804305    -1.682684759621    15.994914619570
         O            3.344693654357    -0.266113195695     0.917443240379    15.994914619570
         O           -0.972407345643     0.188586804305    -0.207352759621    15.994914619570
         O            0.101050854357    -1.077624995695     1.799698640379    15.994914619570
         O           -0.698854445643    -2.414213995695    -0.261207159621    15.994914619570
         O           -3.217008345643    -0.241210195695     1.056579240379    15.994914619570
         O           -2.697089345643     2.035985804305    -0.080765759621    15.994914619570
         O           -3.195630345643    -0.047903195695    -1.532201759621    15.994914619570
         C            1.437428654357     1.995465804305     1.120463240379    12.000000000000
         H            1.032705654357     1.128988804305     1.643042240379     1.007825032230
         H            2.218476654357     2.466525804305     1.725493240379     1.007825032230
         H            0.631827654357     2.709220804305     0.941654240379     1.007825032230

  Basis Set: AUG-CC-PVTZ
    Blend: AUG-CC-PVTZ
  Basis Set: (AUG-CC-PVTZ AUX)
    Blend: AUG-CC-PVTZ-JKFIT
	 Reference Energy          =   -1810.6889014540956850 [Eh]
	 Singles Energy            =      -0.0000000000000000 [Eh]
	 Same-Spin Energy          =      -0.9129310481387480 [Eh]
	 Opposite-Spin Energy      =      -2.5256524189906711 [Eh]
	 Correlation Energy        =      -3.4385834671294191 [Eh]
	 Total Energy              =   -1814.1274849212250047 [Eh]

	 ================> DF-SCS-MP2 Energies <==================
	-----------------------------------------------------------
	 SCS Same-Spin Scale       =       0.3333333333333333 [-]
	 SCS Opposite-Spin Scale   =       1.2000000000000000 [-]
	 SCS Same-Spin Energy      =      -0.3043103493795827 [Eh]
	 SCS Opposite-Spin Energy  =      -3.0307829027888054 [Eh]
	 SCS Correlation Energy    =      -3.3350932521683880 [Eh]
	 SCS Total Energy          =   -1814.0239947062641477 [Eh]
	-----------------------------------------------------------

  Dipole Moment: [D]
     X:     9.2747      Y:     2.4483      Z:     1.5467     Total:     9.7163

*** Psi4 exiting successfully. Buy a developer a beer!
