                               Psi4 1.4a3.dev225

  ==> Input File <==

--------------------------------------------------------------------------
#psi4
#
memory 32 gb

molecule  {
-4 1
  P       -2.5202440    -0.2449420     0.3712220
  P        0.3565170    -0.5960480    -0.3589090
  P        3.1750170     0.3881900     0.1554910
  O       -2.7927880     1.3311510    -0.1150520
  O       -0.9169740    -0.0836090     0.6422800
  O       -3.1856250    -0.4605710     1.7148300
  O       -2.8507450    -1.1694890    -0.7786080
  O        1.4898640     0.0841660     0.5723090
  O        0.2127210     0.0849480    -1.7048820
  O        0.4027150    -2.1095660    -0.2874290
  O        3.5327910    -0.6840640    -0.8835370
  O        3.1640242     1.8755486    -0.3915468
  O        3.8338960     0.2099350     1.5311200
  C       -4.1398760     1.5889580    -0.5252390
  H       -4.4292020     0.9309370    -1.3496150
  H       -4.8386320     1.4471050     0.3059850
  H       -4.1840730     2.6280350    -0.8559160
units angstrom
no_reorient  #important for SAPT in psi4, default
symmetry c1  #important for SAPT in psi4, default
}

set PROPERTIES_ORIGIN ["COM"]
properties('MP2/aug-cc-pvtz', properties = ['dipole'])
--------------------------------------------------------------------------

    Molecular point group: c1
  Charge       = -4
  Multiplicity = 1
  Basis Set: AUG-CC-PVTZ
    Blend: AUG-CC-PVTZ
  Basis Set: (AUG-CC-PVTZ AUX)
    Blend: AUG-CC-PVTZ-JKFIT

    Orbital Energies [Eh]
    ---------------------

    Doubly Occupied:

       1A    -79.581354     2A    -79.518834     3A    -79.484548
       4A    -20.119442     5A    -20.042788     6A    -20.015566
       7A    -20.005552     8A    -19.987850     9A    -19.938428
      10A    -19.936203    11A    -19.926547    12A    -19.919981
      13A    -19.917956    14A    -10.883622    15A     -7.095625
      16A     -7.031900    17A     -6.996881    18A     -4.994770
      19A     -4.993465    20A     -4.992553    21A     -4.931293
      22A     -4.929738    23A     -4.928565    24A     -4.896367
      25A     -4.894276    26A     -4.893822    27A     -0.931690
      28A     -0.854498    29A     -0.808017    30A     -0.778250
      31A     -0.761779    32A     -0.735705    33A     -0.706617
      34A     -0.688169    35A     -0.664232    36A     -0.648689
      37A     -0.528456    38A     -0.309395    39A     -0.253245
      40A     -0.220972    41A     -0.197506    42A     -0.166390
      43A     -0.141596    44A     -0.109091    45A     -0.095618
      46A     -0.079900    47A     -0.063981    48A     -0.052913
      49A     -0.035915    50A     -0.025900    51A     -0.013303
      52A     -0.010646    53A      0.009028    54A      0.012049
      55A      0.022652    56A      0.033684    57A      0.047512
      58A      0.054472    59A      0.061469    60A      0.080233
      61A      0.096847    62A      0.103498    63A      0.107374
      64A      0.108818    65A      0.124233    66A      0.135110
      67A      0.144780    68A      0.155285    69A      0.172796

  @DF-RHF Final Energy: -1810.67111909618643

   => Energetics <=

    Nuclear Repulsion Energy =           1423.3999615564082433
    One-Electron Energy =               -5421.6010350057867981
    Two-Electron Energy =                2187.5299543531923518
    Total Energy =                      -1810.6711190961864304
  Basis Set: (AUG-CC-PVTZ AUX)
    Blend: AUG-CC-PVTZ-RI
    Molecular point group: c1

    Geometry (in Angstrom), charge = -4, multiplicity = 1:

       Center              X                  Y                   Z               Mass
    ------------   -----------------  -----------------  -----------------  -----------------
         P           -2.573664947028    -0.227575820486     0.364613162283    30.973761998420
         P            0.303096052972    -0.578681820486    -0.365517837717    30.973761998420
         P            3.121596052972     0.405556179514     0.148882162283    30.973761998420
         O           -2.846208947028     1.348517179514    -0.121660837717    15.994914619570
         O           -0.970394947028    -0.066242820486     0.635671162283    15.994914619570
         O           -3.239045947028    -0.443204820486     1.708221162283    15.994914619570
         O           -2.904165947028    -1.152122820486    -0.785216837717    15.994914619570
         O            1.436443052972     0.101532179514     0.565700162283    15.994914619570
         O            0.159300052972     0.102314179514    -1.711490837717    15.994914619570
         O            0.349294052972    -2.092199820486    -0.294037837717    15.994914619570
         O            3.479370052972    -0.666697820486    -0.890145837717    15.994914619570
         O            3.110603252972     1.892914779514    -0.398155637717    15.994914619570
         O            3.780475052972     0.227301179514     1.524511162283    15.994914619570
         C           -4.193296947028     1.606324179514    -0.531847837717    12.000000000000
         H           -4.482622947028     0.948303179514    -1.356223837717     1.007825032230
         H           -4.892052947028     1.464471179514     0.299376162283     1.007825032230
         H           -4.237493947028     2.645401179514    -0.862524837717     1.007825032230

  Basis Set: AUG-CC-PVTZ
    Blend: AUG-CC-PVTZ
  Basis Set: (AUG-CC-PVTZ AUX)
    Blend: AUG-CC-PVTZ-JKFIT
	 Reference Energy          =   -1810.6711190961864304 [Eh]
	 Singles Energy            =      -0.0000000000000000 [Eh]
	 Same-Spin Energy          =      -0.9132539676078989 [Eh]
	 Opposite-Spin Energy      =      -2.5275748383187220 [Eh]
	 Correlation Energy        =      -3.4408288059266208 [Eh]
	 Total Energy              =   -1814.1119479021131156 [Eh]

	 ================> DF-SCS-MP2 Energies <==================
	-----------------------------------------------------------
	 SCS Same-Spin Scale       =       0.3333333333333333 [-]
	 SCS Opposite-Spin Scale   =       1.2000000000000000 [-]
	 SCS Same-Spin Energy      =      -0.3044179892026330 [Eh]
	 SCS Opposite-Spin Energy  =      -3.0330898059824665 [Eh]
	 SCS Correlation Energy    =      -3.3375077951850995 [Eh]
	 SCS Total Energy          =   -1814.0086268913714775 [Eh]
	-----------------------------------------------------------

  Dipole Moment: [D]
     X:   -15.0510      Y:     2.3359      Z:     0.1191     Total:    15.2317

*** Psi4 exiting successfully. Buy a developer a beer!
