                               Psi4 1.3.2 release

  ==> Input File <==

--------------------------------------------------------------------------
#psi4
#
memory 32 gb

molecule  {
-4 1
  P        2.5828670     0.0826120    -0.3559070
  P       -0.1833470    -1.1435920     0.2927960
  P       -2.7088530     0.4754690    -0.2006980
  O        1.9534540     1.6068400    -0.1842610
  O        1.2509400    -0.8782220    -0.5450080
  O        3.2679280     0.0927970    -1.6978490
  O        3.3289310    -0.2934220     0.9022790
  O       -0.9881700     0.1612780    -0.2225170
  O        0.0932830    -1.0798150     1.7822090
  O       -0.7150640    -2.4305380    -0.3003910
  O       -3.2327710    -0.2685190     1.0414150
  O       -2.7128520     2.0086770    -0.0959300
  O       -3.2766895    -0.1467636    -1.7223424
  C        1.4216660     1.9681570     1.1052990
  H        1.0169430     1.1016800     1.6278780
  H        2.2027140     2.4392170     1.7103290
  H        0.6160650     2.6819120     0.9264900
units angstrom
no_reorient  #important for SAPT in psi4, default
symmetry c1  #important for SAPT in psi4, default
}

set PROPERTIES_ORIGIN ["COM"]
properties('MP2/aug-cc-pvtz', properties = ['dipole'])
--------------------------------------------------------------------------

    Molecular point group: c1
  Charge       = -4
  Multiplicity = 1
  Basis Set: AUG-CC-PVTZ
    Blend: AUG-CC-PVTZ
  Basis Set: (AUG-CC-PVTZ AUX)
    Blend: AUG-CC-PVTZ-JKFIT

    Orbital Energies [Eh]
    ---------------------

    Doubly Occupied:

       1A    -79.575472     2A    -79.532923     3A    -79.509982
       4A    -20.089068     5A    -20.042380     6A    -20.006235
       7A    -20.005597     8A    -20.004775     9A    -19.955642
      10A    -19.948782    11A    -19.941273    12A    -19.935150
      13A    -19.930138    14A    -10.815661    15A     -7.089308
      16A     -7.045876    17A     -7.020000    18A     -4.988263
      19A     -4.987315    20A     -4.986476    21A     -4.945123
      22A     -4.943823    23A     -4.942781    24A     -4.919449
      25A     -4.917333    26A     -4.916565    27A     -0.905390
      28A     -0.850667    29A     -0.811706    30A     -0.781678
      31A     -0.760125    32A     -0.744590    33A     -0.719008
      34A     -0.703906    35A     -0.677603    36A     -0.615602
      37A     -0.470684    38A     -0.298701    39A     -0.241177
      40A     -0.191703    41A     -0.168578    42A     -0.152594
      43A     -0.130290    44A     -0.105655    45A     -0.086983
      46A     -0.070104    47A     -0.056409    48A     -0.048533
      49A     -0.037465    50A     -0.020763    51A     -0.010013
      52A     -0.001463    53A      0.007461    54A      0.012242
      55A      0.017785    56A      0.035115    57A      0.046127
      58A      0.050604    59A      0.063500    60A      0.067195
      61A      0.086992    62A      0.091997    63A      0.102427
      64A      0.108688    65A      0.118829    66A      0.125559
      67A      0.132519    68A      0.158312    69A      0.168063

  @DF-RHF Final Energy: -1810.65612048491471

   => Energetics <=

    Nuclear Repulsion Energy =           1454.1250373394507278
    One-Electron Energy =               -5483.0355785425754220
    Two-Electron Energy =                2218.2544207182104401
    Total Energy =                      -1810.6561204849144815
  Basis Set: (AUG-CC-PVTZ AUX)
    Blend: AUG-CC-PVTZ-RI
    Molecular point group: c1

    Geometry (in Angstrom), charge = -4, multiplicity = 1:

       Center              X                  Y                   Z               Mass
    ------------   -----------------  -----------------  -----------------  -----------------
         P            2.602077601105     0.112037268017    -0.328722633307    30.973761998420
         P           -0.164136398895    -1.114166731983     0.319980366693    30.973761998420
         P           -2.689642398895     0.504894268017    -0.173513633307    30.973761998420
         O            1.972664601105     1.636265268017    -0.157076633307    15.994914619570
         O            1.270150601105    -0.848796731983    -0.517823633307    15.994914619570
         O            3.287138601105     0.122222268017    -1.670664633307    15.994914619570
         O            3.348141601105    -0.263996731983     0.929463366693    15.994914619570
         O           -0.968959398895     0.190703268017    -0.195332633307    15.994914619570
         O            0.112493601105    -1.050389731983     1.809393366693    15.994914619570
         O           -0.695853398895    -2.401112731983    -0.273206633307    15.994914619570
         O           -3.213560398895    -0.239093731983     1.068599366693    15.994914619570
         O           -2.693641398895     2.038102268017    -0.068745633307    15.994914619570
         O           -3.257478898895    -0.117338331983    -1.695158033307    15.994914619570
         C            1.440876601105     1.997582268017     1.132483366693    12.000000000000
         H            1.036153601105     1.131105268017     1.655062366693     1.007825032230
         H            2.221924601105     2.468642268017     1.737513366693     1.007825032230
         H            0.635275601105     2.711337268017     0.953674366693     1.007825032230

  Basis Set: AUG-CC-PVTZ
    Blend: AUG-CC-PVTZ
  Basis Set: (AUG-CC-PVTZ AUX)
    Blend: AUG-CC-PVTZ-JKFIT
	 Reference Energy          =   -1810.6561204849147089 [Eh]
	 Singles Energy            =      -0.0000000000000000 [Eh]
	 Same-Spin Energy          =      -0.9163429262497664 [Eh]
	 Opposite-Spin Energy      =      -2.5350844833668829 [Eh]
	 Correlation Energy        =      -3.4514274096166493 [Eh]
	 Total Energy              =   -1814.1075478945313080 [Eh]

	 ================> DF-SCS-MP2 Energies <==================
	-----------------------------------------------------------
	 SCS Same-Spin Scale       =       0.3333333333333333 [-]
	 SCS Opposite-Spin Scale   =       1.2000000000000000 [-]
	 SCS Same-Spin Energy      =      -0.3054476420832555 [Eh]
	 SCS Opposite-Spin Energy  =      -3.0421013800402594 [Eh]
	 SCS Correlation Energy    =      -3.3475490221235149 [Eh]
	 SCS Total Energy          =   -1814.0036695070382393 [Eh]
	-----------------------------------------------------------

  Dipole Moment: [D]
     X:    10.0591      Y:     2.7403      Z:     3.0027     Total:    10.8495

*** Psi4 exiting successfully. Buy a developer a beer!
