                               Psi4 1.3.2 release

  ==> Input File <==

--------------------------------------------------------------------------
#psi4
#
memory 32 gb

molecule  {
-4 1
  P        2.5828670     0.0826120    -0.3559070
  P       -0.1833470    -1.1435920     0.2927960
  P       -2.7088530     0.4754690    -0.2006980
  O        1.9534540     1.6068400    -0.1842610
  O        1.2509400    -0.8782220    -0.5450080
  O        3.2679280     0.0927970    -1.6978490
  O        3.3289310    -0.2934220     0.9022790
  O       -0.9869232     0.1284745    -0.3005719
  O        0.1296407    -1.1501361     1.7763521
  O       -0.7150640    -2.4305380    -0.3003910
  O       -3.2327710    -0.2685190     1.0414150
  O       -2.7128520     2.0086770    -0.0959300
  O       -3.2113930    -0.0752120    -1.5473660
  C        1.4216660     1.9681570     1.1052990
  H        1.0169430     1.1016800     1.6278780
  H        2.2027140     2.4392170     1.7103290
  H        0.6160650     2.6819120     0.9264900
units angstrom
no_reorient  #important for SAPT in psi4, default
symmetry c1  #important for SAPT in psi4, default
}

set PROPERTIES_ORIGIN ["COM"]
properties('MP2/aug-cc-pvtz', properties = ['dipole'])
--------------------------------------------------------------------------

    Molecular point group: c1
  Charge       = -4
  Multiplicity = 1
  Basis Set: AUG-CC-PVTZ
    Blend: AUG-CC-PVTZ
  Basis Set: (AUG-CC-PVTZ AUX)
    Blend: AUG-CC-PVTZ-JKFIT

    Orbital Energies [Eh]
    ---------------------

    Doubly Occupied:

       1A    -79.571608     2A    -79.525868     3A    -79.482403
       4A    -20.086483     5A    -20.035244     6A    -20.002088
       7A    -20.001709     8A    -19.996665     9A    -19.953440
      10A    -19.938027    11A    -19.927638    12A    -19.921910
      13A    -19.917848    14A    -10.814512    15A     -7.085442
      16A     -7.038874    17A     -6.995901    18A     -4.984405
      19A     -4.983431    20A     -4.982632    21A     -4.938213
      22A     -4.936643    23A     -4.935844    24A     -4.895353
      25A     -4.893158    26A     -4.892992    27A     -0.902153
      28A     -0.844966    29A     -0.806257    30A     -0.777324
      31A     -0.756838    32A     -0.742088    33A     -0.716974
      34A     -0.695107    35A     -0.666350    36A     -0.660355
      37A     -0.469008    38A     -0.292681    39A     -0.235064
      40A     -0.183260    41A     -0.165141    42A     -0.149914
      43A     -0.126030    44A     -0.099806    45A     -0.082116
      46A     -0.065709    47A     -0.051928    48A     -0.043977
      49A     -0.031078    50A     -0.017156    51A     -0.006518
      52A     -0.000602    53A      0.009926    54A      0.014752
      55A      0.020773    56A      0.037889    57A      0.046353
      58A      0.054021    59A      0.068065    60A      0.071638
      61A      0.091759    62A      0.097816    63A      0.100315
      64A      0.102281    65A      0.116462    66A      0.128182
      67A      0.141209    68A      0.149808    69A      0.170050

  @DF-RHF Final Energy: -1810.68609589950347

   => Energetics <=

    Nuclear Repulsion Energy =           1461.8213371719155020
    One-Electron Energy =               -5499.2040019222522460
    Two-Electron Energy =                2226.6965688508330459
    Total Energy =                      -1810.6860958995034707
  Basis Set: (AUG-CC-PVTZ AUX)
    Blend: AUG-CC-PVTZ-RI
    Molecular point group: c1

    Geometry (in Angstrom), charge = -4, multiplicity = 1:

       Center              X                  Y                   Z               Mass
    ------------   -----------------  -----------------  -----------------  -----------------
         P            2.595933778254     0.113922370386    -0.334159750249    30.973761998420
         P           -0.170280221746    -1.112281629614     0.314543249751    30.973761998420
         P           -2.695786221746     0.506779370386    -0.178950750249    30.973761998420
         O            1.966520778254     1.638150370386    -0.162513750249    15.994914619570
         O            1.264006778254    -0.846911629614    -0.523260750249    15.994914619570
         O            3.280994778254     0.124107370386    -1.676101750249    15.994914619570
         O            3.341997778254    -0.262111629614     0.924026249751    15.994914619570
         O           -0.973856421746     0.159784870386    -0.278824650249    15.994914619570
         O            0.142707478254    -1.118825729614     1.798099349751    15.994914619570
         O           -0.701997221746    -2.399227629614    -0.278643750249    15.994914619570
         O           -3.219704221746    -0.237208629614     1.063162249751    15.994914619570
         O           -2.699785221746     2.039987370386    -0.074182750249    15.994914619570
         O           -3.198326221746    -0.043901629614    -1.525618750249    15.994914619570
         C            1.434732778254     1.999467370386     1.127046249751    12.000000000000
         H            1.030009778254     1.132990370386     1.649625249751     1.007825032230
         H            2.215780778254     2.470527370386     1.732076249751     1.007825032230
         H            0.629131778254     2.713222370386     0.948237249751     1.007825032230

  Basis Set: AUG-CC-PVTZ
    Blend: AUG-CC-PVTZ
  Basis Set: (AUG-CC-PVTZ AUX)
    Blend: AUG-CC-PVTZ-JKFIT
	 Reference Energy          =   -1810.6860958995034707 [Eh]
	 Singles Energy            =      -0.0000000000000000 [Eh]
	 Same-Spin Energy          =      -0.9131530988055310 [Eh]
	 Opposite-Spin Energy      =      -2.5262048495352771 [Eh]
	 Correlation Energy        =      -3.4393579483408079 [Eh]
	 Total Energy              =   -1814.1254538478442555 [Eh]

	 ================> DF-SCS-MP2 Energies <==================
	-----------------------------------------------------------
	 SCS Same-Spin Scale       =       0.3333333333333333 [-]
	 SCS Opposite-Spin Scale   =       1.2000000000000000 [-]
	 SCS Same-Spin Energy      =      -0.3043843662685103 [Eh]
	 SCS Opposite-Spin Energy  =      -3.0314458194423324 [Eh]
	 SCS Correlation Energy    =      -3.3358301857108428 [Eh]
	 SCS Total Energy          =   -1814.0219260852143179 [Eh]
	-----------------------------------------------------------

  Dipole Moment: [D]
     X:     9.1006      Y:     2.6082      Z:     1.7308     Total:     9.6239

*** Psi4 exiting successfully. Buy a developer a beer!
