                               Psi4 1.3.2 release

  ==> Input File <==

--------------------------------------------------------------------------
#psi4
#
memory 32 gb

molecule  {
-4 1
  P        2.5828670     0.0826120    -0.3559070
  P       -0.1833470    -1.1435920     0.2927960
  P       -2.7088530     0.4754690    -0.2006980
  O        1.9534540     1.6068400    -0.1842610
  O        1.2509400    -0.8782220    -0.5450080
  O        3.2679280     0.0927970    -1.6978490
  O        3.3289310    -0.2934220     0.9022790
  O       -0.9857698     0.1739856    -0.1948612
  O        0.0932830    -1.0798150     1.7822090
  O       -0.7150640    -2.4305380    -0.3003910
  O       -3.2327710    -0.2685190     1.0414150
  O       -2.7128520     2.0086770    -0.0959300
  O       -3.2363531    -0.0677112    -1.5408509
  C        1.4216660     1.9681570     1.1052990
  H        1.0169430     1.1016800     1.6278780
  H        2.2027140     2.4392170     1.7103290
  H        0.6160650     2.6819120     0.9264900
units angstrom
no_reorient  #important for SAPT in psi4, default
symmetry c1  #important for SAPT in psi4, default
}

set PROPERTIES_ORIGIN ["COM"]
properties('MP2/aug-cc-pvtz', properties = ['dipole'])
--------------------------------------------------------------------------

    Molecular point group: c1
  Charge       = -4
  Multiplicity = 1
  Basis Set: AUG-CC-PVTZ
    Blend: AUG-CC-PVTZ
  Basis Set: (AUG-CC-PVTZ AUX)
    Blend: AUG-CC-PVTZ-JKFIT

    Orbital Energies [Eh]
    ---------------------

    Doubly Occupied:

       1A    -79.572937     2A    -79.527638     3A    -79.479853
       4A    -20.085756     5A    -20.039141     6A    -20.003081
       7A    -20.002917     8A    -19.994498     9A    -19.949161
      10A    -19.947087    11A    -19.922647    12A    -19.920629
      13A    -19.915834    14A    -10.811481    15A     -7.086757
      16A     -7.040579    17A     -6.993348    18A     -4.985706
      19A     -4.984766    20A     -4.983941    21A     -4.939840
      22A     -4.938474    23A     -4.937538    24A     -4.892792
      25A     -4.890616    26A     -4.890485    27A     -0.902154
      28A     -0.846186    29A     -0.807181    30A     -0.778570
      31A     -0.757907    32A     -0.742310    33A     -0.713997
      34A     -0.700240    35A     -0.662878    36A     -0.658573
      37A     -0.466668    38A     -0.294338    39A     -0.234981
      40A     -0.184752    41A     -0.164038    42A     -0.148845
      43A     -0.126142    44A     -0.099119    45A     -0.083317
      46A     -0.065342    47A     -0.052194    48A     -0.044406
      49A     -0.032402    50A     -0.016356    51A     -0.007045
      52A      0.000175    53A      0.009349    54A      0.014599
      55A      0.021371    56A      0.037009    57A      0.047220
      58A      0.053289    59A      0.066646    60A      0.070456
      61A      0.090019    62A      0.100498    63A      0.102921
      64A      0.104253    65A      0.113310    66A      0.124825
      67A      0.145098    68A      0.150257    69A      0.172645

  @DF-RHF Final Energy: -1810.68912899370480

   => Energetics <=

    Nuclear Repulsion Energy =           1462.6547160959105440
    One-Electron Energy =               -5500.8806919592170743
    Two-Electron Energy =                2227.5368468696015043
    Total Energy =                      -1810.6891289937047986
  Basis Set: (AUG-CC-PVTZ AUX)
    Blend: AUG-CC-PVTZ-RI
    Molecular point group: c1

    Geometry (in Angstrom), charge = -4, multiplicity = 1:

       Center              X                  Y                   Z               Mass
    ------------   -----------------  -----------------  -----------------  -----------------
         P            2.599525963126     0.106558631416    -0.341210014003    30.973761998420
         P           -0.166688036874    -1.119645368584     0.307492985997    30.973761998420
         P           -2.692194036874     0.499415631416    -0.186001014003    30.973761998420
         O            1.970112963126     1.630786631416    -0.169564014003    15.994914619570
         O            1.267598963126    -0.854275368584    -0.530311014003    15.994914619570
         O            3.284586963126     0.116743631416    -1.683152014003    15.994914619570
         O            3.345589963126    -0.269475368584     0.916975985997    15.994914619570
         O           -0.969110836874     0.197932231416    -0.180164214003    15.994914619570
         O            0.109941963126    -1.055868368584     1.796905985997    15.994914619570
         O           -0.698405036874    -2.406591368584    -0.285694014003    15.994914619570
         O           -3.216112036874    -0.244572368584     1.056111985997    15.994914619570
         O           -2.696193036874     2.032623631416    -0.081233014003    15.994914619570
         O           -3.219694136874    -0.043764568584    -1.526153914003    15.994914619570
         C            1.438324963126     1.992103631416     1.119995985997    12.000000000000
         H            1.033601963126     1.125626631416     1.642574985997     1.007825032230
         H            2.219372963126     2.463163631416     1.725025985997     1.007825032230
         H            0.632723963126     2.705858631416     0.941186985997     1.007825032230

  Basis Set: AUG-CC-PVTZ
    Blend: AUG-CC-PVTZ
  Basis Set: (AUG-CC-PVTZ AUX)
    Blend: AUG-CC-PVTZ-JKFIT
	 Reference Energy          =   -1810.6891289937047986 [Eh]
	 Singles Energy            =      -0.0000000000000000 [Eh]
	 Same-Spin Energy          =      -0.9129791274267927 [Eh]
	 Opposite-Spin Energy      =      -2.5257070626528355 [Eh]
	 Correlation Energy        =      -3.4386861900796282 [Eh]
	 Total Energy              =   -1814.1278151837843780 [Eh]

	 ================> DF-SCS-MP2 Energies <==================
	-----------------------------------------------------------
	 SCS Same-Spin Scale       =       0.3333333333333333 [-]
	 SCS Opposite-Spin Scale   =       1.2000000000000000 [-]
	 SCS Same-Spin Energy      =      -0.3043263758089308 [Eh]
	 SCS Opposite-Spin Energy  =      -3.0308484751834026 [Eh]
	 SCS Correlation Energy    =      -3.3351748509923334 [Eh]
	 SCS Total Energy          =   -1814.0243038446972150 [Eh]
	-----------------------------------------------------------

  Dipole Moment: [D]
     X:     9.3209      Y:     2.2879      Z:     1.5511     Total:     9.7222

*** Psi4 exiting successfully. Buy a developer a beer!
