                               Psi4 1.3.2 release

  ==> Input File <==

--------------------------------------------------------------------------
#psi4
#
memory 32 gb

molecule  {
-4 1
  P        2.5828670     0.0826120    -0.3559070
  P       -0.1833470    -1.1435920     0.2927960
  P       -2.7088530     0.4754690    -0.2006980
  O        1.9534540     1.6068400    -0.1842610
  O        1.2509400    -0.8782220    -0.5450080
  O        3.2679280     0.0927970    -1.6978490
  O        3.3289310    -0.2934220     0.9022790
  O       -0.9881700     0.1612780    -0.2225170
  O        0.0932830    -1.0798150     1.7822090
  O       -0.7150640    -2.4305380    -0.3003910
  O       -3.2327710    -0.2685190     1.0414150
  O       -2.7128520     2.0086770    -0.0959300
  O       -3.2113930    -0.0752120    -1.5473660
  C        1.4216660     1.9681570     1.1052990
  H        0.9798058     1.0221724     1.6758297
  H        2.2027140     2.4392170     1.7103290
  H        0.6160650     2.6819120     0.9264900
units angstrom
no_reorient  #important for SAPT in psi4, default
symmetry c1  #important for SAPT in psi4, default
}

set PROPERTIES_ORIGIN ["COM"]
properties('MP2/aug-cc-pvtz', properties = ['dipole'])
--------------------------------------------------------------------------

    Molecular point group: c1
  Charge       = -4
  Multiplicity = 1
  Basis Set: AUG-CC-PVTZ
    Blend: AUG-CC-PVTZ
  Basis Set: (AUG-CC-PVTZ AUX)
    Blend: AUG-CC-PVTZ-JKFIT

    Orbital Energies [Eh]
    ---------------------

    Doubly Occupied:

       1A    -79.572580     2A    -79.527705     3A    -79.479979
       4A    -20.086028     5A    -20.038651     6A    -20.002603
       7A    -20.002573     8A    -19.993214     9A    -19.951546
      10A    -19.945820    11A    -19.923924    12A    -19.919320
      13A    -19.917551    14A    -10.819180    15A     -7.086402
      16A     -7.040639    17A     -6.993484    18A     -4.985353
      19A     -4.984409    20A     -4.983582    21A     -4.939912
      22A     -4.938524    23A     -4.937612    24A     -4.892946
      25A     -4.890757    26A     -4.890609    27A     -0.901721
      28A     -0.845916    29A     -0.806745    30A     -0.778154
      31A     -0.757511    32A     -0.742769    33A     -0.713977
      34A     -0.700686    35A     -0.663507    36A     -0.659208
      37A     -0.457201    38A     -0.292824    39A     -0.231183
      40A     -0.183980    41A     -0.156444    42A     -0.148366
      43A     -0.125902    44A     -0.099359    45A     -0.081480
      46A     -0.063268    47A     -0.051941    48A     -0.038428
      49A     -0.031510    50A     -0.016315    51A     -0.006588
      52A      0.001559    53A      0.010828    54A      0.014670
      55A      0.022683    56A      0.037383    57A      0.047148
      58A      0.053641    59A      0.066767    60A      0.071036
      61A      0.090495    62A      0.100156    63A      0.102021
      64A      0.103709    65A      0.113460    66A      0.124845
      67A      0.144396    68A      0.150287    69A      0.171955

  @DF-RHF Final Energy: -1810.68224182462041

   => Energetics <=

    Nuclear Repulsion Energy =           1462.7114020543212973
    One-Electron Energy =               -5501.0416002130223205
    Two-Electron Energy =                2227.6479563340808454
    Total Energy =                      -1810.6822418246201778
  Basis Set: (AUG-CC-PVTZ AUX)
    Blend: AUG-CC-PVTZ-RI
    Molecular point group: c1

    Geometry (in Angstrom), charge = -4, multiplicity = 1:

       Center              X                  Y                   Z               Mass
    ------------   -----------------  -----------------  -----------------  -----------------
         P            2.598318709561     0.108064307250    -0.339350196774    30.973761998420
         P           -0.167895290439    -1.118139692750     0.309352803226    30.973761998420
         P           -2.693401290439     0.500921307250    -0.184141196774    30.973761998420
         O            1.968905709561     1.632292307250    -0.167704196774    15.994914619570
         O            1.266391709561    -0.852769692750    -0.528451196774    15.994914619570
         O            3.283379709561     0.118249307250    -1.681292196774    15.994914619570
         O            3.344382709561    -0.267969692750     0.918835803226    15.994914619570
         O           -0.972718290439     0.186730307250    -0.205960196774    15.994914619570
         O            0.108734709561    -1.054362692750     1.798765803226    15.994914619570
         O           -0.699612290439    -2.405085692750    -0.283834196774    15.994914619570
         O           -3.217319290439    -0.243066692750     1.057971803226    15.994914619570
         O           -2.697400290439     2.034129307250    -0.079373196774    15.994914619570
         O           -3.195941290439    -0.049759692750    -1.530809196774    15.994914619570
         C            1.437117709561     1.993609307250     1.121855803226    12.000000000000
         H            0.995257509561     1.047624707250     1.692386503226     1.007825032230
         H            2.218165709561     2.464669307250     1.726885803226     1.007825032230
         H            0.631516709561     2.707364307250     0.943046803226     1.007825032230

  Basis Set: AUG-CC-PVTZ
    Blend: AUG-CC-PVTZ
  Basis Set: (AUG-CC-PVTZ AUX)
    Blend: AUG-CC-PVTZ-JKFIT
	 Reference Energy          =   -1810.6822418246204052 [Eh]
	 Singles Energy            =      -0.0000000000000000 [Eh]
	 Same-Spin Energy          =      -0.9135608758834491 [Eh]
	 Opposite-Spin Energy      =      -2.5269348179198756 [Eh]
	 Correlation Energy        =      -3.4404956938033249 [Eh]
	 Total Energy              =   -1814.1227375184237189 [Eh]

	 ================> DF-SCS-MP2 Energies <==================
	-----------------------------------------------------------
	 SCS Same-Spin Scale       =       0.3333333333333333 [-]
	 SCS Opposite-Spin Scale   =       1.2000000000000000 [-]
	 SCS Same-Spin Energy      =      -0.3045202919611497 [Eh]
	 SCS Opposite-Spin Energy  =      -3.0323217815038506 [Eh]
	 SCS Correlation Energy    =      -3.3368420734650002 [Eh]
	 SCS Total Energy          =   -1814.0190838980854551 [Eh]
	-----------------------------------------------------------

  Dipole Moment: [D]
     X:     9.2098      Y:     2.2329      Z:     1.5890     Total:     9.6089

*** Psi4 exiting successfully. Buy a developer a beer!
