                               Psi4 1.3.2 release

  ==> Input File <==

--------------------------------------------------------------------------
#psi4
#
memory 32 gb

molecule  {
-4 1
  P        2.5828670     0.0826120    -0.3559070
  P       -0.1833470    -1.1435920     0.2927960
  P       -2.7088530     0.4754690    -0.2006980
  O        1.9534540     1.6068400    -0.1842610
  O        1.2509400    -0.8782220    -0.5450080
  O        3.2679280     0.0927970    -1.6978490
  O        3.3289310    -0.2934220     0.9022790
  O       -0.9371857     0.2089204    -0.1745482
  O        0.0932830    -1.0798150     1.7822090
  O       -0.6599463    -2.4698506    -0.2592140
  O       -3.2327710    -0.2685190     1.0414150
  O       -2.7128520     2.0086770    -0.0959300
  O       -3.2113930    -0.0752120    -1.5473660
  C        1.4216660     1.9681570     1.1052990
  H        1.0169430     1.1016800     1.6278780
  H        2.2027140     2.4392170     1.7103290
  H        0.6160650     2.6819120     0.9264900
units angstrom
no_reorient  #important for SAPT in psi4, default
symmetry c1  #important for SAPT in psi4, default
}

set PROPERTIES_ORIGIN ["COM"]
properties('MP2/aug-cc-pvtz', properties = ['dipole'])
--------------------------------------------------------------------------

    Molecular point group: c1
  Charge       = -4
  Multiplicity = 1
  Basis Set: AUG-CC-PVTZ
    Blend: AUG-CC-PVTZ
  Basis Set: (AUG-CC-PVTZ AUX)
    Blend: AUG-CC-PVTZ-JKFIT

    Orbital Energies [Eh]
    ---------------------

    Doubly Occupied:

       1A    -79.569598     2A    -79.523797     3A    -79.486239
       4A    -20.082711     5A    -20.033255     6A    -20.000214
       7A    -20.000065     8A    -19.996600     9A    -19.948291
      10A    -19.941998    11A    -19.927836    12A    -19.926811
      13A    -19.922684    14A    -10.808715    15A     -7.083399
      16A     -7.037030    17A     -6.999563    18A     -4.982353
      19A     -4.981396    20A     -4.980604    21A     -4.936350
      22A     -4.934715    23A     -4.934059    24A     -4.898984
      25A     -4.896748    26A     -4.896627    27A     -0.898900
      28A     -0.842463    29A     -0.803551    30A     -0.775071
      31A     -0.755035    32A     -0.741984    33A     -0.716596
      34A     -0.695906    35A     -0.667822    36A     -0.664800
      37A     -0.463822    38A     -0.289730    39A     -0.229961
      40A     -0.179456    41A     -0.160210    42A     -0.145917
      43A     -0.123785    44A     -0.099640    45A     -0.080286
      46A     -0.066062    47A     -0.049253    48A     -0.041588
      49A     -0.029703    50A     -0.015026    51A     -0.004538
      52A      0.000134    53A      0.009540    54A      0.016725
      55A      0.019042    56A      0.039616    57A      0.047756
      58A      0.056379    59A      0.069053    60A      0.072974
      61A      0.089410    62A      0.096833    63A      0.100957
      64A      0.101248    65A      0.115461    66A      0.127437
      67A      0.139560    68A      0.144693    69A      0.166812

  @DF-RHF Final Energy: -1810.68499433843022

   => Energetics <=

    Nuclear Repulsion Energy =           1461.9669447440521708
    One-Electron Energy =               -5499.5876482561034209
    Two-Electron Energy =                2226.9357091736210350
    Total Energy =                      -1810.6849943384304424
  Basis Set: (AUG-CC-PVTZ AUX)
    Blend: AUG-CC-PVTZ-RI
    Molecular point group: c1

    Geometry (in Angstrom), charge = -4, multiplicity = 1:

       Center              X                  Y                   Z               Mass
    ------------   -----------------  -----------------  -----------------  -----------------
         P            2.591844056038     0.107267856925    -0.344492353795    30.973761998420
         P           -0.174369943962    -1.118936143075     0.304210646205    30.973761998420
         P           -2.699875943962     0.500124856925    -0.189283353795    30.973761998420
         O            1.962431056038     1.631495856925    -0.172846353795    15.994914619570
         O            1.259917056038    -0.853566143075    -0.533593353795    15.994914619570
         O            3.276905056038     0.117452856925    -1.686434353795    15.994914619570
         O            3.337908056038    -0.268766143075     0.913693646205    15.994914619570
         O           -0.928208643962     0.233576256925    -0.163133553795    15.994914619570
         O            0.102260056038    -1.055159143075     1.793623646205    15.994914619570
         O           -0.650969243962    -2.445194743075    -0.247799353795    15.994914619570
         O           -3.223793943962    -0.243863143075     1.052829646205    15.994914619570
         O           -2.703874943962     2.033332856925    -0.084515353795    15.994914619570
         O           -3.202415943962    -0.050556143075    -1.535951353795    15.994914619570
         C            1.430643056038     1.992812856925     1.116713646205    12.000000000000
         H            1.025920056038     1.126335856925     1.639292646205     1.007825032230
         H            2.211691056038     2.463872856925     1.721743646205     1.007825032230
         H            0.625042056038     2.706567856925     0.937904646205     1.007825032230

  Basis Set: AUG-CC-PVTZ
    Blend: AUG-CC-PVTZ
  Basis Set: (AUG-CC-PVTZ AUX)
    Blend: AUG-CC-PVTZ-JKFIT
	 Reference Energy          =   -1810.6849943384302151 [Eh]
	 Singles Energy            =      -0.0000000000000000 [Eh]
	 Same-Spin Energy          =      -0.9135723483358662 [Eh]
	 Opposite-Spin Energy      =      -2.5271644071878123 [Eh]
	 Correlation Energy        =      -3.4407367555236785 [Eh]
	 Total Energy              =   -1814.1257310939538456 [Eh]

	 ================> DF-SCS-MP2 Energies <==================
	-----------------------------------------------------------
	 SCS Same-Spin Scale       =       0.3333333333333333 [-]
	 SCS Opposite-Spin Scale   =       1.2000000000000000 [-]
	 SCS Same-Spin Energy      =      -0.3045241161119554 [Eh]
	 SCS Opposite-Spin Energy  =      -3.0325972886253747 [Eh]
	 SCS Correlation Energy    =      -3.3371214047373301 [Eh]
	 SCS Total Energy          =   -1814.0221157431674328 [Eh]
	-----------------------------------------------------------

  Dipole Moment: [D]
     X:     8.6938      Y:     2.4290      Z:     1.3993     Total:     9.1345

*** Psi4 exiting successfully. Buy a developer a beer!
