                               Psi4 1.3.2 release

  ==> Input File <==

--------------------------------------------------------------------------
#psi4
#
memory 32 gb

molecule  {
-4 1
  P        2.5828670     0.0826120    -0.3559070
  P       -0.1833470    -1.1435920     0.2927960
  P       -2.7088530     0.4754690    -0.2006980
  O        1.9534540     1.6068400    -0.1842610
  O        1.2509400    -0.8782220    -0.5450080
  O        3.2679280     0.0927970    -1.6978490
  O        3.3289310    -0.2934220     0.9022790
  O       -0.9881700     0.1612780    -0.2225170
  O        0.0932830    -1.0798150     1.7822090
  O       -0.7150640    -2.4305380    -0.3003910
  O       -3.2412203    -0.2210350     1.0651299
  O       -2.7330882     2.0043044    -0.0464450
  O       -3.2113930    -0.0752120    -1.5473660
  C        1.4216660     1.9681570     1.1052990
  H        1.0169430     1.1016800     1.6278780
  H        2.2027140     2.4392170     1.7103290
  H        0.6160650     2.6819120     0.9264900
units angstrom
no_reorient  #important for SAPT in psi4, default
symmetry c1  #important for SAPT in psi4, default
}

set PROPERTIES_ORIGIN ["COM"]
properties('MP2/aug-cc-pvtz', properties = ['dipole'])
--------------------------------------------------------------------------

    Molecular point group: c1
  Charge       = -4
  Multiplicity = 1
  Basis Set: AUG-CC-PVTZ
    Blend: AUG-CC-PVTZ
  Basis Set: (AUG-CC-PVTZ AUX)
    Blend: AUG-CC-PVTZ-JKFIT

    Orbital Energies [Eh]
    ---------------------

    Doubly Occupied:

       1A    -79.573070     2A    -79.528176     3A    -79.479822
       4A    -20.086008     5A    -20.039135     6A    -20.003250
       7A    -20.003043     8A    -19.995075     9A    -19.950795
      10A    -19.946660    11A    -19.923631    12A    -19.920616
      13A    -19.913985    14A    -10.811762    15A     -7.086893
      16A     -7.041100    17A     -6.993329    18A     -4.985842
      19A     -4.984901    20A     -4.984078    21A     -4.940377
      22A     -4.938999    23A     -4.938053    24A     -4.892754
      25A     -4.890705    26A     -4.890365    27A     -0.902388
      28A     -0.846518    29A     -0.807407    30A     -0.778598
      31A     -0.758064    32A     -0.742649    33A     -0.714532
      34A     -0.700708    35A     -0.664227    36A     -0.656453
      37A     -0.466944    38A     -0.294636    39A     -0.235342
      40A     -0.184776    41A     -0.164345    42A     -0.149054
      43A     -0.126472    44A     -0.099581    45A     -0.083488
      46A     -0.065395    47A     -0.052595    48A     -0.044550
      49A     -0.032729    50A     -0.016360    51A     -0.007170
      52A     -0.000713    53A      0.009528    54A      0.014441
      55A      0.022555    56A      0.036781    57A      0.045629
      58A      0.053065    59A      0.066375    60A      0.070339
      61A      0.090604    62A      0.098770    63A      0.102717
      64A      0.105069    65A      0.113017    66A      0.124201
      67A      0.146655    68A      0.149502    69A      0.173520

  @DF-RHF Final Energy: -1810.68865351882232

   => Energetics <=

    Nuclear Repulsion Energy =           1462.3827910955451443
    One-Electron Energy =               -5500.3121806915769412
    Two-Electron Energy =                2227.2407360772094762
    Total Energy =                      -1810.6886535188223206
  Basis Set: (AUG-CC-PVTZ AUX)
    Blend: AUG-CC-PVTZ-RI
    Molecular point group: c1

    Geometry (in Angstrom), charge = -4, multiplicity = 1:

       Center              X                  Y                   Z               Mass
    ------------   -----------------  -----------------  -----------------  -----------------
         P            2.599891699137     0.105191181394    -0.343540285449    30.973761998420
         P           -0.166322300863    -1.121012818606     0.305162714551    30.973761998420
         P           -2.691828300863     0.498048181394    -0.188331285449    30.973761998420
         O            1.970478699137     1.629419181394    -0.171894285449    15.994914619570
         O            1.267964699137    -0.855642818606    -0.532641285449    15.994914619570
         O            3.284952699137     0.115376181394    -1.685482285449    15.994914619570
         O            3.345955699137    -0.270842818606     0.914645714551    15.994914619570
         O           -0.971145300863     0.183857181394    -0.210150285449    15.994914619570
         O            0.110307699137    -1.057235818606     1.794575714551    15.994914619570
         O           -0.698039300863    -2.407958818606    -0.288024285449    15.994914619570
         O           -3.224195600863    -0.198455818606     1.077496614551    15.994914619570
         O           -2.716063500863     2.026883581394    -0.034078285449    15.994914619570
         O           -3.194368300863    -0.052632818606    -1.534999285449    15.994914619570
         C            1.438690699137     1.990736181394     1.117665714551    12.000000000000
         H            1.033967699137     1.124259181394     1.640244714551     1.007825032230
         H            2.219738699137     2.461796181394     1.722695714551     1.007825032230
         H            0.633089699137     2.704491181394     0.938856714551     1.007825032230

  Basis Set: AUG-CC-PVTZ
    Blend: AUG-CC-PVTZ
  Basis Set: (AUG-CC-PVTZ AUX)
    Blend: AUG-CC-PVTZ-JKFIT
	 Reference Energy          =   -1810.6886535188223206 [Eh]
	 Singles Energy            =      -0.0000000000000000 [Eh]
	 Same-Spin Energy          =      -0.9129592367914078 [Eh]
	 Opposite-Spin Energy      =      -2.5256949415869947 [Eh]
	 Correlation Energy        =      -3.4386541783784024 [Eh]
	 Total Energy              =   -1814.1273076972006493 [Eh]

	 ================> DF-SCS-MP2 Energies <==================
	-----------------------------------------------------------
	 SCS Same-Spin Scale       =       0.3333333333333333 [-]
	 SCS Opposite-Spin Scale   =       1.2000000000000000 [-]
	 SCS Same-Spin Energy      =      -0.3043197455971359 [Eh]
	 SCS Opposite-Spin Energy  =      -3.0308339299043934 [Eh]
	 SCS Correlation Energy    =      -3.3351536755015294 [Eh]
	 SCS Total Energy          =   -1814.0238071943238083 [Eh]
	-----------------------------------------------------------

  Dipole Moment: [D]
     X:     9.3513      Y:     2.2167      Z:     1.4176     Total:     9.7144

*** Psi4 exiting successfully. Buy a developer a beer!
