                               Psi4 1.3.2 release

  ==> Input File <==

--------------------------------------------------------------------------
#psi4
#
memory 32 gb

molecule  {
-4 1
  P        2.5828670     0.0826120    -0.3559070
  P       -0.1833470    -1.1435920     0.2927960
  P       -2.7088530     0.4754690    -0.2006980
  O        1.9534540     1.6068400    -0.1842610
  O        1.2386312    -0.8498400    -0.5937182
  O        3.2679280     0.0927970    -1.6978490
  O        3.3641016    -0.2556276     0.8916152
  O       -0.9881700     0.1612780    -0.2225170
  O        0.0932830    -1.0798150     1.7822090
  O       -0.7150640    -2.4305380    -0.3003910
  O       -3.2327710    -0.2685190     1.0414150
  O       -2.7128520     2.0086770    -0.0959300
  O       -3.2113930    -0.0752120    -1.5473660
  C        1.4216660     1.9681570     1.1052990
  H        1.0169430     1.1016800     1.6278780
  H        2.2027140     2.4392170     1.7103290
  H        0.6160650     2.6819120     0.9264900
units angstrom
no_reorient  #important for SAPT in psi4, default
symmetry c1  #important for SAPT in psi4, default
}

set PROPERTIES_ORIGIN ["COM"]
properties('MP2/aug-cc-pvtz', properties = ['dipole'])
--------------------------------------------------------------------------

    Molecular point group: c1
  Charge       = -4
  Multiplicity = 1
  Basis Set: AUG-CC-PVTZ
    Blend: AUG-CC-PVTZ
  Basis Set: (AUG-CC-PVTZ AUX)
    Blend: AUG-CC-PVTZ-JKFIT

    Orbital Energies [Eh]
    ---------------------

    Doubly Occupied:

       1A    -79.570971     2A    -79.530247     3A    -79.480162
       4A    -20.082525     5A    -20.041163     6A    -20.004966
       7A    -19.997870     8A    -19.993294     9A    -19.955594
      10A    -19.948099    11A    -19.924092    12A    -19.919512
      13A    -19.917966    14A    -10.810782    15A     -7.084919
      16A     -7.043063    17A     -6.993674    18A     -4.983864
      19A     -4.982854    20A     -4.982137    21A     -4.942305
      22A     -4.940899    23A     -4.940033    24A     -4.893132
      25A     -4.890949    26A     -4.890803    27A     -0.900159
      28A     -0.843968    29A     -0.806373    30A     -0.777885
      31A     -0.756098    32A     -0.744402    33A     -0.714800
      34A     -0.702949    35A     -0.663733    36A     -0.659527
      37A     -0.465527    38A     -0.291488    39A     -0.233861
      40A     -0.181947    41A     -0.162491    42A     -0.146721
      43A     -0.127563    44A     -0.100717    45A     -0.080991
      46A     -0.065713    47A     -0.051868    48A     -0.043206
      49A     -0.033111    50A     -0.016085    51A     -0.006615
      52A     -0.000575    53A      0.010892    54A      0.014564
      55A      0.020646    56A      0.039934    57A      0.046677
      58A      0.052513    59A      0.065235    60A      0.071121
      61A      0.089119    62A      0.099035    63A      0.101613
      64A      0.103388    65A      0.111246    66A      0.122354
      67A      0.144069    68A      0.149932    69A      0.171676

  @DF-RHF Final Energy: -1810.68766806549638

   => Energetics <=

    Nuclear Repulsion Energy =           1461.9612113353239238
    One-Electron Energy =               -5499.4772859330241772
    Two-Electron Energy =                2226.8284065322036440
    Total Energy =                      -1810.6876680654963820
  Basis Set: (AUG-CC-PVTZ AUX)
    Blend: AUG-CC-PVTZ-RI
    Molecular point group: c1

    Geometry (in Angstrom), charge = -4, multiplicity = 1:

       Center              X                  Y                   Z               Mass
    ------------   -----------------  -----------------  -----------------  -----------------
         P            2.596814008156     0.103814058975    -0.335624807890    30.973761998420
         P           -0.169399991844    -1.122389941025     0.313078192110    30.973761998420
         P           -2.694905991844     0.496671058975    -0.180415807890    30.973761998420
         O            1.967401008156     1.628042058975    -0.163978807890    15.994914619570
         O            1.252578208156    -0.828637941025    -0.573436007890    15.994914619570
         O            3.281875008156     0.113999058975    -1.677566807890    15.994914619570
         O            3.378048608156    -0.234425541025     0.911897392110    15.994914619570
         O           -0.974222991844     0.182480058975    -0.202234807890    15.994914619570
         O            0.107230008156    -1.058612941025     1.802491192110    15.994914619570
         O           -0.701116991844    -2.409335941025    -0.280108807890    15.994914619570
         O           -3.218823991844    -0.247316941025     1.061697192110    15.994914619570
         O           -2.698904991844     2.029879058975    -0.075647807890    15.994914619570
         O           -3.197445991844    -0.054009941025    -1.527083807890    15.994914619570
         C            1.435613008156     1.989359058975     1.125581192110    12.000000000000
         H            1.030890008156     1.122882058975     1.648160192110     1.007825032230
         H            2.216661008156     2.460419058975     1.730611192110     1.007825032230
         H            0.630012008156     2.703114058975     0.946772192110     1.007825032230

  Basis Set: AUG-CC-PVTZ
    Blend: AUG-CC-PVTZ
  Basis Set: (AUG-CC-PVTZ AUX)
    Blend: AUG-CC-PVTZ-JKFIT
	 Reference Energy          =   -1810.6876680654963820 [Eh]
	 Singles Energy            =      -0.0000000000000000 [Eh]
	 Same-Spin Energy          =      -0.9132965320687705 [Eh]
	 Opposite-Spin Energy      =      -2.5265725368918317 [Eh]
	 Correlation Energy        =      -3.4398690689606024 [Eh]
	 Total Energy              =   -1814.1275371344570431 [Eh]

	 ================> DF-SCS-MP2 Energies <==================
	-----------------------------------------------------------
	 SCS Same-Spin Scale       =       0.3333333333333333 [-]
	 SCS Opposite-Spin Scale   =       1.2000000000000000 [-]
	 SCS Same-Spin Energy      =      -0.3044321773562568 [Eh]
	 SCS Opposite-Spin Energy  =      -3.0318870442701980 [Eh]
	 SCS Correlation Energy    =      -3.3363192216264546 [Eh]
	 SCS Total Energy          =   -1814.0239872871227362 [Eh]
	-----------------------------------------------------------

  Dipole Moment: [D]
     X:     9.0643      Y:     2.1741      Z:     1.7460     Total:     9.4835

*** Psi4 exiting successfully. Buy a developer a beer!
