                               Psi4 1.3.2 release

  ==> Input File <==

--------------------------------------------------------------------------
#psi4
#
memory 32 gb

molecule  {
-4 1
  P        2.5828670     0.0826120    -0.3559070
  P       -0.1833470    -1.1435920     0.2927960
  P       -2.7088530     0.4754690    -0.2006980
  O        1.9534540     1.6068400    -0.1842610
  O        1.2509400    -0.8782220    -0.5450080
  O        3.2679280     0.0927970    -1.6978490
  O        3.3289310    -0.2934220     0.9022790
  O       -0.9964566     0.1529862    -0.2303780
  O        0.0932830    -1.0798150     1.7822090
  O       -0.7241126    -2.4236399    -0.3070988
  O       -3.2327710    -0.2685190     1.0414150
  O       -2.7128520     2.0086770    -0.0959300
  O       -3.2113930    -0.0752120    -1.5473660
  C        1.4216660     1.9681570     1.1052990
  H        1.0169430     1.1016800     1.6278780
  H        2.2027140     2.4392170     1.7103290
  H        0.6160650     2.6819120     0.9264900
units angstrom
no_reorient  #important for SAPT in psi4, default
symmetry c1  #important for SAPT in psi4, default
}

set PROPERTIES_ORIGIN ["COM"]
properties('MP2/aug-cc-pvtz', properties = ['dipole'])
--------------------------------------------------------------------------

    Molecular point group: c1
  Charge       = -4
  Multiplicity = 1
  Basis Set: AUG-CC-PVTZ
    Blend: AUG-CC-PVTZ
  Basis Set: (AUG-CC-PVTZ AUX)
    Blend: AUG-CC-PVTZ-JKFIT

    Orbital Energies [Eh]
    ---------------------

    Doubly Occupied:

       1A    -79.573028     2A    -79.527406     3A    -79.478806
       4A    -20.086121     5A    -20.039104     6A    -20.003282
       7A    -20.002919     8A    -19.992226     9A    -19.951409
      10A    -19.944683    11A    -19.923469    12A    -19.917773
      13A    -19.916519    14A    -10.812177    15A     -7.086853
      16A     -7.040296    17A     -6.992345    18A     -4.985803
      19A     -4.984860    20A     -4.984037    21A     -4.939568
      22A     -4.938219    23A     -4.937240    24A     -4.891815
      25A     -4.889633    26A     -4.889479    27A     -0.902413
      28A     -0.846160    29A     -0.807128    30A     -0.778520
      31A     -0.758023    32A     -0.742118    33A     -0.713104
      34A     -0.699919    35A     -0.662771    36A     -0.658063
      37A     -0.467295    38A     -0.294467    39A     -0.235337
      40A     -0.184785    41A     -0.164592    42A     -0.149245
      43A     -0.126373    44A     -0.098862    45A     -0.083158
      46A     -0.064836    47A     -0.052349    48A     -0.044427
      49A     -0.032168    50A     -0.016352    51A     -0.007111
      52A      0.000198    53A      0.009617    54A      0.014470
      55A      0.022210    56A      0.037042    57A      0.047405
      58A      0.053056    59A      0.066684    60A      0.070625
      61A      0.091199    62A      0.100828    63A      0.102655
      64A      0.104431    65A      0.114066    66A      0.125139
      67A      0.145343    68A      0.151560    69A      0.172928

  @DF-RHF Final Energy: -1810.68907493212168

   => Energetics <=

    Nuclear Repulsion Energy =           1463.0880374229625431
    One-Electron Energy =               -5501.7758367466694835
    Two-Electron Energy =                2227.9987243915848012
    Total Energy =                      -1810.6890749321219118
  Basis Set: (AUG-CC-PVTZ AUX)
    Blend: AUG-CC-PVTZ-RI
    Molecular point group: c1

    Geometry (in Angstrom), charge = -4, multiplicity = 1:

       Center              X                  Y                   Z               Mass
    ------------   -----------------  -----------------  -----------------  -----------------
         P            2.599214016389     0.107848409704    -0.338299954017    30.973761998420
         P           -0.166999983611    -1.118355590296     0.310403045983    30.973761998420
         P           -2.692505983611     0.500705409704    -0.183090954017    30.973761998420
         O            1.969801016389     1.632076409704    -0.166653954017    15.994914619570
         O            1.267287016389    -0.852985590296    -0.527400954017    15.994914619570
         O            3.284275016389     0.118033409704    -1.680241954017    15.994914619570
         O            3.345278016389    -0.268185590296     0.919886045983    15.994914619570
         O           -0.980109583611     0.178222609704    -0.212770954017    15.994914619570
         O            0.109630016389    -1.054578590296     1.799816045983    15.994914619570
         O           -0.707765583611    -2.398403490296    -0.289491754017    15.994914619570
         O           -3.216423983611    -0.243282590296     1.059022045983    15.994914619570
         O           -2.696504983611     2.033913409704    -0.078322954017    15.994914619570
         O           -3.195045983611    -0.049975590296    -1.529758954017    15.994914619570
         C            1.438013016389     1.993393409704     1.122906045983    12.000000000000
         H            1.033290016389     1.126916409704     1.645485045983     1.007825032230
         H            2.219061016389     2.464453409704     1.727936045983     1.007825032230
         H            0.632412016389     2.707148409704     0.944097045983     1.007825032230

  Basis Set: AUG-CC-PVTZ
    Blend: AUG-CC-PVTZ
  Basis Set: (AUG-CC-PVTZ AUX)
    Blend: AUG-CC-PVTZ-JKFIT
	 Reference Energy          =   -1810.6890749321216845 [Eh]
	 Singles Energy            =      -0.0000000000000000 [Eh]
	 Same-Spin Energy          =      -0.9129489956738654 [Eh]
	 Opposite-Spin Energy      =      -2.5255994548502989 [Eh]
	 Correlation Energy        =      -3.4385484505241646 [Eh]
	 Total Energy              =   -1814.1276233826458792 [Eh]

	 ================> DF-SCS-MP2 Energies <==================
	-----------------------------------------------------------
	 SCS Same-Spin Scale       =       0.3333333333333333 [-]
	 SCS Opposite-Spin Scale   =       1.2000000000000000 [-]
	 SCS Same-Spin Energy      =      -0.3043163318912885 [Eh]
	 SCS Opposite-Spin Energy  =      -3.0307193458203585 [Eh]
	 SCS Correlation Energy    =      -3.3350356777116472 [Eh]
	 SCS Total Energy          =   -1814.0241106098333148 [Eh]
	-----------------------------------------------------------

  Dipole Moment: [D]
     X:     9.3478      Y:     2.3238      Z:     1.6431     Total:     9.7715

*** Psi4 exiting successfully. Buy a developer a beer!
