                               Psi4 1.3.2 release

  ==> Input File <==

--------------------------------------------------------------------------
#psi4
#
memory 32 gb

molecule  {
-4 1
  P        2.5828670     0.0826120    -0.3559070
  P       -0.1833470    -1.1435920     0.2927960
  P       -2.7088530     0.4754690    -0.2006980
  O        1.9534540     1.6068400    -0.1842610
  O        1.2509400    -0.8782220    -0.5450080
  O        3.2679280     0.0927970    -1.6978490
  O        3.3289310    -0.2934220     0.9022790
  O       -0.9384096     0.0806008    -0.1906564
  O        0.0932830    -1.0798150     1.7822090
  O       -0.7150640    -2.4305380    -0.3003910
  O       -3.2327710    -0.2685190     1.0414150
  O       -2.7128520     2.0086770    -0.0959300
  O       -3.2113930    -0.0752120    -1.5473660
  C        1.4216660     1.9681570     1.1052990
  H        1.0169430     1.1016800     1.6278780
  H        2.2027140     2.4392170     1.7103290
  H        0.6160650     2.6819120     0.9264900
units angstrom
no_reorient  #important for SAPT in psi4, default
symmetry c1  #important for SAPT in psi4, default
}

set PROPERTIES_ORIGIN ["COM"]
properties('MP2/aug-cc-pvtz', properties = ['dipole'])
--------------------------------------------------------------------------

    Molecular point group: c1
  Charge       = -4
  Multiplicity = 1
  Basis Set: AUG-CC-PVTZ
    Blend: AUG-CC-PVTZ
  Basis Set: (AUG-CC-PVTZ AUX)
    Blend: AUG-CC-PVTZ-JKFIT

    Orbital Energies [Eh]
    ---------------------

    Doubly Occupied:

       1A    -79.567964     2A    -79.507215     3A    -79.493080
       4A    -20.083182     5A    -20.028362     6A    -19.998958
       7A    -19.998800     8A    -19.988450     9A    -19.938256
      10A    -19.936433    11A    -19.933867    12A    -19.929093
      13A    -19.924093    14A    -10.810127    15A     -7.081772
      16A     -7.022873    17A     -7.006024    18A     -4.980736
      19A     -4.979748    20A     -4.978992    21A     -4.922043
      22A     -4.921124    23A     -4.919596    24A     -4.905531
      25A     -4.903132    26A     -4.902951    27A     -0.898844
      28A     -0.848635    29A     -0.810035    30A     -0.774984
      31A     -0.753789    32A     -0.743811    33A     -0.716005
      34A     -0.689659    35A     -0.673085    36A     -0.666366
      37A     -0.465063    38A     -0.288481    39A     -0.234168
      40A     -0.184166    41A     -0.163226    42A     -0.147012
      43A     -0.121745    44A     -0.099138    45A     -0.079477
      46A     -0.067565    47A     -0.052742    48A     -0.042068
      49A     -0.032733    50A     -0.014522    51A     -0.004112
      52A      0.000448    53A      0.009445    54A      0.015741
      55A      0.020948    56A      0.039957    57A      0.048625
      58A      0.057394    59A      0.072437    60A      0.076677
      61A      0.090658    62A      0.094067    63A      0.095311
      64A      0.103746    65A      0.121203    66A      0.130109
      67A      0.137506    68A      0.144645    69A      0.163563

  @DF-RHF Final Energy: -1810.68594181649928

   => Energetics <=

    Nuclear Repulsion Energy =           1465.1429363813565487
    One-Electron Energy =               -5506.0350508977817299
    Two-Electron Energy =                2230.2061726999254461
    Total Energy =                      -1810.6859418164995077
  Basis Set: (AUG-CC-PVTZ AUX)
    Blend: AUG-CC-PVTZ-RI
    Molecular point group: c1

    Geometry (in Angstrom), charge = -4, multiplicity = 1:

       Center              X                  Y                   Z               Mass
    ------------   -----------------  -----------------  -----------------  -----------------
         P            2.595207996228     0.112582122487    -0.341072074878    30.973761998420
         P           -0.171006003772    -1.113621877513     0.307630925122    30.973761998420
         P           -2.696512003772     0.505439122487    -0.185863074878    30.973761998420
         O            1.965794996228     1.636810122487    -0.169426074878    15.994914619570
         O            1.263280996228    -0.848251877513    -0.530173074878    15.994914619570
         O            3.280268996228     0.122767122487    -1.683014074878    15.994914619570
         O            3.341271996228    -0.263451877513     0.917113925122    15.994914619570
         O           -0.926068603772     0.110570922487    -0.175821474878    15.994914619570
         O            0.105623996228    -1.049844877513     1.797043925122    15.994914619570
         O           -0.702723003772    -2.400567877513    -0.285556074878    15.994914619570
         O           -3.220430003772    -0.238548877513     1.056249925122    15.994914619570
         O           -2.700511003772     2.038647122487    -0.081095074878    15.994914619570
         O           -3.199052003772    -0.045241877513    -1.532531074878    15.994914619570
         C            1.434006996228     1.998127122487     1.120133925122    12.000000000000
         H            1.029283996228     1.131650122487     1.642712925122     1.007825032230
         H            2.215054996228     2.469187122487     1.725163925122     1.007825032230
         H            0.628405996228     2.711882122487     0.941324925122     1.007825032230

  Basis Set: AUG-CC-PVTZ
    Blend: AUG-CC-PVTZ
  Basis Set: (AUG-CC-PVTZ AUX)
    Blend: AUG-CC-PVTZ-JKFIT
	 Reference Energy          =   -1810.6859418164992803 [Eh]
	 Singles Energy            =      -0.0000000000000000 [Eh]
	 Same-Spin Energy          =      -0.9122698514514500 [Eh]
	 Opposite-Spin Energy      =      -2.5237485500918337 [Eh]
	 Correlation Energy        =      -3.4360184015432838 [Eh]
	 Total Energy              =   -1814.1219602180426591 [Eh]

	 ================> DF-SCS-MP2 Energies <==================
	-----------------------------------------------------------
	 SCS Same-Spin Scale       =       0.3333333333333333 [-]
	 SCS Opposite-Spin Scale   =       1.2000000000000000 [-]
	 SCS Same-Spin Energy      =      -0.3040899504838167 [Eh]
	 SCS Opposite-Spin Energy  =      -3.0284982601102004 [Eh]
	 SCS Correlation Energy    =      -3.3325882105940172 [Eh]
	 SCS Total Energy          =   -1814.0185300270932203 [Eh]
	-----------------------------------------------------------

  Dipole Moment: [D]
     X:     8.3047      Y:     2.9184      Z:     1.3931     Total:     8.9121

*** Psi4 exiting successfully. Buy a developer a beer!
