                               Psi4 1.3.2 release

  ==> Input File <==

--------------------------------------------------------------------------
#psi4
#
memory 32 gb

molecule  {
-4 1
  P        2.5764635     0.0771252    -0.3282261
  P       -0.1833470    -1.1435920     0.2927960
  P       -2.7088530     0.4754690    -0.2006980
  O        1.9534540     1.6068400    -0.1842610
  O        1.2509400    -0.8782220    -0.5450080
  O        3.2679280     0.0927970    -1.6978490
  O        3.3289310    -0.2934220     0.9022790
  O       -0.9881700     0.1612780    -0.2225170
  O        0.0932830    -1.0798150     1.7822090
  O       -0.7150640    -2.4305380    -0.3003910
  O       -3.2327710    -0.2685190     1.0414150
  O       -2.7128520     2.0086770    -0.0959300
  O       -3.2113930    -0.0752120    -1.5473660
  C        1.4276679     1.9453108     1.1139300
  H        1.0169430     1.1016800     1.6278780
  H        2.2027140     2.4392170     1.7103290
  H        0.6160650     2.6819120     0.9264900
units angstrom
no_reorient  #important for SAPT in psi4, default
symmetry c1  #important for SAPT in psi4, default
}

set PROPERTIES_ORIGIN ["COM"]
properties('MP2/aug-cc-pvtz', properties = ['dipole'])
--------------------------------------------------------------------------

    Molecular point group: c1
  Charge       = -4
  Multiplicity = 1
  Basis Set: AUG-CC-PVTZ
    Blend: AUG-CC-PVTZ
  Basis Set: (AUG-CC-PVTZ AUX)
    Blend: AUG-CC-PVTZ-JKFIT

    Orbital Energies [Eh]
    ---------------------

    Doubly Occupied:

       1A    -79.572409     2A    -79.528036     3A    -79.480232
       4A    -20.087540     5A    -20.040626     6A    -20.006920
       7A    -19.996868     8A    -19.993787     9A    -19.951770
      10A    -19.946148    11A    -19.924126    12A    -19.919466
      13A    -19.917810    14A    -10.812787    15A     -7.086365
      16A     -7.041025    17A     -6.993739    18A     -4.985284
      19A     -4.984377    20A     -4.983519    21A     -4.940300
      22A     -4.938903    23A     -4.937987    24A     -4.893205
      25A     -4.891009    26A     -4.890862    27A     -0.903976
      28A     -0.847909    29A     -0.807848    30A     -0.781412
      31A     -0.752685    32A     -0.741675    33A     -0.714285
      34A     -0.700901    35A     -0.663710    36A     -0.659411
      37A     -0.466688    38A     -0.295562    39A     -0.236778
      40A     -0.184395    41A     -0.167821    42A     -0.145468
      43A     -0.127056    44A     -0.099944    45A     -0.082766
      46A     -0.066981    47A     -0.050407    48A     -0.047057
      49A     -0.033034    50A     -0.016191    51A     -0.007659
      52A     -0.001230    53A      0.008707    54A      0.014820
      55A      0.020751    56A      0.041003    57A      0.046156
      58A      0.052300    59A      0.067019    60A      0.072135
      61A      0.090598    62A      0.099910    63A      0.101873
      64A      0.103391    65A      0.112732    66A      0.124109
      67A      0.144143    68A      0.150066    69A      0.171758

  @DF-RHF Final Energy: -1810.68698491825080

   => Energetics <=

    Nuclear Repulsion Energy =           1463.7554655272570017
    One-Electron Energy =               -5503.0319387461950100
    Two-Electron Energy =                2228.5894883006872078
    Total Energy =                      -1810.6869849182508005
  Basis Set: (AUG-CC-PVTZ AUX)
    Blend: AUG-CC-PVTZ-RI
    Molecular point group: c1

    Geometry (in Angstrom), charge = -4, multiplicity = 1:

       Center              X                  Y                   Z               Mass
    ------------   -----------------  -----------------  -----------------  -----------------
         P            2.592247019591     0.103936147659    -0.315075968819    30.973761998420
         P           -0.167563480409    -1.116781052341     0.305946131181    30.973761998420
         P           -2.693069480409     0.502279947659    -0.187547868819    30.973761998420
         O            1.969237519591     1.633650947659    -0.171110868819    15.994914619570
         O            1.266723519591    -0.851411052341    -0.531857868819    15.994914619570
         O            3.283711519591     0.119607947659    -1.684698868819    15.994914619570
         O            3.344714519591    -0.266611052341     0.915429131181    15.994914619570
         O           -0.972386480409     0.188088947659    -0.209366868819    15.994914619570
         O            0.109066519591    -1.053004052341     1.795359131181    15.994914619570
         O           -0.699280480409    -2.403727052341    -0.287240868819    15.994914619570
         O           -3.216987480409    -0.241708052341     1.054565131181    15.994914619570
         O           -2.697068480409     2.035487947659    -0.082779868819    15.994914619570
         O           -3.195609480409    -0.048401052341    -1.534215868819    15.994914619570
         C            1.443451419591     1.972121747659     1.127080131181    12.000000000000
         H            1.032726519591     1.128490947659     1.641028131181     1.007825032230
         H            2.218497519591     2.466027947659     1.723479131181     1.007825032230
         H            0.631848519591     2.708722947659     0.939640131181     1.007825032230

  Basis Set: AUG-CC-PVTZ
    Blend: AUG-CC-PVTZ
  Basis Set: (AUG-CC-PVTZ AUX)
    Blend: AUG-CC-PVTZ-JKFIT
	 Reference Energy          =   -1810.6869849182508005 [Eh]
	 Singles Energy            =      -0.0000000000000000 [Eh]
	 Same-Spin Energy          =      -0.9131791548889292 [Eh]
	 Opposite-Spin Energy      =      -2.5262406000539523 [Eh]
	 Correlation Energy        =      -3.4394197549428815 [Eh]
	 Total Energy              =   -1814.1264046731937469 [Eh]

	 ================> DF-SCS-MP2 Energies <==================
	-----------------------------------------------------------
	 SCS Same-Spin Scale       =       0.3333333333333333 [-]
	 SCS Opposite-Spin Scale   =       1.2000000000000000 [-]
	 SCS Same-Spin Energy      =      -0.3043930516296430 [Eh]
	 SCS Opposite-Spin Energy  =      -3.0314887200647429 [Eh]
	 SCS Correlation Energy    =      -3.3358817716943858 [Eh]
	 SCS Total Energy          =   -1814.0228666899452037 [Eh]
	-----------------------------------------------------------

  Dipole Moment: [D]
     X:     9.1600      Y:     2.2378      Z:     1.9861     Total:     9.6363

*** Psi4 exiting successfully. Buy a developer a beer!
