                               Psi4 1.3.2 release

  ==> Input File <==

--------------------------------------------------------------------------
#psi4
#
memory 32 gb

molecule  {
-4 1
  P        2.5828670     0.0826120    -0.3559070
  P       -0.1833470    -1.1435920     0.2927960
  P       -2.7088530     0.4754690    -0.2006980
  O        1.9534540     1.6068400    -0.1842610
  O        1.2509400    -0.8782220    -0.5450080
  O        3.2679280     0.0927970    -1.6978490
  O        3.3289310    -0.2934220     0.9022790
  O       -1.0002097     0.1015580    -0.2265953
  O        0.0932830    -1.0798150     1.7822090
  O       -0.7150640    -2.4305380    -0.3003910
  O       -3.2327710    -0.2685190     1.0414150
  O       -2.7664825     2.0076030    -0.0959925
  O       -3.2113930    -0.0752120    -1.5473660
  C        1.4216660     1.9681570     1.1052990
  H        1.0169430     1.1016800     1.6278780
  H        2.2027140     2.4392170     1.7103290
  H        0.6160650     2.6819120     0.9264900
units angstrom
no_reorient  #important for SAPT in psi4, default
symmetry c1  #important for SAPT in psi4, default
}

set PROPERTIES_ORIGIN ["COM"]
properties('MP2/aug-cc-pvtz', properties = ['dipole'])
--------------------------------------------------------------------------

    Molecular point group: c1
  Charge       = -4
  Multiplicity = 1
  Basis Set: AUG-CC-PVTZ
    Blend: AUG-CC-PVTZ
  Basis Set: (AUG-CC-PVTZ AUX)
    Blend: AUG-CC-PVTZ-JKFIT

    Orbital Energies [Eh]
    ---------------------

    Doubly Occupied:

       1A    -79.572981     2A    -79.522797     3A    -79.482616
       4A    -20.087219     5A    -20.037878     6A    -20.003228
       7A    -20.002990     8A    -19.994685     9A    -19.948517
      10A    -19.940023    11A    -19.928482    12A    -19.918106
      13A    -19.915790    14A    -10.813721    15A     -7.086816
      16A     -7.036433    17A     -6.995963    18A     -4.985775
      19A     -4.984812    20A     -4.984000    21A     -4.935655
      22A     -4.934540    23A     -4.933313    24A     -4.895441
      25A     -4.893252    26A     -4.893022    27A     -0.903216
      28A     -0.849031    29A     -0.811598    30A     -0.780022
      31A     -0.758022    32A     -0.741718    33A     -0.717249
      34A     -0.696563    35A     -0.664684    36A     -0.658278
      37A     -0.468784    38A     -0.295333    39A     -0.239261
      40A     -0.189024    41A     -0.166912    42A     -0.150754
      43A     -0.126201    44A     -0.099036    45A     -0.083401
      46A     -0.066173    47A     -0.054666    48A     -0.045759
      49A     -0.035017    50A     -0.017701    51A     -0.007868
      52A      0.000128    53A      0.009579    54A      0.013974
      55A      0.021543    56A      0.036374    57A      0.045561
      58A      0.052984    59A      0.067511    60A      0.071451
      61A      0.092099    62A      0.097988    63A      0.100105
      64A      0.103803    65A      0.116182    66A      0.127990
      67A      0.143700    68A      0.150528    69A      0.172116

  @DF-RHF Final Energy: -1810.69090820698102

   => Energetics <=

    Nuclear Repulsion Energy =           1463.3367659539001124
    One-Electron Energy =               -5502.1939293062623619
    Two-Electron Energy =                2228.1662551453814558
    Total Energy =                      -1810.6909082069810211
  Basis Set: (AUG-CC-PVTZ AUX)
    Blend: AUG-CC-PVTZ-RI
    Molecular point group: c1

    Geometry (in Angstrom), charge = -4, multiplicity = 1:

       Center              X                  Y                   Z               Mass
    ------------   -----------------  -----------------  -----------------  -----------------
         P            2.602099913294     0.111394973105    -0.338922569781    30.973761998420
         P           -0.164114086706    -1.114809026895     0.309780430219    30.973761998420
         P           -2.689620086706     0.504251973105    -0.183713569781    30.973761998420
         O            1.972686913294     1.635622973105    -0.167276569781    15.994914619570
         O            1.270172913294    -0.849439026895    -0.528023569781    15.994914619570
         O            3.287160913294     0.121579973105    -1.680864569781    15.994914619570
         O            3.348163913294    -0.264639026895     0.919263430219    15.994914619570
         O           -0.980976786706     0.130340973105    -0.209610869781    15.994914619570
         O            0.112515913294    -1.051032026895     1.799193430219    15.994914619570
         O           -0.695831086706    -2.401755026895    -0.283406569781    15.994914619570
         O           -3.213538086706    -0.239736026895     1.058399430219    15.994914619570
         O           -2.747249586706     2.036385973105    -0.079008069781    15.994914619570
         O           -3.192160086706    -0.046429026895    -1.530381569781    15.994914619570
         C            1.440898913294     1.996939973105     1.122283430219    12.000000000000
         H            1.036175913294     1.130462973105     1.644862430219     1.007825032230
         H            2.221946913294     2.467999973105     1.727313430219     1.007825032230
         H            0.635297913294     2.710694973105     0.943474430219     1.007825032230

  Basis Set: AUG-CC-PVTZ
    Blend: AUG-CC-PVTZ
  Basis Set: (AUG-CC-PVTZ AUX)
    Blend: AUG-CC-PVTZ-JKFIT
	 Reference Energy          =   -1810.6909082069810211 [Eh]
	 Singles Energy            =      -0.0000000000000000 [Eh]
	 Same-Spin Energy          =      -0.9123272759103223 [Eh]
	 Opposite-Spin Energy      =      -2.5240300831071392 [Eh]
	 Correlation Energy        =      -3.4363573590174612 [Eh]
	 Total Energy              =   -1814.1272655659984139 [Eh]

	 ================> DF-SCS-MP2 Energies <==================
	-----------------------------------------------------------
	 SCS Same-Spin Scale       =       0.3333333333333333 [-]
	 SCS Opposite-Spin Scale   =       1.2000000000000000 [-]
	 SCS Same-Spin Energy      =      -0.3041090919701074 [Eh]
	 SCS Opposite-Spin Energy  =      -3.0288360997285668 [Eh]
	 SCS Correlation Energy    =      -3.3329451916986743 [Eh]
	 SCS Total Energy          =   -1814.0238533986796483 [Eh]
	-----------------------------------------------------------

  Dipole Moment: [D]
     X:     9.2749      Y:     2.5712      Z:     1.5845     Total:     9.7543

*** Psi4 exiting successfully. Buy a developer a beer!
