                               Psi4 1.3.2 release

  ==> Input File <==

--------------------------------------------------------------------------
#psi4
#
memory 32 gb

molecule  {
-4 1
  P        2.5828670     0.0826120    -0.3559070
  P       -0.1833470    -1.1435920     0.2927960
  P       -2.7088530     0.4754690    -0.2006980
  O        1.9534540     1.6068400    -0.1842610
  O        1.2531218    -0.8659486    -0.5372568
  O        3.2679280     0.0927970    -1.6978490
  O        3.3289310    -0.2934220     0.9022790
  O       -0.9881700     0.1612780    -0.2225170
  O        0.0932830    -1.0798150     1.7822090
  O       -0.7255010    -2.4298767    -0.2923233
  O       -3.2327710    -0.2685190     1.0414150
  O       -2.7128520     2.0086770    -0.0959300
  O       -3.2113930    -0.0752120    -1.5473660
  C        1.4216660     1.9681570     1.1052990
  H        1.0169430     1.1016800     1.6278780
  H        2.2027140     2.4392170     1.7103290
  H        0.6160650     2.6819120     0.9264900
units angstrom
no_reorient  #important for SAPT in psi4, default
symmetry c1  #important for SAPT in psi4, default
}

set PROPERTIES_ORIGIN ["COM"]
properties('MP2/aug-cc-pvtz', properties = ['dipole'])
--------------------------------------------------------------------------

    Molecular point group: c1
  Charge       = -4
  Multiplicity = 1
  Basis Set: AUG-CC-PVTZ
    Blend: AUG-CC-PVTZ
  Basis Set: (AUG-CC-PVTZ AUX)
    Blend: AUG-CC-PVTZ-JKFIT

    Orbital Energies [Eh]
    ---------------------

    Doubly Occupied:

       1A    -79.571847     2A    -79.527636     3A    -79.479714
       4A    -20.084685     5A    -20.038814     6A    -20.002432
       7A    -20.002171     8A    -19.992786     9A    -19.949558
      10A    -19.946433    11A    -19.923788    12A    -19.919132
      13A    -19.917165    14A    -10.811201    15A     -7.085767
      16A     -7.040515    17A     -6.993218    18A     -4.984739
      19A     -4.983787    20A     -4.982954    21A     -4.939804
      22A     -4.938394    23A     -4.937475    24A     -4.892679
      25A     -4.890493    26A     -4.890345    27A     -0.902146
      28A     -0.846654    29A     -0.806626    30A     -0.778349
      31A     -0.757292    32A     -0.742703    33A     -0.713491
      34A     -0.699842    35A     -0.663315    36A     -0.658911
      37A     -0.466294    38A     -0.296169    39A     -0.234283
      40A     -0.184091    41A     -0.163788    42A     -0.148384
      43A     -0.126014    44A     -0.099082    45A     -0.083682
      46A     -0.065415    47A     -0.051788    48A     -0.044175
      49A     -0.031566    50A     -0.016526    51A     -0.006829
      52A      0.000346    53A      0.009866    54A      0.014562
      55A      0.021458    56A      0.037721    57A      0.047468
      58A      0.053900    59A      0.066795    60A      0.070973
      61A      0.090423    62A      0.100581    63A      0.102425
      64A      0.104039    65A      0.113706    66A      0.125188
      67A      0.144657    68A      0.150600    69A      0.172198

  @DF-RHF Final Energy: -1810.68982543335346

   => Energetics <=

    Nuclear Repulsion Energy =           1463.3458559911812245
    One-Electron Energy =               -5502.2952816943916332
    Two-Electron Energy =                2228.2596002698569464
    Total Energy =                      -1810.6898254333532350
  Basis Set: (AUG-CC-PVTZ AUX)
    Blend: AUG-CC-PVTZ-RI
    Molecular point group: c1

    Geometry (in Angstrom), charge = -4, multiplicity = 1:

       Center              X                  Y                   Z               Mass
    ------------   -----------------  -----------------  -----------------  -----------------
         P            2.598671884519     0.106992916061    -0.340114286683    30.973761998420
         P           -0.167542115481    -1.119211083939     0.308588713317    30.973761998420
         P           -2.693048115481     0.499849916061    -0.184905286683    30.973761998420
         O            1.969258884519     1.631220916061    -0.168468286683    15.994914619570
         O            1.268926684519    -0.841567683939    -0.521464086683    15.994914619570
         O            3.283732884519     0.117177916061    -1.682056286683    15.994914619570
         O            3.344735884519    -0.269041083939     0.918071713317    15.994914619570
         O           -0.972365115481     0.185658916061    -0.206724286683    15.994914619570
         O            0.109087884519    -1.055434083939     1.798001713317    15.994914619570
         O           -0.709696115481    -2.405495783939    -0.276530586683    15.994914619570
         O           -3.216966115481    -0.244138083939     1.057207713317    15.994914619570
         O           -2.697047115481     2.033057916061    -0.080137286683    15.994914619570
         O           -3.195588115481    -0.050831083939    -1.531573286683    15.994914619570
         C            1.437470884519     1.992537916061     1.121091713317    12.000000000000
         H            1.032747884519     1.126060916061     1.643670713317     1.007825032230
         H            2.218518884519     2.463597916061     1.726121713317     1.007825032230
         H            0.631869884519     2.706292916061     0.942282713317     1.007825032230

  Basis Set: AUG-CC-PVTZ
    Blend: AUG-CC-PVTZ
  Basis Set: (AUG-CC-PVTZ AUX)
    Blend: AUG-CC-PVTZ-JKFIT
	 Reference Energy          =   -1810.6898254333534624 [Eh]
	 Singles Energy            =      -0.0000000000000000 [Eh]
	 Same-Spin Energy          =      -0.9128845127989179 [Eh]
	 Opposite-Spin Energy      =      -2.5254100424512504 [Eh]
	 Correlation Energy        =      -3.4382945552501685 [Eh]
	 Total Energy              =   -1814.1281199886036575 [Eh]

	 ================> DF-SCS-MP2 Energies <==================
	-----------------------------------------------------------
	 SCS Same-Spin Scale       =       0.3333333333333333 [-]
	 SCS Opposite-Spin Scale   =       1.2000000000000000 [-]
	 SCS Same-Spin Energy      =      -0.3042948375996393 [Eh]
	 SCS Opposite-Spin Energy  =      -3.0304920509415005 [Eh]
	 SCS Correlation Energy    =      -3.3347868885411396 [Eh]
	 SCS Total Energy          =   -1814.0246123218946650 [Eh]
	-----------------------------------------------------------

  Dipole Moment: [D]
     X:     9.2406      Y:     2.2912      Z:     1.5761     Total:     9.6500

*** Psi4 exiting successfully. Buy a developer a beer!
