                               Psi4 1.3.2 release

  ==> Input File <==

--------------------------------------------------------------------------
#psi4
#
memory 32 gb

molecule  {
-4 1
  P        2.5828670     0.0826120    -0.3559070
  P       -0.1833470    -1.1435920     0.2927960
  P       -2.7088530     0.4754690    -0.2006980
  O        1.9534540     1.6068400    -0.1842610
  O        1.2509400    -0.8782220    -0.5450080
  O        3.2679280     0.0927970    -1.6978490
  O        3.3289310    -0.2934220     0.9022790
  O       -0.9881700     0.1612780    -0.2225170
  O        0.0932830    -1.0798150     1.7822090
  O       -0.7150640    -2.4305380    -0.3003910
  O       -3.2257857    -0.2601684     1.0492904
  O       -2.7128520     2.0086770    -0.0959300
  O       -3.2042928    -0.0657971    -1.5537986
  C        1.4216660     1.9681570     1.1052990
  H        1.0169430     1.1016800     1.6278780
  H        2.2027140     2.4392170     1.7103290
  H        0.6160650     2.6819120     0.9264900
units angstrom
no_reorient  #important for SAPT in psi4, default
symmetry c1  #important for SAPT in psi4, default
}

set PROPERTIES_ORIGIN ["COM"]
properties('MP2/aug-cc-pvtz', properties = ['dipole'])
--------------------------------------------------------------------------

    Molecular point group: c1
  Charge       = -4
  Multiplicity = 1
  Basis Set: AUG-CC-PVTZ
    Blend: AUG-CC-PVTZ
  Basis Set: (AUG-CC-PVTZ AUX)
    Blend: AUG-CC-PVTZ-JKFIT

    Orbital Energies [Eh]
    ---------------------

    Doubly Occupied:

       1A    -79.572400     2A    -79.526736     3A    -79.479882
       4A    -20.085446     5A    -20.038126     6A    -20.002696
       7A    -20.002406     8A    -19.992423     9A    -19.949910
      10A    -19.945297    11A    -19.922807    12A    -19.920004
      13A    -19.918185    14A    -10.811465    15A     -7.086221
      16A     -7.039672    17A     -6.993390    18A     -4.985171
      19A     -4.984227    20A     -4.983409    21A     -4.938951
      22A     -4.937557    23A     -4.936634    24A     -4.892859
      25A     -4.890690    26A     -4.890485    27A     -0.901736
      28A     -0.845456    29A     -0.806445    30A     -0.777884
      31A     -0.757470    32A     -0.741985    33A     -0.713296
      34A     -0.699567    35A     -0.662636    36A     -0.660290
      37A     -0.466586    38A     -0.293629    39A     -0.234366
      40A     -0.183810    41A     -0.163772    42A     -0.148565
      43A     -0.125840    44A     -0.098849    45A     -0.082694
      46A     -0.064976    47A     -0.051733    48A     -0.043880
      49A     -0.031732    50A     -0.015951    51A     -0.006519
      52A     -0.000013    53A      0.009924    54A      0.014962
      55A      0.021642    56A      0.037522    57A      0.047516
      58A      0.053660    59A      0.067118    60A      0.071038
      61A      0.091199    62A      0.100234    63A      0.102795
      64A      0.103705    65A      0.113949    66A      0.125287
      67A      0.144865    68A      0.149986    69A      0.171753

  @DF-RHF Final Energy: -1810.68889279364635

   => Energetics <=

    Nuclear Repulsion Energy =           1463.0368974036537111
    One-Electron Energy =               -5501.6924284577771687
    Two-Electron Energy =                2227.9666382604768842
    Total Energy =                      -1810.6888927936465734
  Basis Set: (AUG-CC-PVTZ AUX)
    Blend: AUG-CC-PVTZ-RI
    Molecular point group: c1

    Geometry (in Angstrom), charge = -4, multiplicity = 1:

       Center              X                  Y                   Z               Mass
    ------------   -----------------  -----------------  -----------------  -----------------
         P            2.597338007267     0.106704487577    -0.339255945057    30.973761998420
         P           -0.168875992733    -1.119499512423     0.309447054943    30.973761998420
         P           -2.694381992733     0.499561487577    -0.184046945057    30.973761998420
         O            1.967925007267     1.630932487577    -0.167609945057    15.994914619570
         O            1.265411007267    -0.854129512423    -0.528356945057    15.994914619570
         O            3.282399007267     0.116889487577    -1.681197945057    15.994914619570
         O            3.343402007267    -0.269329512423     0.918930054943    15.994914619570
         O           -0.973698992733     0.185370487577    -0.205865945057    15.994914619570
         O            0.107754007267    -1.055722512423     1.798860054943    15.994914619570
         O           -0.700592992733    -2.406445512423    -0.283739945057    15.994914619570
         O           -3.211314692733    -0.236075912423     1.065941454943    15.994914619570
         O           -2.698380992733     2.032769487577    -0.079278945057    15.994914619570
         O           -3.189821792733    -0.041704612423    -1.537147545057    15.994914619570
         C            1.436137007267     1.992249487577     1.121950054943    12.000000000000
         H            1.031414007267     1.125772487577     1.644529054943     1.007825032230
         H            2.217185007267     2.463309487577     1.726980054943     1.007825032230
         H            0.630536007267     2.706004487577     0.943141054943     1.007825032230

  Basis Set: AUG-CC-PVTZ
    Blend: AUG-CC-PVTZ
  Basis Set: (AUG-CC-PVTZ AUX)
    Blend: AUG-CC-PVTZ-JKFIT
	 Reference Energy          =   -1810.6888927936463460 [Eh]
	 Singles Energy            =      -0.0000000000000000 [Eh]
	 Same-Spin Energy          =      -0.9130239711281520 [Eh]
	 Opposite-Spin Energy      =      -2.5257950856896998 [Eh]
	 Correlation Energy        =      -3.4388190568178518 [Eh]
	 Total Energy              =   -1814.1277118504642658 [Eh]

	 ================> DF-SCS-MP2 Energies <==================
	-----------------------------------------------------------
	 SCS Same-Spin Scale       =       0.3333333333333333 [-]
	 SCS Opposite-Spin Scale   =       1.2000000000000000 [-]
	 SCS Same-Spin Energy      =      -0.3043413237093840 [Eh]
	 SCS Opposite-Spin Energy  =      -3.0309541028276397 [Eh]
	 SCS Correlation Energy    =      -3.3352954265370238 [Eh]
	 SCS Total Energy          =   -1814.0241882201833050 [Eh]
	-----------------------------------------------------------

  Dipole Moment: [D]
     X:     9.2165      Y:     2.2942      Z:     1.6042     Total:     9.6322

*** Psi4 exiting successfully. Buy a developer a beer!
