                               Psi4 1.3.2 release

  ==> Input File <==

--------------------------------------------------------------------------
#psi4
#
memory 32 gb

molecule  {
-4 1
  P        2.5828670     0.0826120    -0.3559070
  P       -0.1833470    -1.1435920     0.2927960
  P       -2.7088530     0.4754690    -0.2006980
  O        1.9534540     1.6068400    -0.1842610
  O        1.2509400    -0.8782220    -0.5450080
  O        3.2679280     0.0927970    -1.6978490
  O        3.3289310    -0.2934220     0.9022790
  O       -0.9881700     0.1612780    -0.2225170
  O        0.0932830    -1.0798150     1.7822090
  O       -0.7150640    -2.4305380    -0.3003910
  O       -3.3008230    -0.3651560     1.2027538
  O       -2.7128520     2.0086770    -0.0959300
  O       -3.2113930    -0.0752120    -1.5473660
  C        1.4216660     1.9681570     1.1052990
  H        1.0169430     1.1016800     1.6278780
  H        2.2027140     2.4392170     1.7103290
  H        0.6160650     2.6819120     0.9264900
units angstrom
no_reorient  #important for SAPT in psi4, default
symmetry c1  #important for SAPT in psi4, default
}

set PROPERTIES_ORIGIN ["COM"]
properties('MP2/aug-cc-pvtz', properties = ['dipole'])
--------------------------------------------------------------------------

    Molecular point group: c1
  Charge       = -4
  Multiplicity = 1
  Basis Set: AUG-CC-PVTZ
    Blend: AUG-CC-PVTZ
  Basis Set: (AUG-CC-PVTZ AUX)
    Blend: AUG-CC-PVTZ-JKFIT

    Orbital Energies [Eh]
    ---------------------

    Doubly Occupied:

       1A    -79.575154     2A    -79.531137     3A    -79.509009
       4A    -20.088525     5A    -20.041876     6A    -20.006380
       7A    -20.004969     8A    -20.004951     9A    -19.951442
      10A    -19.947790    11A    -19.940591    12A    -19.936283
      13A    -19.927544    14A    -10.814375    15A     -7.088990
      16A     -7.044085    17A     -7.019135    18A     -4.987943
      19A     -4.986997    20A     -4.986161    21A     -4.943336
      22A     -4.942040    23A     -4.940964    24A     -4.918577
      25A     -4.916441    26A     -4.915716    27A     -0.904897
      28A     -0.849944    29A     -0.811183    30A     -0.781331
      31A     -0.759859    32A     -0.743357    33A     -0.718333
      34A     -0.701632    35A     -0.677240    36A     -0.613685
      37A     -0.469572    38A     -0.298112    39A     -0.240468
      40A     -0.191047    41A     -0.167649    42A     -0.151852
      43A     -0.129502    44A     -0.105230    45A     -0.086507
      46A     -0.068778    47A     -0.055774    48A     -0.047739
      49A     -0.036473    50A     -0.019977    51A     -0.009354
      52A     -0.001604    53A      0.007325    54A      0.012379
      55A      0.025004    56A      0.034637    57A      0.042775
      58A      0.051215    59A      0.065001    60A      0.068362
      61A      0.085739    62A      0.094173    63A      0.101845
      64A      0.112483    65A      0.122060    66A      0.123219
      67A      0.136374    68A      0.159400    69A      0.169512

  @DF-RHF Final Energy: -1810.65433778203669

   => Energetics <=

    Nuclear Repulsion Energy =           1454.4200933254314805
    One-Electron Energy =               -5483.7488452987854544
    Two-Electron Energy =                2218.6744141913172825
    Total Energy =                      -1810.6543377820366914
  Basis Set: (AUG-CC-PVTZ AUX)
    Blend: AUG-CC-PVTZ-RI
    Molecular point group: c1

    Geometry (in Angstrom), charge = -4, multiplicity = 1:

       Center              X                  Y                   Z               Mass
    ------------   -----------------  -----------------  -----------------  -----------------
         P            2.602242121410     0.113535020747    -0.348802720099    30.973761998420
         P           -0.163971878590    -1.112668979253     0.299900279901    30.973761998420
         P           -2.689477878590     0.506392020747    -0.193593720099    30.973761998420
         O            1.972829121410     1.637763020747    -0.177156720099    15.994914619570
         O            1.270315121410    -0.847298979253    -0.537903720099    15.994914619570
         O            3.287303121410     0.123720020747    -1.690744720099    15.994914619570
         O            3.348306121410    -0.262498979253     0.909383279901    15.994914619570
         O           -0.968794878590     0.192201020747    -0.215412720099    15.994914619570
         O            0.112658121410    -1.048891979253     1.789313279901    15.994914619570
         O           -0.695688878590    -2.399614979253    -0.293286720099    15.994914619570
         O           -3.281447878590    -0.334232979253     1.209858079901    15.994914619570
         O           -2.693476878590     2.039600020747    -0.088825720099    15.994914619570
         O           -3.192017878590    -0.044288979253    -1.540261720099    15.994914619570
         C            1.441041121410     1.999080020747     1.112403279901    12.000000000000
         H            1.036318121410     1.132603020747     1.634982279901     1.007825032230
         H            2.222089121410     2.470140020747     1.717433279901     1.007825032230
         H            0.635440121410     2.712835020747     0.933594279901     1.007825032230

  Basis Set: AUG-CC-PVTZ
    Blend: AUG-CC-PVTZ
  Basis Set: (AUG-CC-PVTZ AUX)
    Blend: AUG-CC-PVTZ-JKFIT
	 Reference Energy          =   -1810.6543377820366914 [Eh]
	 Singles Energy            =      -0.0000000000000000 [Eh]
	 Same-Spin Energy          =      -0.9164220324356371 [Eh]
	 Opposite-Spin Energy      =      -2.5352183531899346 [Eh]
	 Correlation Energy        =      -3.4516403856255717 [Eh]
	 Total Energy              =   -1814.1059781676622151 [Eh]

	 ================> DF-SCS-MP2 Energies <==================
	-----------------------------------------------------------
	 SCS Same-Spin Scale       =       0.3333333333333333 [-]
	 SCS Opposite-Spin Scale   =       1.2000000000000000 [-]
	 SCS Same-Spin Energy      =      -0.3054740108118790 [Eh]
	 SCS Opposite-Spin Energy  =      -3.0422620238279214 [Eh]
	 SCS Correlation Energy    =      -3.3477360346398006 [Eh]
	 SCS Total Energy          =   -1814.0020738166765568 [Eh]
	-----------------------------------------------------------

  Dipole Moment: [D]
     X:    10.0492      Y:     2.8997      Z:     0.4844     Total:    10.4704

*** Psi4 exiting successfully. Buy a developer a beer!
