                               Psi4 1.3.2 release

  ==> Input File <==

--------------------------------------------------------------------------
#psi4
#
memory 32 gb

molecule  {
-4 1
  P        2.5828670     0.0826120    -0.3559070
  P       -0.1833470    -1.1435920     0.2927960
  P       -2.7088530     0.4754690    -0.2006980
  O        1.9534540     1.6068400    -0.1842610
  O        1.2619753    -0.9028236    -0.5333941
  O        3.2679280     0.0927970    -1.6978490
  O        3.3289310    -0.2934220     0.9022790
  O       -1.0103879     0.1534021    -0.2069868
  O        0.0932830    -1.0798150     1.7822090
  O       -0.7150640    -2.4305380    -0.3003910
  O       -3.2327710    -0.2685190     1.0414150
  O       -2.7128520     2.0086770    -0.0959300
  O       -3.2113930    -0.0752120    -1.5473660
  C        1.4216660     1.9681570     1.1052990
  H        1.0169430     1.1016800     1.6278780
  H        2.2027140     2.4392170     1.7103290
  H        0.6160650     2.6819120     0.9264900
units angstrom
no_reorient  #important for SAPT in psi4, default
symmetry c1  #important for SAPT in psi4, default
}

set PROPERTIES_ORIGIN ["COM"]
properties('MP2/aug-cc-pvtz', properties = ['dipole'])
--------------------------------------------------------------------------

    Molecular point group: c1
  Charge       = -4
  Multiplicity = 1
  Basis Set: AUG-CC-PVTZ
    Blend: AUG-CC-PVTZ
  Basis Set: (AUG-CC-PVTZ AUX)
    Blend: AUG-CC-PVTZ-JKFIT

    Orbital Energies [Eh]
    ---------------------

    Doubly Occupied:

       1A    -79.574075     2A    -79.528159     3A    -79.478233
       4A    -20.088046     5A    -20.040679     6A    -20.003929
       7A    -20.002920     8A    -19.994295     9A    -19.949465
      10A    -19.944501    11A    -19.923052    12A    -19.918091
      13A    -19.914944    14A    -10.812945    15A     -7.087870
      16A     -7.040976    17A     -6.991864    18A     -4.986800
      19A     -4.985887    20A     -4.985030    21A     -4.940209
      22A     -4.938941    23A     -4.937915    24A     -4.891373
      25A     -4.889156    26A     -4.888997    27A     -0.903330
      28A     -0.847084    29A     -0.809007    30A     -0.780350
      31A     -0.758336    32A     -0.741580    33A     -0.713246
      34A     -0.699224    35A     -0.662512    36A     -0.657585
      37A     -0.468234    38A     -0.294517    39A     -0.237864
      40A     -0.188129    41A     -0.165995    42A     -0.150582
      43A     -0.125931    44A     -0.098301    45A     -0.083782
      46A     -0.064699    47A     -0.053091    48A     -0.045880
      49A     -0.033597    50A     -0.017456    51A     -0.007883
      52A     -0.000045    53A      0.008544    54A      0.014478
      55A      0.022808    56A      0.035524    57A      0.046863
      58A      0.053136    59A      0.067168    60A      0.070350
      61A      0.090895    62A      0.101270    63A      0.102589
      64A      0.104678    65A      0.114486    66A      0.125654
      67A      0.146011    68A      0.151838    69A      0.173375

  @DF-RHF Final Energy: -1810.68948357020122

   => Energetics <=

    Nuclear Repulsion Energy =           1462.8741052723314624
    One-Electron Energy =               -5501.2933246969123502
    Two-Electron Energy =                2227.7297358543792143
    Total Energy =                      -1810.6894835702014461
  Basis Set: (AUG-CC-PVTZ AUX)
    Blend: AUG-CC-PVTZ-RI
    Molecular point group: c1

    Geometry (in Angstrom), charge = -4, multiplicity = 1:

       Center              X                  Y                   Z               Mass
    ------------   -----------------  -----------------  -----------------  -----------------
         P            2.598846668312     0.109704303823    -0.340790470807    30.973761998420
         P           -0.167367331688    -1.116499696177     0.307912529193    30.973761998420
         P           -2.692873331688     0.502561303823    -0.185581470807    30.973761998420
         O            1.969433668312     1.633932303823    -0.169144470807    15.994914619570
         O            1.277954968312    -0.875731296177    -0.518277570807    15.994914619570
         O            3.283907668312     0.119889303823    -1.682732470807    15.994914619570
         O            3.344910668312    -0.266329696177     0.917395529193    15.994914619570
         O           -0.994408231688     0.180494403823    -0.191870270807    15.994914619570
         O            0.109262668312    -1.052722696177     1.797325529193    15.994914619570
         O           -0.699084331688    -2.403445696177    -0.285274470807    15.994914619570
         O           -3.216791331688    -0.241426696177     1.056531529193    15.994914619570
         O           -2.696872331688     2.035769303823    -0.080813470807    15.994914619570
         O           -3.195413331688    -0.048119696177    -1.532249470807    15.994914619570
         C            1.437645668312     1.995249303823     1.120415529193    12.000000000000
         H            1.032922668312     1.128772303823     1.642994529193     1.007825032230
         H            2.218693668312     2.466309303823     1.725445529193     1.007825032230
         H            0.632044668312     2.709004303823     0.941606529193     1.007825032230

  Basis Set: AUG-CC-PVTZ
    Blend: AUG-CC-PVTZ
  Basis Set: (AUG-CC-PVTZ AUX)
    Blend: AUG-CC-PVTZ-JKFIT
	 Reference Energy          =   -1810.6894835702012188 [Eh]
	 Singles Energy            =      -0.0000000000000000 [Eh]
	 Same-Spin Energy          =      -0.9127850088655985 [Eh]
	 Opposite-Spin Energy      =      -2.5251956021793500 [Eh]
	 Correlation Energy        =      -3.4379806110449485 [Eh]
	 Total Energy              =   -1814.1274641812460686 [Eh]

	 ================> DF-SCS-MP2 Energies <==================
	-----------------------------------------------------------
	 SCS Same-Spin Scale       =       0.3333333333333333 [-]
	 SCS Opposite-Spin Scale   =       1.2000000000000000 [-]
	 SCS Same-Spin Energy      =      -0.3042616696218662 [Eh]
	 SCS Opposite-Spin Energy  =      -3.0302347226152198 [Eh]
	 SCS Correlation Energy    =      -3.3344963922370860 [Eh]
	 SCS Total Energy          =   -1814.0239799624382613 [Eh]
	-----------------------------------------------------------

  Dipole Moment: [D]
     X:     9.4156      Y:     2.3727      Z:     1.5816     Total:     9.8379

*** Psi4 exiting successfully. Buy a developer a beer!
