                               Psi4 1.3.2 release

  ==> Input File <==

--------------------------------------------------------------------------
#psi4
#
memory 32 gb

molecule  {
-4 1
  P        2.5828670     0.0826120    -0.3559070
  P       -0.1833470    -1.1435920     0.2927960
  P       -2.7088530     0.4754690    -0.2006980
  O        1.9534540     1.6068400    -0.1842610
  O        1.2509400    -0.8782220    -0.5450080
  O        3.2679280     0.0927970    -1.6978490
  O        3.3289310    -0.2934220     0.9022790
  O       -1.0070112     0.0718643    -0.2286230
  O        0.0932830    -1.0798150     1.7822090
  O       -0.7150640    -2.4305380    -0.3003910
  O       -3.2327710    -0.2685190     1.0414150
  O       -2.7932755     2.0063659    -0.0960716
  O       -3.2113930    -0.0752120    -1.5473660
  C        1.4216660     1.9681570     1.1052990
  H        1.0169430     1.1016800     1.6278780
  H        2.2027140     2.4392170     1.7103290
  H        0.6160650     2.6819120     0.9264900
units angstrom
no_reorient  #important for SAPT in psi4, default
symmetry c1  #important for SAPT in psi4, default
}

set PROPERTIES_ORIGIN ["COM"]
properties('MP2/aug-cc-pvtz', properties = ['dipole'])
--------------------------------------------------------------------------

    Molecular point group: c1
  Charge       = -4
  Multiplicity = 1
  Basis Set: AUG-CC-PVTZ
    Blend: AUG-CC-PVTZ
  Basis Set: (AUG-CC-PVTZ AUX)
    Blend: AUG-CC-PVTZ-JKFIT

    Orbital Energies [Eh]
    ---------------------

    Doubly Occupied:

       1A    -79.573196     2A    -79.520589     3A    -79.484020
       4A    -20.088010     5A    -20.037684     6A    -20.003427
       7A    -20.003215     8A    -19.995423     9A    -19.947750
      10A    -19.937304    11A    -19.930682    12A    -19.917590
      13A    -19.915031    14A    -10.814735    15A     -7.087039
      16A     -7.034637    17A     -6.997295    18A     -4.986001
      19A     -4.985030    20A     -4.984221    21A     -4.933823
      22A     -4.932855    23A     -4.931463    24A     -4.896785
      25A     -4.894586    26A     -4.894317    27A     -0.903880
      28A     -0.851186    29A     -0.814088    30A     -0.780823
      31A     -0.758231    32A     -0.741849    33A     -0.718540
      34A     -0.694928    35A     -0.665195    36A     -0.657921
      37A     -0.469774    38A     -0.296186    39A     -0.241722
      40A     -0.191372    41A     -0.168236    42A     -0.151722
      43A     -0.126312    44A     -0.099167    45A     -0.083703
      46A     -0.066946    47A     -0.056173    48A     -0.046533
      49A     -0.036592    50A     -0.018247    51A     -0.008478
      52A      0.000073    53A      0.009500    54A      0.013589
      55A      0.021409    56A      0.035970    57A      0.044916
      58A      0.052734    59A      0.067613    60A      0.071904
      61A      0.091902    62A      0.096329    63A      0.100081
      64A      0.103984    65A      0.117446    66A      0.129392
      67A      0.143594    68A      0.150634    69A      0.172171

  @DF-RHF Final Energy: -1810.69025180179824

   => Energetics <=

    Nuclear Repulsion Energy =           1463.5432683315032136
    One-Electron Energy =               -5502.5644978776535936
    Two-Electron Energy =                2228.3309777443523672
    Total Energy =                      -1810.6902518017982402
  Basis Set: (AUG-CC-PVTZ AUX)
    Blend: AUG-CC-PVTZ-RI
    Molecular point group: c1

    Geometry (in Angstrom), charge = -4, multiplicity = 1:

       Center              X                  Y                   Z               Mass
    ------------   -----------------  -----------------  -----------------  -----------------
         P            2.604105711652     0.113241732183    -0.338796780858    30.973761998420
         P           -0.162108288348    -1.112962267817     0.309906219142    30.973761998420
         P           -2.687614288348     0.506098732183    -0.183587780858    30.973761998420
         O            1.974692711652     1.637469732183    -0.167150780858    15.994914619570
         O            1.272178711652    -0.847592267817    -0.527897780858    15.994914619570
         O            3.289166711652     0.123426732183    -1.680738780858    15.994914619570
         O            3.350169711652    -0.262792267817     0.919389219142    15.994914619570
         O           -0.985772488348     0.102494032183    -0.211512780858    15.994914619570
         O            0.114521711652    -1.049185267817     1.799319219142    15.994914619570
         O           -0.693825288348    -2.399908267817    -0.283280780858    15.994914619570
         O           -3.211532288348    -0.237889267817     1.058525219142    15.994914619570
         O           -2.772036788348     2.036995632183    -0.078961380858    15.994914619570
         O           -3.190154288348    -0.044582267817    -1.530255780858    15.994914619570
         C            1.442904711652     1.998786732183     1.122409219142    12.000000000000
         H            1.038181711652     1.132309732183     1.644988219142     1.007825032230
         H            2.223952711652     2.469846732183     1.727439219142     1.007825032230
         H            0.637303711652     2.712541732183     0.943600219142     1.007825032230

  Basis Set: AUG-CC-PVTZ
    Blend: AUG-CC-PVTZ
  Basis Set: (AUG-CC-PVTZ AUX)
    Blend: AUG-CC-PVTZ-JKFIT
	 Reference Energy          =   -1810.6902518017982402 [Eh]
	 Singles Energy            =      -0.0000000000000000 [Eh]
	 Same-Spin Energy          =      -0.9120614468076241 [Eh]
	 Opposite-Spin Energy      =      -2.5233188495314680 [Eh]
	 Correlation Energy        =      -3.4353802963390923 [Eh]
	 Total Energy              =   -1814.1256320981374301 [Eh]

	 ================> DF-SCS-MP2 Energies <==================
	-----------------------------------------------------------
	 SCS Same-Spin Scale       =       0.3333333333333333 [-]
	 SCS Opposite-Spin Scale   =       1.2000000000000000 [-]
	 SCS Same-Spin Energy      =      -0.3040204822692080 [Eh]
	 SCS Opposite-Spin Energy  =      -3.0279826194377617 [Eh]
	 SCS Correlation Energy    =      -3.3320031017069698 [Eh]
	 SCS Total Energy          =   -1814.0222549035051998 [Eh]
	-----------------------------------------------------------

  Dipole Moment: [D]
     X:     9.2831      Y:     2.6893      Z:     1.5727     Total:     9.7919

*** Psi4 exiting successfully. Buy a developer a beer!
