                               Psi4 1.3.2 release

  ==> Input File <==

--------------------------------------------------------------------------
#psi4
#
memory 32 gb

molecule  {
-4 1
  P        2.5828670     0.0826120    -0.3559070
  P       -0.1833470    -1.1435920     0.2927960
  P       -2.7088530     0.4754690    -0.2006980
  O        1.9534540     1.6068400    -0.1842610
  O        1.2509400    -0.8782220    -0.5450080
  O        3.2679280     0.0927970    -1.6978490
  O        3.3289310    -0.2934220     0.9022790
  O       -0.9881700     0.1612780    -0.2225170
  O        0.0932830    -1.0798150     1.7822090
  O       -0.7150640    -2.4305380    -0.3003910
  O       -3.2327710    -0.2685190     1.0414150
  O       -2.6838790     2.0015358    -0.0212113
  O       -3.1984520    -0.1496526    -1.5193437
  C        1.4216660     1.9681570     1.1052990
  H        1.0169430     1.1016800     1.6278780
  H        2.2027140     2.4392170     1.7103290
  H        0.6160650     2.6819120     0.9264900
units angstrom
no_reorient  #important for SAPT in psi4, default
symmetry c1  #important for SAPT in psi4, default
}

set PROPERTIES_ORIGIN ["COM"]
properties('MP2/aug-cc-pvtz', properties = ['dipole'])
--------------------------------------------------------------------------

    Molecular point group: c1
  Charge       = -4
  Multiplicity = 1
  Basis Set: AUG-CC-PVTZ
    Blend: AUG-CC-PVTZ
  Basis Set: (AUG-CC-PVTZ AUX)
    Blend: AUG-CC-PVTZ-JKFIT

    Orbital Energies [Eh]
    ---------------------

    Doubly Occupied:

       1A    -79.571612     2A    -79.524676     3A    -79.479888
       4A    -20.084757     5A    -20.036836     6A    -20.001935
       7A    -20.001856     8A    -19.989358     9A    -19.948060
      10A    -19.942917    11A    -19.928433    12A    -19.923783
      13A    -19.910565    14A    -10.810590    15A     -7.085433
      16A     -7.037596    17A     -6.993439    18A     -4.984383
      19A     -4.983435    20A     -4.982625    21A     -4.936885
      22A     -4.935475    23A     -4.934558    24A     -4.892937
      25A     -4.890772    26A     -4.890465    27A     -0.900946
      28A     -0.844063    29A     -0.805277    30A     -0.777092
      31A     -0.756804    32A     -0.740874    33A     -0.711737
      34A     -0.697386    35A     -0.669455    36A     -0.654367
      37A     -0.465738    38A     -0.292356    39A     -0.233234
      40A     -0.182816    41A     -0.162902    42A     -0.147784
      43A     -0.124885    44A     -0.097426    45A     -0.081684
      46A     -0.064151    47A     -0.050627    48A     -0.042717
      49A     -0.030466    50A     -0.015352    51A     -0.005710
      52A      0.000543    53A      0.010057    54A      0.015282
      55A      0.023827    56A      0.038369    57A      0.047835
      58A      0.054460    59A      0.068316    60A      0.072640
      61A      0.092496    62A      0.098756    63A      0.102084
      64A      0.106846    65A      0.115329    66A      0.126426
      67A      0.143541    68A      0.152498    69A      0.172698

  @DF-RHF Final Energy: -1810.68535691306624

   => Energetics <=

    Nuclear Repulsion Energy =           1464.0682999114196718
    One-Electron Energy =               -5503.8730763641779049
    Two-Electron Energy =                2229.1194195396919895
    Total Energy =                      -1810.6853569130662436
  Basis Set: (AUG-CC-PVTZ AUX)
    Blend: AUG-CC-PVTZ-RI
    Molecular point group: c1

    Geometry (in Angstrom), charge = -4, multiplicity = 1:

       Center              X                  Y                   Z               Mass
    ------------   -----------------  -----------------  -----------------  -----------------
         P            2.595676474587     0.112636132673    -0.345304070886    30.973761998420
         P           -0.170537525413    -1.113567867327     0.303398929114    30.973761998420
         P           -2.696043525413     0.505493132673    -0.190095070886    30.973761998420
         O            1.966263474587     1.636864132673    -0.173658070886    15.994914619570
         O            1.263749474587    -0.848197867327    -0.534405070886    15.994914619570
         O            3.280737474587     0.122821132673    -1.687246070886    15.994914619570
         O            3.341740474587    -0.263397867327     0.912881929114    15.994914619570
         O           -0.975360525413     0.191302132673    -0.211914070886    15.994914619570
         O            0.106092474587    -1.049790867327     1.792811929114    15.994914619570
         O           -0.702254525413    -2.400513867327    -0.289788070886    15.994914619570
         O           -3.219961525413    -0.238494867327     1.052017929114    15.994914619570
         O           -2.671069525413     2.031559932673    -0.010608370886    15.994914619570
         O           -3.185642525413    -0.119628467327    -1.508740770886    15.994914619570
         C            1.434475474587     1.998181132673     1.115901929114    12.000000000000
         H            1.029752474587     1.131704132673     1.638480929114     1.007825032230
         H            2.215523474587     2.469241132673     1.720931929114     1.007825032230
         H            0.628874474587     2.711936132673     0.937092929114     1.007825032230

  Basis Set: AUG-CC-PVTZ
    Blend: AUG-CC-PVTZ
  Basis Set: (AUG-CC-PVTZ AUX)
    Blend: AUG-CC-PVTZ-JKFIT
	 Reference Energy          =   -1810.6853569130662436 [Eh]
	 Singles Energy            =      -0.0000000000000000 [Eh]
	 Same-Spin Energy          =      -0.9132843834958175 [Eh]
	 Opposite-Spin Energy      =      -2.5262614568928141 [Eh]
	 Correlation Energy        =      -3.4395458403886314 [Eh]
	 Total Energy              =   -1814.1249027534547622 [Eh]

	 ================> DF-SCS-MP2 Energies <==================
	-----------------------------------------------------------
	 SCS Same-Spin Scale       =       0.3333333333333333 [-]
	 SCS Opposite-Spin Scale   =       1.2000000000000000 [-]
	 SCS Same-Spin Energy      =      -0.3044281278319392 [Eh]
	 SCS Opposite-Spin Energy  =      -3.0315137482713768 [Eh]
	 SCS Correlation Energy    =      -3.3359418761033162 [Eh]
	 SCS Total Energy          =   -1814.0212987891695775 [Eh]
	-----------------------------------------------------------

  Dipole Moment: [D]
     X:     9.1078      Y:     2.5649      Z:     1.3211     Total:     9.5538

*** Psi4 exiting successfully. Buy a developer a beer!
