                               Psi4 1.3.2 release

  ==> Input File <==

--------------------------------------------------------------------------
#psi4
#
memory 32 gb

molecule  {
-4 1
  P        2.5828670     0.0826120    -0.3559070
  P       -0.1833470    -1.1435920     0.2927960
  P       -2.7088530     0.4754690    -0.2006980
  O        1.9534540     1.6068400    -0.1842610
  O        1.2440011    -0.8736065    -0.5173847
  O        3.2864857     0.1086113    -1.6879976
  O        3.3289310    -0.2934220     0.9022790
  O       -0.9881700     0.1612780    -0.2225170
  O        0.0932830    -1.0798150     1.7822090
  O       -0.7150640    -2.4305380    -0.3003910
  O       -3.2327710    -0.2685190     1.0414150
  O       -2.7128520     2.0086770    -0.0959300
  O       -3.2113930    -0.0752120    -1.5473660
  C        1.4216660     1.9681570     1.1052990
  H        1.0169430     1.1016800     1.6278780
  H        2.2027140     2.4392170     1.7103290
  H        0.6160650     2.6819120     0.9264900
units angstrom
no_reorient  #important for SAPT in psi4, default
symmetry c1  #important for SAPT in psi4, default
}

set PROPERTIES_ORIGIN ["COM"]
properties('MP2/aug-cc-pvtz', properties = ['dipole'])
--------------------------------------------------------------------------

    Molecular point group: c1
  Charge       = -4
  Multiplicity = 1
  Basis Set: AUG-CC-PVTZ
    Blend: AUG-CC-PVTZ
  Basis Set: (AUG-CC-PVTZ AUX)
    Blend: AUG-CC-PVTZ-JKFIT

    Orbital Energies [Eh]
    ---------------------

    Doubly Occupied:

       1A    -79.574364     2A    -79.525567     3A    -79.479494
       4A    -20.085153     5A    -20.039656     6A    -20.005173
       7A    -20.001797     8A    -19.992259     9A    -19.947713
      10A    -19.944942    11A    -19.923624    12A    -19.919003
      13A    -19.917005    14A    -10.811207    15A     -7.088036
      16A     -7.038678    17A     -6.992998    18A     -4.987027
      19A     -4.986017    20A     -4.985238    21A     -4.938028
      22A     -4.936567    23A     -4.935624    24A     -4.892455
      25A     -4.890278    26A     -4.890129    27A     -0.902677
      28A     -0.848513    29A     -0.806638    30A     -0.779900
      31A     -0.757896    32A     -0.741628    33A     -0.712929
      34A     -0.698724    35A     -0.663163    36A     -0.658764
      37A     -0.466458    38A     -0.298647    39A     -0.234344
      40A     -0.184945    41A     -0.163992    42A     -0.148858
      43A     -0.126265    44A     -0.098816    45A     -0.084777
      46A     -0.065790    47A     -0.052471    48A     -0.043993
      49A     -0.031140    50A     -0.016709    51A     -0.007657
      52A      0.000075    53A      0.009482    54A      0.014275
      55A      0.021702    56A      0.036202    57A      0.047785
      58A      0.053741    59A      0.067288    60A      0.070341
      61A      0.091212    62A      0.100990    63A      0.102730
      64A      0.104366    65A      0.114893    66A      0.126226
      67A      0.144859    68A      0.150839    69A      0.172344

  @DF-RHF Final Energy: -1810.69004331606857

   => Energetics <=

    Nuclear Repulsion Energy =           1463.5330091707630800
    One-Electron Energy =               -5502.6573530205560019
    Two-Electron Energy =                2228.4343005337245813
    Total Energy =                      -1810.6900433160685679
  Basis Set: (AUG-CC-PVTZ AUX)
    Blend: AUG-CC-PVTZ-RI
    Molecular point group: c1

    Geometry (in Angstrom), charge = -4, multiplicity = 1:

       Center              X                  Y                   Z               Mass
    ------------   -----------------  -----------------  -----------------  -----------------
         P            2.597485284434     0.106545412474    -0.341407271192    30.973761998420
         P           -0.168728715566    -1.119658587526     0.307295728808    30.973761998420
         P           -2.694234715566     0.499402412474    -0.186198271192    30.973761998420
         O            1.968072284434     1.630773412474    -0.169761271192    15.994914619570
         O            1.258619384434    -0.849673087526    -0.502884971192    15.994914619570
         O            3.301103984434     0.132544712474    -1.673497871192    15.994914619570
         O            3.343549284434    -0.269488587526     0.916778728808    15.994914619570
         O           -0.973551715566     0.185211412474    -0.208017271192    15.994914619570
         O            0.107901284434    -1.055881587526     1.796708728808    15.994914619570
         O           -0.700445715566    -2.406604587526    -0.285891271192    15.994914619570
         O           -3.218152715566    -0.244585587526     1.055914728808    15.994914619570
         O           -2.698233715566     2.032610412474    -0.081430271192    15.994914619570
         O           -3.196774715566    -0.051278587526    -1.532866271192    15.994914619570
         C            1.436284284434     1.992090412474     1.119798728808    12.000000000000
         H            1.031561284434     1.125613412474     1.642377728808     1.007825032230
         H            2.217332284434     2.463150412474     1.724828728808     1.007825032230
         H            0.630683284434     2.705845412474     0.940989728808     1.007825032230

  Basis Set: AUG-CC-PVTZ
    Blend: AUG-CC-PVTZ
  Basis Set: (AUG-CC-PVTZ AUX)
    Blend: AUG-CC-PVTZ-JKFIT
	 Reference Energy          =   -1810.6900433160685679 [Eh]
	 Singles Energy            =      -0.0000000000000000 [Eh]
	 Same-Spin Energy          =      -0.9127579851318398 [Eh]
	 Opposite-Spin Energy      =      -2.5250625450816018 [Eh]
	 Correlation Energy        =      -3.4378205302134415 [Eh]
	 Total Energy              =   -1814.1278638462820254 [Eh]

	 ================> DF-SCS-MP2 Energies <==================
	-----------------------------------------------------------
	 SCS Same-Spin Scale       =       0.3333333333333333 [-]
	 SCS Opposite-Spin Scale   =       1.2000000000000000 [-]
	 SCS Same-Spin Energy      =      -0.3042526617106133 [Eh]
	 SCS Opposite-Spin Energy  =      -3.0300750540979222 [Eh]
	 SCS Correlation Energy    =      -3.3343277158085356 [Eh]
	 SCS Total Energy          =   -1814.0243710318770809 [Eh]
	-----------------------------------------------------------

  Dipole Moment: [D]
     X:     9.3201      Y:     2.3223      Z:     1.5042     Total:     9.7222

*** Psi4 exiting successfully. Buy a developer a beer!
