                               Psi4 1.3.2 release

  ==> Input File <==

--------------------------------------------------------------------------
#psi4
#
memory 32 gb

molecule  {
-4 1
  P        2.5828670     0.0826120    -0.3559070
  P       -0.1833470    -1.1435920     0.2927960
  P       -2.7088530     0.4754690    -0.2006980
  O        1.9534540     1.6068400    -0.1842610
  O        1.2509400    -0.8782220    -0.5450080
  O        3.2679280     0.0927970    -1.6978490
  O        3.3289310    -0.2934220     0.9022790
  O       -0.9881700     0.1612780    -0.2225170
  O        0.0932830    -1.0798150     1.7822090
  O       -0.7150640    -2.4305380    -0.3003910
  O       -3.2370761    -0.2448867     1.0534634
  O       -2.7229723     2.0067239    -0.0711678
  O       -3.2113930    -0.0752120    -1.5473660
  C        1.4216660     1.9681570     1.1052990
  H        1.0169430     1.1016800     1.6278780
  H        2.2027140     2.4392170     1.7103290
  H        0.6160650     2.6819120     0.9264900
units angstrom
no_reorient  #important for SAPT in psi4, default
symmetry c1  #important for SAPT in psi4, default
}

set PROPERTIES_ORIGIN ["COM"]
properties('MP2/aug-cc-pvtz', properties = ['dipole'])
--------------------------------------------------------------------------

    Molecular point group: c1
  Charge       = -4
  Multiplicity = 1
  Basis Set: AUG-CC-PVTZ
    Blend: AUG-CC-PVTZ
  Basis Set: (AUG-CC-PVTZ AUX)
    Blend: AUG-CC-PVTZ-JKFIT

    Orbital Energies [Eh]
    ---------------------

    Doubly Occupied:

       1A    -79.572811     2A    -79.527546     3A    -79.479831
       4A    -20.085828     5A    -20.038716     6A    -20.003043
       7A    -20.002794     8A    -19.994018     9A    -19.950447
      10A    -19.945955    11A    -19.922297    12A    -19.921423
      13A    -19.915711    14A    -10.811728    15A     -7.086634
      16A     -7.040475    17A     -6.993335    18A     -4.985584
      19A     -4.984640    20A     -4.983820    21A     -4.939752
      22A     -4.938368    23A     -4.937431    24A     -4.892778
      25A     -4.890657    26A     -4.890420    27A     -0.902157
      28A     -0.846084    29A     -0.807021    30A     -0.778306
      31A     -0.757836    32A     -0.742343    33A     -0.714021
      34A     -0.700162    35A     -0.663131    36A     -0.658542
      37A     -0.466877    38A     -0.294227    39A     -0.234978
      40A     -0.184414    41A     -0.164169    42A     -0.148917
      43A     -0.126224    44A     -0.099251    45A     -0.083159
      46A     -0.065207    47A     -0.052257    48A     -0.044304
      49A     -0.032298    50A     -0.016248    51A     -0.006917
      52A     -0.000273    53A      0.009629    54A      0.014621
      55A      0.022014    56A      0.037094    57A      0.046505
      58A      0.053288    59A      0.066694    60A      0.070631
      61A      0.090865    62A      0.099689    63A      0.102485
      64A      0.104472    65A      0.113463    66A      0.124744
      67A      0.145926    68A      0.149600    69A      0.172593

  @DF-RHF Final Energy: -1810.68909902451401

   => Energetics <=

    Nuclear Repulsion Energy =           1462.6448810521912947
    One-Electron Energy =               -5500.8658584650729608
    Two-Electron Energy =                2227.5318783883672040
    Total Energy =                      -1810.6890990245142348
  Basis Set: (AUG-CC-PVTZ AUX)
    Blend: AUG-CC-PVTZ-RI
    Molecular point group: c1

    Geometry (in Angstrom), charge = -4, multiplicity = 1:

       Center              X                  Y                   Z               Mass
    ------------   -----------------  -----------------  -----------------  -----------------
         P            2.599040283424     0.106470815606    -0.341367620335    30.973761998420
         P           -0.167173716576    -1.119733184394     0.307335379665    30.973761998420
         P           -2.692679716576     0.499327815606    -0.186158620335    30.973761998420
         O            1.969627283424     1.630698815606    -0.169721620335    15.994914619570
         O            1.267113283424    -0.854363184394    -0.530468620335    15.994914619570
         O            3.284101283424     0.116655815606    -1.683309620335    15.994914619570
         O            3.345104283424    -0.269563184394     0.916818379665    15.994914619570
         O           -0.971996716576     0.185136815606    -0.207977620335    15.994914619570
         O            0.109456283424    -1.055956184394     1.796748379665    15.994914619570
         O           -0.698890716576    -2.406679184394    -0.285851620335    15.994914619570
         O           -3.220902816576    -0.221027884394     1.068002779665    15.994914619570
         O           -2.706799016576     2.030582715606    -0.056628420335    15.994914619570
         O           -3.195219716576    -0.051353184394    -1.532826620335    15.994914619570
         C            1.437839283424     1.992015815606     1.119838379665    12.000000000000
         H            1.033116283424     1.125538815606     1.642417379665     1.007825032230
         H            2.218887283424     2.463075815606     1.724868379665     1.007825032230
         H            0.632238283424     2.705770815606     0.941029379665     1.007825032230

  Basis Set: AUG-CC-PVTZ
    Blend: AUG-CC-PVTZ
  Basis Set: (AUG-CC-PVTZ AUX)
    Blend: AUG-CC-PVTZ-JKFIT
	 Reference Energy          =   -1810.6890990245140074 [Eh]
	 Singles Energy            =      -0.0000000000000000 [Eh]
	 Same-Spin Energy          =      -0.9129676259494415 [Eh]
	 Opposite-Spin Energy      =      -2.5257005473768803 [Eh]
	 Correlation Energy        =      -3.4386681733263220 [Eh]
	 Total Energy              =   -1814.1277671978402850 [Eh]

	 ================> DF-SCS-MP2 Energies <==================
	-----------------------------------------------------------
	 SCS Same-Spin Scale       =       0.3333333333333333 [-]
	 SCS Opposite-Spin Scale   =       1.2000000000000000 [-]
	 SCS Same-Spin Energy      =      -0.3043225419831471 [Eh]
	 SCS Opposite-Spin Energy  =      -3.0308406568522561 [Eh]
	 SCS Correlation Energy    =      -3.3351631988354034 [Eh]
	 SCS Total Energy          =   -1814.0242622233495240 [Eh]
	-----------------------------------------------------------

  Dipole Moment: [D]
     X:     9.3036      Y:     2.2779      Z:     1.5127     Total:     9.6972

*** Psi4 exiting successfully. Buy a developer a beer!
