                               Psi4 1.3.2 release

  ==> Input File <==

--------------------------------------------------------------------------
#psi4
#
memory 32 gb

molecule  {
-4 1
  P        2.5828670     0.0826120    -0.3559070
  P       -0.1833470    -1.1435920     0.2927960
  P       -2.7088530     0.4754690    -0.2006980
  O        1.9534540     1.6068400    -0.1842610
  O        1.2509400    -0.8782220    -0.5450080
  O        3.2679280     0.0927970    -1.6978490
  O        3.3289310    -0.2934220     0.9022790
  O       -1.0865358     0.1792393    -0.2212697
  O        0.0932830    -1.0798150     1.7822090
  O       -0.7150640    -2.4305380    -0.3003910
  O       -3.2327710    -0.2685190     1.0414150
  O       -2.7128520     2.0086770    -0.0959300
  O       -3.2113930    -0.0752120    -1.5473660
  C        1.4216660     1.9681570     1.1052990
  H        1.0169430     1.1016800     1.6278780
  H        2.2027140     2.4392170     1.7103290
  H        0.6160650     2.6819120     0.9264900
units angstrom
no_reorient  #important for SAPT in psi4, default
symmetry c1  #important for SAPT in psi4, default
}

set PROPERTIES_ORIGIN ["COM"]
properties('MP2/aug-cc-pvtz', properties = ['dipole'])
--------------------------------------------------------------------------

    Molecular point group: c1
  Charge       = -4
  Multiplicity = 1
  Basis Set: AUG-CC-PVTZ
    Blend: AUG-CC-PVTZ
  Basis Set: (AUG-CC-PVTZ AUX)
    Blend: AUG-CC-PVTZ-JKFIT

    Orbital Energies [Eh]
    ---------------------

    Doubly Occupied:

       1A    -79.578557     2A    -79.542489     3A    -79.464489
       4A    -20.090309     5A    -20.050334     6A    -20.007983
       7A    -20.007435     8A    -19.994056     9A    -19.959467
      10A    -19.952099    11A    -19.912836    12A    -19.907944
      13A    -19.906286    14A    -10.815205    15A     -7.092422
      16A     -7.053987    17A     -6.979186    18A     -4.991367
      19A     -4.990447    20A     -4.989560    21A     -4.953168
      22A     -4.951894    23A     -4.950921    24A     -4.878805
      25A     -4.876559    26A     -4.876392    27A     -0.907337
      28A     -0.851224    29A     -0.811457    30A     -0.786867
      31A     -0.762628    32A     -0.747161    33A     -0.707294
      34A     -0.704594    35A     -0.653910    36A     -0.649490
      37A     -0.470644    38A     -0.302328    39A     -0.241646
      40A     -0.192170    41A     -0.168775    42A     -0.152997
      43A     -0.131223    44A     -0.100424    45A     -0.087443
      46A     -0.063918    47A     -0.055688    48A     -0.048093
      49A     -0.035779    50A     -0.020598    51A     -0.012471
      52A     -0.002891    53A      0.005896    54A      0.011232
      55A      0.027599    56A      0.033219    57A      0.048340
      58A      0.049403    59A      0.061387    60A      0.065708
      61A      0.085617    62A      0.100046    63A      0.109198
      64A      0.111429    65A      0.113733    66A      0.120902
      67A      0.155854    68A      0.161143    69A      0.181930

  @DF-RHF Final Energy: -1810.68368093743902

   => Energetics <=

    Nuclear Repulsion Energy =           1462.7391435161132449
    One-Electron Energy =               -5500.8444306603241785
    Two-Electron Energy =                2227.4216062067716848
    Total Energy =                      -1810.6836809374390214
  Basis Set: (AUG-CC-PVTZ AUX)
    Blend: AUG-CC-PVTZ-RI
    Molecular point group: c1

    Geometry (in Angstrom), charge = -4, multiplicity = 1:

       Center              X                  Y                   Z               Mass
    ------------   -----------------  -----------------  -----------------  -----------------
         P            2.604052041791     0.106692797113    -0.339244272504    30.973761998420
         P           -0.162161958209    -1.119511202887     0.309458727496    30.973761998420
         P           -2.687667958209     0.499549797113    -0.184035272504    30.973761998420
         O            1.974639041791     1.630920797113    -0.167598272504    15.994914619570
         O            1.272125041791    -0.854141202887    -0.528345272504    15.994914619570
         O            3.289113041791     0.116877797113    -1.681186272504    15.994914619570
         O            3.350116041791    -0.269341202887     0.918941727496    15.994914619570
         O           -1.065350758209     0.203320097113    -0.204606972504    15.994914619570
         O            0.114468041791    -1.055734202887     1.798871727496    15.994914619570
         O           -0.693878958209    -2.406457202887    -0.283728272504    15.994914619570
         O           -3.211585958209    -0.244438202887     1.058077727496    15.994914619570
         O           -2.691666958209     2.032757797113    -0.079267272504    15.994914619570
         O           -3.190207958209    -0.051131202887    -1.530703272504    15.994914619570
         C            1.442851041791     1.992237797113     1.121961727496    12.000000000000
         H            1.038128041791     1.125760797113     1.644540727496     1.007825032230
         H            2.223899041791     2.463297797113     1.726991727496     1.007825032230
         H            0.637250041791     2.705992797113     0.943152727496     1.007825032230

  Basis Set: AUG-CC-PVTZ
    Blend: AUG-CC-PVTZ
  Basis Set: (AUG-CC-PVTZ AUX)
    Blend: AUG-CC-PVTZ-JKFIT
	 Reference Energy          =   -1810.6836809374390214 [Eh]
	 Singles Energy            =      -0.0000000000000000 [Eh]
	 Same-Spin Energy          =      -0.9128909600174253 [Eh]
	 Opposite-Spin Energy      =      -2.5253662795187481 [Eh]
	 Correlation Energy        =      -3.4382572395361732 [Eh]
	 Total Energy              =   -1814.1219381769751635 [Eh]

	 ================> DF-SCS-MP2 Energies <==================
	-----------------------------------------------------------
	 SCS Same-Spin Scale       =       0.3333333333333333 [-]
	 SCS Opposite-Spin Scale   =       1.2000000000000000 [-]
	 SCS Same-Spin Energy      =      -0.3042969866724751 [Eh]
	 SCS Opposite-Spin Energy  =      -3.0304395354224978 [Eh]
	 SCS Correlation Energy    =      -3.3347365220949730 [Eh]
	 SCS Total Energy          =   -1814.0184174595340210 [Eh]
	-----------------------------------------------------------

  Dipole Moment: [D]
     X:    10.3674      Y:     1.9414      Z:     1.7572     Total:    10.6930

*** Psi4 exiting successfully. Buy a developer a beer!
