                               Psi4 1.3.2 release

  ==> Input File <==

--------------------------------------------------------------------------
#psi4
#
memory 32 gb

molecule  {
-4 1
  P        2.5828670     0.0826120    -0.3559070
  P       -0.1833470    -1.1435920     0.2927960
  P       -2.7088530     0.4754690    -0.2006980
  O        1.9914167     1.5149071    -0.1946137
  O        1.2509400    -0.8782220    -0.5450080
  O        3.2679280     0.0927970    -1.6978490
  O        3.3289310    -0.2934220     0.9022790
  O       -0.9881700     0.1612780    -0.2225170
  O        0.0932830    -1.0798150     1.7822090
  O       -0.7150640    -2.4305380    -0.3003910
  O       -3.2327710    -0.2685190     1.0414150
  O       -2.7128520     2.0086770    -0.0959300
  O       -3.2113930    -0.0752120    -1.5473660
  C        1.4216660     1.9681570     1.1052990
  H        1.0169430     1.1016800     1.6278780
  H        2.2027140     2.4392170     1.7103290
  H        0.6160650     2.6819120     0.9264900
units angstrom
no_reorient  #important for SAPT in psi4, default
symmetry c1  #important for SAPT in psi4, default
}

set PROPERTIES_ORIGIN ["COM"]
properties('MP2/aug-cc-pvtz', properties = ['dipole'])
--------------------------------------------------------------------------

    Molecular point group: c1
  Charge       = -4
  Multiplicity = 1
  Basis Set: AUG-CC-PVTZ
    Blend: AUG-CC-PVTZ
  Basis Set: (AUG-CC-PVTZ AUX)
    Blend: AUG-CC-PVTZ-JKFIT

    Orbital Energies [Eh]
    ---------------------

    Doubly Occupied:

       1A    -79.558345     2A    -79.524791     3A    -79.480166
       4A    -20.087326     5A    -20.030059     6A    -19.993488
       7A    -19.993263     8A    -19.992588     9A    -19.948978
      10A    -19.943090    11A    -19.924906    12A    -19.919328
      13A    -19.917613    14A    -10.826151    15A     -7.074247
      16A     -7.037691    17A     -6.993670    18A     -4.973579
      19A     -4.972127    20A     -4.971310    21A     -4.936922
      22A     -4.935624    23A     -4.934686    24A     -4.893124
      25A     -4.890958    26A     -4.890796    27A     -0.916479
      28A     -0.841562    29A     -0.800904    30A     -0.773157
      31A     -0.750112    32A     -0.740074    33A     -0.713212
      34A     -0.697931    35A     -0.664133    36A     -0.659229
      37A     -0.484067    38A     -0.290715    39A     -0.237006
      40A     -0.186733    41A     -0.167199    42A     -0.157319
      43A     -0.121579    44A     -0.098100    45A     -0.079388
      46A     -0.064058    47A     -0.055248    48A     -0.043785
      49A     -0.033627    50A     -0.014769    51A     -0.008904
      52A     -0.000511    53A      0.008407    54A      0.017853
      55A      0.022513    56A      0.041057    57A      0.048707
      58A      0.061431    59A      0.071397    60A      0.076626
      61A      0.093055    62A      0.100429    63A      0.102445
      64A      0.103981    65A      0.115347    66A      0.126452
      67A      0.144042    68A      0.150434    69A      0.171640

  @DF-RHF Final Energy: -1810.68460922457325

   => Energetics <=

    Nuclear Repulsion Energy =           1466.2599701619099051
    One-Electron Energy =               -5508.3115408540234057
    Two-Electron Energy =                2231.3669614675400226
    Total Energy =                      -1810.6846092245732507
  Basis Set: (AUG-CC-PVTZ AUX)
    Blend: AUG-CC-PVTZ-RI
    Molecular point group: c1

    Geometry (in Angstrom), charge = -4, multiplicity = 1:

       Center              X                  Y                   Z               Mass
    ------------   -----------------  -----------------  -----------------  -----------------
         P            2.595912391510     0.113254157033    -0.338551681129    30.973761998420
         P           -0.170301608490    -1.112949842967     0.310151318871    30.973761998420
         P           -2.695807608490     0.506111157033    -0.183342681129    30.973761998420
         O            2.004462091510     1.545549257033    -0.177258381129    15.994914619570
         O            1.263985391510    -0.847579842967    -0.527652681129    15.994914619570
         O            3.280973391510     0.123439157033    -1.680493681129    15.994914619570
         O            3.341976391510    -0.262779842967     0.919634318871    15.994914619570
         O           -0.975124608490     0.191920157033    -0.205161681129    15.994914619570
         O            0.106328391510    -1.049172842967     1.799564318871    15.994914619570
         O           -0.702018608490    -2.399895842967    -0.283035681129    15.994914619570
         O           -3.219725608490    -0.237876842967     1.058770318871    15.994914619570
         O           -2.699806608490     2.039319157033    -0.078574681129    15.994914619570
         O           -3.198347608490    -0.044569842967    -1.530010681129    15.994914619570
         C            1.434711391510     1.998799157033     1.122654318871    12.000000000000
         H            1.029988391510     1.132322157033     1.645233318871     1.007825032230
         H            2.215759391510     2.469859157033     1.727684318871     1.007825032230
         H            0.629110391510     2.712554157033     0.943845318871     1.007825032230

  Basis Set: AUG-CC-PVTZ
    Blend: AUG-CC-PVTZ
  Basis Set: (AUG-CC-PVTZ AUX)
    Blend: AUG-CC-PVTZ-JKFIT
	 Reference Energy          =   -1810.6846092245732507 [Eh]
	 Singles Energy            =      -0.0000000000000000 [Eh]
	 Same-Spin Energy          =      -0.9121288428718515 [Eh]
	 Opposite-Spin Energy      =      -2.5234834962632040 [Eh]
	 Correlation Energy        =      -3.4356123391350555 [Eh]
	 Total Energy              =   -1814.1202215637083555 [Eh]

	 ================> DF-SCS-MP2 Energies <==================
	-----------------------------------------------------------
	 SCS Same-Spin Scale       =       0.3333333333333333 [-]
	 SCS Opposite-Spin Scale   =       1.2000000000000000 [-]
	 SCS Same-Spin Energy      =      -0.3040429476239505 [Eh]
	 SCS Opposite-Spin Energy  =      -3.0281801955158447 [Eh]
	 SCS Correlation Energy    =      -3.3322231431397951 [Eh]
	 SCS Total Energy          =   -1814.0168323677130502 [Eh]
	-----------------------------------------------------------

  Dipole Moment: [D]
     X:     9.0424      Y:     2.8893      Z:     1.8309     Total:     9.6678

*** Psi4 exiting successfully. Buy a developer a beer!
