                               Psi4 1.3.2 release

  ==> Input File <==

--------------------------------------------------------------------------
#psi4
#
memory 32 gb

molecule  {
-4 1
  P        2.5828670     0.0826120    -0.3559070
  P       -0.1833470    -1.1435920     0.2927960
  P       -2.7088530     0.4754690    -0.2006980
  O        1.9534540     1.6068400    -0.1842610
  O        1.2509400    -0.8782220    -0.5450080
  O        3.2679280     0.0927970    -1.6978490
  O        3.3289310    -0.2934220     0.9022790
  O       -0.9881700     0.1612780    -0.2225170
  O        0.0932830    -1.0798150     1.7822090
  O       -0.7150640    -2.4305380    -0.3003910
  O       -3.2189036    -0.3380277     1.0030147
  O       -2.6824962     2.0117324    -0.1703780
  O       -3.2113930    -0.0752120    -1.5473660
  C        1.4216660     1.9681570     1.1052990
  H        1.0169430     1.1016800     1.6278780
  H        2.2027140     2.4392170     1.7103290
  H        0.6160650     2.6819120     0.9264900
units angstrom
no_reorient  #important for SAPT in psi4, default
symmetry c1  #important for SAPT in psi4, default
}

set PROPERTIES_ORIGIN ["COM"]
properties('MP2/aug-cc-pvtz', properties = ['dipole'])
--------------------------------------------------------------------------

    Molecular point group: c1
  Charge       = -4
  Multiplicity = 1
  Basis Set: AUG-CC-PVTZ
    Blend: AUG-CC-PVTZ
  Basis Set: (AUG-CC-PVTZ AUX)
    Blend: AUG-CC-PVTZ-JKFIT

    Orbital Energies [Eh]
    ---------------------

    Doubly Occupied:

       1A    -79.571776     2A    -79.525005     3A    -79.479918
       4A    -20.085112     5A    -20.037035     6A    -20.002217
       7A    -20.001794     8A    -19.989793     9A    -19.949078
      10A    -19.943095    11A    -19.928313    12A    -19.921926
      13A    -19.912374    14A    -10.811615    15A     -7.085597
      16A     -7.037958    17A     -6.993461    18A     -4.984549
      19A     -4.983598    20A     -4.982787    21A     -4.937237
      22A     -4.935830    23A     -4.934927    24A     -4.892969
      25A     -4.890766    26A     -4.890512    27A     -0.901237
      28A     -0.844365    29A     -0.805537    30A     -0.777257
      31A     -0.756928    32A     -0.741211    33A     -0.712048
      34A     -0.697944    35A     -0.669223    36A     -0.654610
      37A     -0.466629    38A     -0.292602    39A     -0.233548
      40A     -0.183020    41A     -0.163476    42A     -0.148387
      43A     -0.125251    44A     -0.097968    45A     -0.081863
      46A     -0.064420    47A     -0.050889    48A     -0.043335
      49A     -0.030540    50A     -0.015979    51A     -0.005923
      52A      0.001470    53A      0.009863    54A      0.015024
      55A      0.021151    56A      0.038270    57A      0.050227
      58A      0.054183    59A      0.067940    60A      0.071746
      61A      0.091162    62A      0.101294    63A      0.102014
      64A      0.104388    65A      0.115533    66A      0.126966
      67A      0.140260    68A      0.154195    69A      0.172562

  @DF-RHF Final Energy: -1810.68557287009321

   => Energetics <=

    Nuclear Repulsion Energy =           1463.8394256500446318
    One-Electron Energy =               -5503.3796282037492347
    Two-Electron Energy =                2228.8546296836116198
    Total Energy =                      -1810.6855728700929831
  Basis Set: (AUG-CC-PVTZ AUX)
    Blend: AUG-CC-PVTZ-RI
    Molecular point group: c1

    Geometry (in Angstrom), charge = -4, multiplicity = 1:

       Center              X                  Y                   Z               Mass
    ------------   -----------------  -----------------  -----------------  -----------------
         P            2.595538601139     0.111732868137    -0.332432063152    30.973761998420
         P           -0.170675398861    -1.114471131863     0.316270936848    30.973761998420
         P           -2.696181398861     0.504589868137    -0.177223063152    30.973761998420
         O            1.966125601139     1.635960868137    -0.160786063152    15.994914619570
         O            1.263611601139    -0.849101131863    -0.521533063152    15.994914619570
         O            3.280599601139     0.121917868137    -1.674374063152    15.994914619570
         O            3.341602601139    -0.264301131863     0.925753936848    15.994914619570
         O           -0.975498398861     0.190398868137    -0.199042063152    15.994914619570
         O            0.105954601139    -1.050694131863     1.805683936848    15.994914619570
         O           -0.702392398861    -2.401417131863    -0.276916063152    15.994914619570
         O           -3.206231998861    -0.308906831863     1.026489636848    15.994914619570
         O           -2.669824598861     2.040853268137    -0.146903063152    15.994914619570
         O           -3.198721398861    -0.046091131863    -1.523891063152    15.994914619570
         C            1.434337601139     1.997277868137     1.128773936848    12.000000000000
         H            1.029614601139     1.130800868137     1.651352936848     1.007825032230
         H            2.215385601139     2.468337868137     1.733803936848     1.007825032230
         H            0.628736601139     2.711032868137     0.949964936848     1.007825032230

  Basis Set: AUG-CC-PVTZ
    Blend: AUG-CC-PVTZ
  Basis Set: (AUG-CC-PVTZ AUX)
    Blend: AUG-CC-PVTZ-JKFIT
	 Reference Energy          =   -1810.6855728700932104 [Eh]
	 Singles Energy            =      -0.0000000000000000 [Eh]
	 Same-Spin Energy          =      -0.9133011704820128 [Eh]
	 Opposite-Spin Energy      =      -2.5262891156690639 [Eh]
	 Correlation Energy        =      -3.4395902861510765 [Eh]
	 Total Energy              =   -1814.1251631562442981 [Eh]

	 ================> DF-SCS-MP2 Energies <==================
	-----------------------------------------------------------
	 SCS Same-Spin Scale       =       0.3333333333333333 [-]
	 SCS Opposite-Spin Scale   =       1.2000000000000000 [-]
	 SCS Same-Spin Energy      =      -0.3044337234940042 [Eh]
	 SCS Opposite-Spin Energy  =      -3.0315469388028764 [Eh]
	 SCS Correlation Energy    =      -3.3359806622968806 [Eh]
	 SCS Total Energy          =   -1814.0215535323900440 [Eh]
	-----------------------------------------------------------

  Dipole Moment: [D]
     X:     9.1187      Y:     2.5141      Z:     1.9001     Total:     9.6479

*** Psi4 exiting successfully. Buy a developer a beer!
