                               Psi4 1.3.2 release

  ==> Input File <==

--------------------------------------------------------------------------
#psi4
#
memory 32 gb

molecule  {
-4 1
  P        2.5828670     0.0826120    -0.3559070
  P       -0.1833470    -1.1435920     0.2927960
  P       -2.7088530     0.4754690    -0.2006980
  O        1.9588176     1.6104440    -0.1972064
  O        1.2509400    -0.8782220    -0.5450080
  O        3.2643350     0.1053338    -1.6995237
  O        3.3289310    -0.2934220     0.9022790
  O       -0.9881700     0.1612780    -0.2225170
  O        0.0932830    -1.0798150     1.7822090
  O       -0.7150640    -2.4305380    -0.3003910
  O       -3.2327710    -0.2685190     1.0414150
  O       -2.7128520     2.0086770    -0.0959300
  O       -3.2113930    -0.0752120    -1.5473660
  C        1.4216660     1.9681570     1.1052990
  H        1.0169430     1.1016800     1.6278780
  H        2.2027140     2.4392170     1.7103290
  H        0.6160650     2.6819120     0.9264900
units angstrom
no_reorient  #important for SAPT in psi4, default
symmetry c1  #important for SAPT in psi4, default
}

set PROPERTIES_ORIGIN ["COM"]
properties('MP2/aug-cc-pvtz', properties = ['dipole'])
--------------------------------------------------------------------------

    Molecular point group: c1
  Charge       = -4
  Multiplicity = 1
  Basis Set: AUG-CC-PVTZ
    Blend: AUG-CC-PVTZ
  Basis Set: (AUG-CC-PVTZ AUX)
    Blend: AUG-CC-PVTZ-JKFIT

    Orbital Energies [Eh]
    ---------------------

    Doubly Occupied:

       1A    -79.572073     2A    -79.527115     3A    -79.479905
       4A    -20.085721     5A    -20.038621     6A    -20.003497
       7A    -20.001395     8A    -19.993060     9A    -19.950349
      10A    -19.945401    11A    -19.923951    12A    -19.919224
      13A    -19.917442    14A    -10.812601    15A     -7.085932
      16A     -7.040047    17A     -6.993410    18A     -4.984878
      19A     -4.983947    20A     -4.983107    21A     -4.939326
      22A     -4.937934    23A     -4.937007    24A     -4.892872
      25A     -4.890684    26A     -4.890535    27A     -0.899570
      28A     -0.844779    29A     -0.805884    30A     -0.777925
      31A     -0.757601    32A     -0.742181    33A     -0.713625
      34A     -0.699807    35A     -0.663485    36A     -0.659100
      37A     -0.466771    38A     -0.293644    39A     -0.233421
      40A     -0.183220    41A     -0.162463    42A     -0.146217
      43A     -0.125898    44A     -0.098985    45A     -0.082385
      46A     -0.065205    47A     -0.051870    48A     -0.044743
      49A     -0.032224    50A     -0.016131    51A     -0.007004
      52A     -0.000130    53A      0.009599    54A      0.014843
      55A      0.021422    56A      0.038057    57A      0.047334
      58A      0.053210    59A      0.066944    60A      0.070868
      61A      0.090943    62A      0.100431    63A      0.102256
      64A      0.103845    65A      0.113764    66A      0.125101
      67A      0.144462    68A      0.150443    69A      0.172021

  @DF-RHF Final Energy: -1810.68811016899963

   => Energetics <=

    Nuclear Repulsion Energy =           1462.6417962270481894
    One-Electron Energy =               -5500.9022959371995967
    Two-Electron Energy =                2227.5723895411520061
    Total Energy =                      -1810.6881101689996285
  Basis Set: (AUG-CC-PVTZ AUX)
    Blend: AUG-CC-PVTZ-RI
    Molecular point group: c1

    Geometry (in Angstrom), charge = -4, multiplicity = 1:

       Center              X                  Y                   Z               Mass
    ------------   -----------------  -----------------  -----------------  -----------------
         P            2.598073282570     0.106801492164    -0.338296891092    30.973761998420
         P           -0.168140717430    -1.119402507836     0.310406108908    30.973761998420
         P           -2.693646717430     0.499658492164    -0.183087891092    30.973761998420
         O            1.974023882570     1.634633492164    -0.179596291092    15.994914619570
         O            1.266146282570    -0.854032507836    -0.527397891092    15.994914619570
         O            3.279541282570     0.129523292164    -1.681913591092    15.994914619570
         O            3.344137282570    -0.269232507836     0.919889108908    15.994914619570
         O           -0.972963717430     0.185467492164    -0.204906891092    15.994914619570
         O            0.108489282570    -1.055625507836     1.799819108908    15.994914619570
         O           -0.699857717430    -2.406348507836    -0.282780891092    15.994914619570
         O           -3.217564717430    -0.244329507836     1.059025108908    15.994914619570
         O           -2.697645717430     2.032866492164    -0.078319891092    15.994914619570
         O           -3.196186717430    -0.051022507836    -1.529755891092    15.994914619570
         C            1.436872282570     1.992346492164     1.122909108908    12.000000000000
         H            1.032149282570     1.125869492164     1.645488108908     1.007825032230
         H            2.217920282570     2.463406492164     1.727939108908     1.007825032230
         H            0.631271282570     2.706101492164     0.944100108908     1.007825032230

  Basis Set: AUG-CC-PVTZ
    Blend: AUG-CC-PVTZ
  Basis Set: (AUG-CC-PVTZ AUX)
    Blend: AUG-CC-PVTZ-JKFIT
	 Reference Energy          =   -1810.6881101689996285 [Eh]
	 Singles Energy            =      -0.0000000000000000 [Eh]
	 Same-Spin Energy          =      -0.9131131010640763 [Eh]
	 Opposite-Spin Energy      =      -2.5261709053882386 [Eh]
	 Correlation Energy        =      -3.4392840064523149 [Eh]
	 Total Energy              =   -1814.1273941754518546 [Eh]

	 ================> DF-SCS-MP2 Energies <==================
	-----------------------------------------------------------
	 SCS Same-Spin Scale       =       0.3333333333333333 [-]
	 SCS Opposite-Spin Scale   =       1.2000000000000000 [-]
	 SCS Same-Spin Energy      =      -0.3043710336880254 [Eh]
	 SCS Opposite-Spin Energy  =      -3.0314050864658864 [Eh]
	 SCS Correlation Energy    =      -3.3357761201539118 [Eh]
	 SCS Total Energy          =   -1814.0238862891535518 [Eh]
	-----------------------------------------------------------

  Dipole Moment: [D]
     X:     9.2449      Y:     2.3179      Z:     1.6520     Total:     9.6731

*** Psi4 exiting successfully. Buy a developer a beer!
