                               Psi4 1.4a3.dev225

  ==> Input File <==

--------------------------------------------------------------------------
#psi4
#
memory 32 gb

molecule  {
-4 1
  P       -2.5202440    -0.2449420     0.3712220
  P        0.3565170    -0.5960480    -0.3589090
  P        3.1750170     0.3881900     0.1554910
  O       -2.7927880     1.3311510    -0.1150520
  O       -0.9169740    -0.0836090     0.6422800
  O       -3.1856250    -0.4605710     1.7148300
  O       -2.8507450    -1.1694890    -0.7786080
  O        1.4898640     0.0841660     0.5723090
  O        0.2127210     0.0849480    -1.7048820
  O        0.4027150    -2.1095660    -0.2874290
  O        3.5327910    -0.6840640    -0.8835370
  O        3.1642323     1.8473932    -0.3811915
  O        3.8338960     0.2099350     1.5311200
  C       -4.1398760     1.5889580    -0.5252390
  H       -4.4292020     0.9309370    -1.3496150
  H       -4.8386320     1.4471050     0.3059850
  H       -4.1840730     2.6280350    -0.8559160
units angstrom
no_reorient  #important for SAPT in psi4, default
symmetry c1  #important for SAPT in psi4, default
}

set PROPERTIES_ORIGIN ["COM"]
properties('MP2/aug-cc-pvtz', properties = ['dipole'])
--------------------------------------------------------------------------

    Molecular point group: c1
  Charge       = -4
  Multiplicity = 1
  Basis Set: AUG-CC-PVTZ
    Blend: AUG-CC-PVTZ
  Basis Set: (AUG-CC-PVTZ AUX)
    Blend: AUG-CC-PVTZ-JKFIT

    Orbital Energies [Eh]
    ---------------------

    Doubly Occupied:

       1A    -79.580988     2A    -79.517869     3A    -79.479210
       4A    -20.119257     5A    -20.042205     6A    -20.015265
       7A    -20.005230     8A    -19.985720     9A    -19.937540
      10A    -19.935632    11A    -19.923818    12A    -19.918245
      13A    -19.915124    14A    -10.883499    15A     -7.095262
      16A     -7.030934    17A     -6.992344    18A     -4.994408
      19A     -4.993100    20A     -4.992192    21A     -4.930332
      22A     -4.928761    23A     -4.927607    24A     -4.891785
      25A     -4.889679    26A     -4.889412    27A     -0.931466
      28A     -0.853902    29A     -0.807398    30A     -0.777915
      31A     -0.761461    32A     -0.736007    33A     -0.706073
      34A     -0.687459    35A     -0.662252    36A     -0.654732
      37A     -0.528319    38A     -0.308903    39A     -0.252620
      40A     -0.220828    41A     -0.196850    42A     -0.165696
      43A     -0.140636    44A     -0.108600    45A     -0.094754
      46A     -0.079554    47A     -0.063374    48A     -0.052230
      49A     -0.035393    50A     -0.025623    51A     -0.012823
      52A     -0.010071    53A      0.009294    54A      0.011825
      55A      0.022939    56A      0.034066    57A      0.047844
      58A      0.054646    59A      0.061843    60A      0.080825
      61A      0.097278    62A      0.103765    63A      0.107309
      64A      0.107919    65A      0.124579    66A      0.135221
      67A      0.146695    68A      0.154635    69A      0.173776

  @DF-RHF Final Energy: -1810.67419595290016

   => Energetics <=

    Nuclear Repulsion Energy =           1424.7380796957675102
    One-Electron Energy =               -5424.3927479615240372
    Two-Electron Energy =                2188.9804723128559090
    Total Energy =                      -1810.6741959529003907
  Basis Set: (AUG-CC-PVTZ AUX)
    Blend: AUG-CC-PVTZ-RI
    Molecular point group: c1

    Geometry (in Angstrom), charge = -4, multiplicity = 1:

       Center              X                  Y                   Z               Mass
    ------------   -----------------  -----------------  -----------------  -----------------
         P           -2.573677371879    -0.225894769866     0.363994887157    30.973761998420
         P            0.303083628121    -0.577000769866    -0.366136112843    30.973761998420
         P            3.121583628121     0.407237230134     0.148263887157    30.973761998420
         O           -2.846221371879     1.350198230134    -0.122279112843    15.994914619570
         O           -0.970407371879    -0.064561769866     0.635052887157    15.994914619570
         O           -3.239058371879    -0.441523769866     1.707602887157    15.994914619570
         O           -2.904178371879    -1.150441769866    -0.785835112843    15.994914619570
         O            1.436430628121     0.103213230134     0.565081887157    15.994914619570
         O            0.159287628121     0.103995230134    -1.712109112843    15.994914619570
         O            0.349281628121    -2.090518769866    -0.294656112843    15.994914619570
         O            3.479357628121    -0.665016769866    -0.890764112843    15.994914619570
         O            3.110798928121     1.866440430134    -0.388418612843    15.994914619570
         O            3.780462628121     0.228982230134     1.523892887157    15.994914619570
         C           -4.193309371879     1.608005230134    -0.532466112843    12.000000000000
         H           -4.482635371879     0.949984230134    -1.356842112843     1.007825032230
         H           -4.892065371879     1.466152230134     0.298757887157     1.007825032230
         H           -4.237506371879     2.647082230134    -0.863143112843     1.007825032230

  Basis Set: AUG-CC-PVTZ
    Blend: AUG-CC-PVTZ
  Basis Set: (AUG-CC-PVTZ AUX)
    Blend: AUG-CC-PVTZ-JKFIT
	 Reference Energy          =   -1810.6741959529001633 [Eh]
	 Singles Energy            =      -0.0000000000000000 [Eh]
	 Same-Spin Energy          =      -0.9127334505479656 [Eh]
	 Opposite-Spin Energy      =      -2.5261715164641441 [Eh]
	 Correlation Energy        =      -3.4389049670121095 [Eh]
	 Total Energy              =   -1814.1131009199123127 [Eh]

	 ================> DF-SCS-MP2 Energies <==================
	-----------------------------------------------------------
	 SCS Same-Spin Scale       =       0.3333333333333333 [-]
	 SCS Opposite-Spin Scale   =       1.2000000000000000 [-]
	 SCS Same-Spin Energy      =      -0.3042444835159885 [Eh]
	 SCS Opposite-Spin Energy  =      -3.0314058197569729 [Eh]
	 SCS Correlation Energy    =      -3.3356503032729612 [Eh]
	 SCS Total Energy          =   -1814.0098462561732049 [Eh]
	-----------------------------------------------------------

  Dipole Moment: [D]
     X:   -15.0087      Y:     2.5634      Z:     0.0508     Total:    15.2261

*** Psi4 exiting successfully. Buy a developer a beer!
