                               Psi4 1.3.2 release

  ==> Input File <==

--------------------------------------------------------------------------
#psi4
#
memory 32 gb

molecule  {
-4 1
  P        2.5828670     0.0826120    -0.3559070
  P       -0.1833470    -1.1435920     0.2927960
  P       -2.7088530     0.4754690    -0.2006980
  O        1.9534540     1.6068400    -0.1842610
  O        1.2509400    -0.8782220    -0.5450080
  O        3.2679280     0.0927970    -1.6978490
  O        3.3289310    -0.2934220     0.9022790
  O       -0.9881700     0.1612780    -0.2225170
  O        0.0750384    -1.0840213     1.6839774
  O       -0.7150640    -2.4305380    -0.3003910
  O       -3.2327710    -0.2685190     1.0414150
  O       -2.7128520     2.0086770    -0.0959300
  O       -3.2113930    -0.0752120    -1.5473660
  C        1.4216660     1.9681570     1.1052990
  H        1.0169430     1.1016800     1.6278780
  H        2.2027140     2.4392170     1.7103290
  H        0.6160650     2.6819120     0.9264900
units angstrom
no_reorient  #important for SAPT in psi4, default
symmetry c1  #important for SAPT in psi4, default
}

set PROPERTIES_ORIGIN ["COM"]
properties('MP2/aug-cc-pvtz', properties = ['dipole'])
--------------------------------------------------------------------------

    Molecular point group: c1
  Charge       = -4
  Multiplicity = 1
  Basis Set: AUG-CC-PVTZ
    Blend: AUG-CC-PVTZ
  Basis Set: (AUG-CC-PVTZ AUX)
    Blend: AUG-CC-PVTZ-JKFIT

    Orbital Energies [Eh]
    ---------------------

    Doubly Occupied:

       1A    -79.570613     2A    -79.505419     3A    -79.477165
       4A    -20.084990     5A    -20.031190     6A    -20.002548
       7A    -20.000760     8A    -19.984980     9A    -19.945251
      10A    -19.935800    11A    -19.921858    12A    -19.916539
      13A    -19.915831    14A    -10.812812    15A     -7.084424
      16A     -7.023279    17A     -6.990620    18A     -4.983388
      19A     -4.982399    20A     -4.981648    21A     -4.922123
      22A     -4.921281    23A     -4.920186    24A     -4.890044
      25A     -4.887937    26A     -4.887784    27A     -0.900822
      28A     -0.847948    29A     -0.808113    30A     -0.774477
      31A     -0.760696    32A     -0.756077    33A     -0.716441
      34A     -0.698869    35A     -0.661366    36A     -0.656946
      37A     -0.467302    38A     -0.288841    39A     -0.231455
      40A     -0.181852    41A     -0.163837    42A     -0.148325
      43A     -0.124816    44A     -0.098280    45A     -0.081273
      46A     -0.064522    47A     -0.052203    48A     -0.044702
      49A     -0.032953    50A     -0.015066    51A     -0.005818
      52A     -0.000442    53A      0.011272    54A      0.014942
      55A      0.020220    56A      0.036985    57A      0.047106
      58A      0.053001    59A      0.062660    60A      0.069105
      61A      0.088382    62A      0.100987    63A      0.103952
      64A      0.106494    65A      0.116169    66A      0.126339
      67A      0.146806    68A      0.153258    69A      0.174064

  @DF-RHF Final Energy: -1810.68485527090525

   => Energetics <=

    Nuclear Repulsion Energy =           1468.1611523851163383
    One-Electron Energy =               -5512.2268712620953011
    Two-Electron Energy =                2233.3808636060739445
    Total Energy =                      -1810.6848552709052456
  Basis Set: (AUG-CC-PVTZ AUX)
    Blend: AUG-CC-PVTZ-RI
    Molecular point group: c1

    Geometry (in Angstrom), charge = -4, multiplicity = 1:

       Center              X                  Y                   Z               Mass
    ------------   -----------------  -----------------  -----------------  -----------------
         P            2.599268313164     0.108016339230    -0.333304770079    30.973761998420
         P           -0.166945686836    -1.118187660770     0.315398229921    30.973761998420
         P           -2.692451686836     0.500873339230    -0.178095770079    30.973761998420
         O            1.969855313164     1.632244339230    -0.161658770079    15.994914619570
         O            1.267341313164    -0.852817660770    -0.522405770079    15.994914619570
         O            3.284329313164     0.118201339230    -1.675246770079    15.994914619570
         O            3.345332313164    -0.268017660770     0.924881229921    15.994914619570
         O           -0.971768686836     0.186682339230    -0.199914770079    15.994914619570
         O            0.091439713164    -1.058616960770     1.706579629921    15.994914619570
         O           -0.698662686836    -2.405133660770    -0.277788770079    15.994914619570
         O           -3.216369686836    -0.243114660770     1.064017229921    15.994914619570
         O           -2.696450686836     2.034081339230    -0.073327770079    15.994914619570
         O           -3.194991686836    -0.049807660770    -1.524763770079    15.994914619570
         C            1.438067313164     1.993561339230     1.127901229921    12.000000000000
         H            1.033344313164     1.127084339230     1.650480229921     1.007825032230
         H            2.219115313164     2.464621339230     1.732931229921     1.007825032230
         H            0.632466313164     2.707316339230     0.949092229921     1.007825032230

  Basis Set: AUG-CC-PVTZ
    Blend: AUG-CC-PVTZ
  Basis Set: (AUG-CC-PVTZ AUX)
    Blend: AUG-CC-PVTZ-JKFIT
	 Reference Energy          =   -1810.6848552709052456 [Eh]
	 Singles Energy            =      -0.0000000000000000 [Eh]
	 Same-Spin Energy          =      -0.9110319921534237 [Eh]
	 Opposite-Spin Energy      =      -2.5208908386956477 [Eh]
	 Correlation Energy        =      -3.4319228308490715 [Eh]
	 Total Energy              =   -1814.1167781017543348 [Eh]

	 ================> DF-SCS-MP2 Energies <==================
	-----------------------------------------------------------
	 SCS Same-Spin Scale       =       0.3333333333333333 [-]
	 SCS Opposite-Spin Scale   =       1.2000000000000000 [-]
	 SCS Same-Spin Energy      =      -0.3036773307178079 [Eh]
	 SCS Opposite-Spin Energy  =      -3.0250690064347769 [Eh]
	 SCS Correlation Energy    =      -3.3287463371525847 [Eh]
	 SCS Total Energy          =   -1814.0136016080577974 [Eh]
	-----------------------------------------------------------

  Dipole Moment: [D]
     X:     9.4091      Y:     2.3114      Z:     2.1668     Total:     9.9281

*** Psi4 exiting successfully. Buy a developer a beer!
