                               Psi4 1.4a3.dev225

  ==> Input File <==

--------------------------------------------------------------------------
#psi4
#
memory 32 gb

molecule  {
-4 1
  P       -2.5202440    -0.2449420     0.3712220
  P        0.3565170    -0.5960480    -0.3589090
  P        3.1750170     0.3881900     0.1554910
  O       -2.7927880     1.3311510    -0.1150520
  O       -0.9169740    -0.0836090     0.6422800
  O       -3.1856250    -0.4605710     1.7148300
  O       -2.8616743    -1.2000628    -0.8166316
  O        1.4898640     0.0841660     0.5723090
  O        0.2127210     0.0849480    -1.7048820
  O        0.4027150    -2.1095660    -0.2874290
  O        3.5327910    -0.6840640    -0.8835370
  O        3.1643710     1.8286230    -0.3742880
  O        3.8338960     0.2099350     1.5311200
  C       -4.1398760     1.5889580    -0.5252390
  H       -4.4292020     0.9309370    -1.3496150
  H       -4.8386320     1.4471050     0.3059850
  H       -4.1840730     2.6280350    -0.8559160
units angstrom
no_reorient  #important for SAPT in psi4, default
symmetry c1  #important for SAPT in psi4, default
}

set PROPERTIES_ORIGIN ["COM"]
properties('MP2/aug-cc-pvtz', properties = ['dipole'])
--------------------------------------------------------------------------

    Molecular point group: c1
  Charge       = -4
  Multiplicity = 1
  Basis Set: AUG-CC-PVTZ
    Blend: AUG-CC-PVTZ
  Basis Set: (AUG-CC-PVTZ AUX)
    Blend: AUG-CC-PVTZ-JKFIT

    Orbital Energies [Eh]
    ---------------------

    Doubly Occupied:

       1A    -79.589496     2A    -79.518120     3A    -79.475944
       4A    -20.122502     5A    -20.045668     6A    -20.019355
       7A    -20.006969     8A    -19.985114     9A    -19.937306
      10A    -19.935737    11A    -19.922441    12A    -19.917511
      13A    -19.913601    14A    -10.884530    15A     -7.102226
      16A     -7.031205    17A     -6.989704    18A     -5.001500
      19A     -5.000129    20A     -4.998938    21A     -4.930627
      22A     -4.929008    23A     -4.927859    24A     -4.889103
      25A     -4.886988    26A     -4.886859    27A     -0.932895
      28A     -0.854899    29A     -0.805317    30A     -0.779001
      31A     -0.748788    32A     -0.737113    33A     -0.706502
      34A     -0.687398    35A     -0.662443    36A     -0.657691
      37A     -0.529698    38A     -0.311803    39A     -0.253625
      40A     -0.222162    41A     -0.197961    42A     -0.166590
      43A     -0.140874    44A     -0.108480    45A     -0.094119
      46A     -0.079583    47A     -0.062489    48A     -0.053188
      49A     -0.034592    50A     -0.024436    51A     -0.013789
      52A     -0.009723    53A      0.010739    54A      0.012654
      55A      0.022431    56A      0.032617    57A      0.052819
      58A      0.054570    59A      0.064541    60A      0.080927
      61A      0.096763    62A      0.102933    63A      0.106556
      64A      0.107723    65A      0.124312    66A      0.134839
      67A      0.147531    68A      0.153869    69A      0.174098

  @DF-RHF Final Energy: -1810.66941195858385

   => Energetics <=

    Nuclear Repulsion Energy =           1423.2958384623964321
    One-Electron Energy =               -5421.4431464412446076
    Two-Electron Energy =                2187.4778960202643248
    Total Energy =                      -1810.6694119585840781
  Basis Set: (AUG-CC-PVTZ AUX)
    Blend: AUG-CC-PVTZ-RI
    Molecular point group: c1

    Geometry (in Angstrom), charge = -4, multiplicity = 1:

       Center              X                  Y                   Z               Mass
    ------------   -----------------  -----------------  -----------------  -----------------
         P           -2.573033106664    -0.222948629451     0.365852948609    30.973761998420
         P            0.303727893336    -0.574054629451    -0.364278051391    30.973761998420
         P            3.122227893336     0.410183370549     0.150121948609    30.973761998420
         O           -2.845577106664     1.353144370549    -0.120421051391    15.994914619570
         O           -0.969763106664    -0.061615629451     0.636910948609    15.994914619570
         O           -3.238414106664    -0.438577629451     1.709460948609    15.994914619570
         O           -2.914463406664    -1.178069429451    -0.822000651391    15.994914619570
         O            1.437074893336     0.106159370549     0.566939948609    15.994914619570
         O            0.159931893336     0.106941370549    -1.710251051391    15.994914619570
         O            0.349925893336    -2.087572629451    -0.292798051391    15.994914619570
         O            3.480001893336    -0.662070629451    -0.888906051391    15.994914619570
         O            3.111581893336     1.850616370549    -0.379657051391    15.994914619570
         O            3.781106893336     0.231928370549     1.525750948609    15.994914619570
         C           -4.192665106664     1.610951370549    -0.530608051391    12.000000000000
         H           -4.481991106664     0.952930370549    -1.354984051391     1.007825032230
         H           -4.891421106664     1.469098370549     0.300615948609     1.007825032230
         H           -4.236862106664     2.650028370549    -0.861285051391     1.007825032230

  Basis Set: AUG-CC-PVTZ
    Blend: AUG-CC-PVTZ
  Basis Set: (AUG-CC-PVTZ AUX)
    Blend: AUG-CC-PVTZ-JKFIT
	 Reference Energy          =   -1810.6694119585838507 [Eh]
	 Singles Energy            =      -0.0000000000000000 [Eh]
	 Same-Spin Energy          =      -0.9134018114193139 [Eh]
	 Opposite-Spin Energy      =      -2.5278160040756696 [Eh]
	 Correlation Energy        =      -3.4412178154949835 [Eh]
	 Total Energy              =   -1814.1106297740789159 [Eh]

	 ================> DF-SCS-MP2 Energies <==================
	-----------------------------------------------------------
	 SCS Same-Spin Scale       =       0.3333333333333333 [-]
	 SCS Opposite-Spin Scale   =       1.2000000000000000 [-]
	 SCS Same-Spin Energy      =      -0.3044672704731046 [Eh]
	 SCS Opposite-Spin Energy  =      -3.0333792048908035 [Eh]
	 SCS Correlation Energy    =      -3.3378464753639081 [Eh]
	 SCS Total Energy          =   -1814.0072584339477544 [Eh]
	-----------------------------------------------------------

  Dipole Moment: [D]
     X:   -14.8683      Y:     2.8800      Z:     0.1885     Total:    15.1458

*** Psi4 exiting successfully. Buy a developer a beer!
