                               Psi4 1.3.2 release

  ==> Input File <==

--------------------------------------------------------------------------
#psi4
#
memory 32 gb

molecule  {
-4 1
  P        2.5828670     0.0826120    -0.3559070
  P       -0.1833470    -1.1435920     0.2927960
  P       -2.7088530     0.4754690    -0.2006980
  O        1.9534540     1.6068400    -0.1842610
  O        1.2509400    -0.8782220    -0.5450080
  O        3.2679280     0.0927970    -1.6978490
  O        3.3289310    -0.2934220     0.9022790
  O       -0.9872109     0.1905050    -0.1430496
  O        0.0561671    -1.0096687     1.7839835
  O       -0.7150640    -2.4305380    -0.3003910
  O       -3.2327710    -0.2685190     1.0414150
  O       -2.7128520     2.0086770    -0.0959300
  O       -3.2113930    -0.0752120    -1.5473660
  C        1.4216660     1.9681570     1.1052990
  H        1.0169430     1.1016800     1.6278780
  H        2.2027140     2.4392170     1.7103290
  H        0.6160650     2.6819120     0.9264900
units angstrom
no_reorient  #important for SAPT in psi4, default
symmetry c1  #important for SAPT in psi4, default
}

set PROPERTIES_ORIGIN ["COM"]
properties('MP2/aug-cc-pvtz', properties = ['dipole'])
--------------------------------------------------------------------------

    Molecular point group: c1
  Charge       = -4
  Multiplicity = 1
  Basis Set: AUG-CC-PVTZ
    Blend: AUG-CC-PVTZ
  Basis Set: (AUG-CC-PVTZ AUX)
    Blend: AUG-CC-PVTZ-JKFIT

    Orbital Energies [Eh]
    ---------------------

    Doubly Occupied:

       1A    -79.573303     2A    -79.527354     3A    -79.477752
       4A    -20.084692     5A    -20.040954     6A    -20.003440
       7A    -20.003223     8A    -19.988422     9A    -19.952029
      10A    -19.945944    11A    -19.920945    12A    -19.920687
      13A    -19.913240    14A    -10.808779    15A     -7.087112
      16A     -7.040318    17A     -6.991239    18A     -4.986051
      19A     -4.985131    20A     -4.984297    21A     -4.939529
      22A     -4.938314    23A     -4.937228    24A     -4.890697
      25A     -4.888535    26A     -4.888378    27A     -0.901582
      28A     -0.846018    29A     -0.806489    30A     -0.778204
      31A     -0.758231    32A     -0.742037    33A     -0.711580
      34A     -0.701078    35A     -0.661727    36A     -0.657059
      37A     -0.464523    38A     -0.294449    39A     -0.233245
      40A     -0.183967    41A     -0.162572    42A     -0.147498
      43A     -0.125870    44A     -0.098109    45A     -0.083379
      46A     -0.064521    47A     -0.051485    48A     -0.043961
      49A     -0.031825    50A     -0.014751    51A     -0.006569
      52A      0.001272    53A      0.009432    54A      0.014670
      55A      0.022863    56A      0.037106    57A      0.048556
      58A      0.053211    59A      0.066206    60A      0.070469
      61A      0.089379    62A      0.101178    63A      0.106070
      64A      0.106505    65A      0.112984    66A      0.124487
      67A      0.146774    68A      0.152468    69A      0.173841

  @DF-RHF Final Energy: -1810.68647567848370

   => Energetics <=

    Nuclear Repulsion Energy =           1463.9596839320176969
    One-Electron Energy =               -5503.5906143611682637
    Two-Electron Energy =                2228.9444547506673189
    Total Energy =                      -1810.6864756784834753
  Basis Set: (AUG-CC-PVTZ AUX)
    Blend: AUG-CC-PVTZ-RI
    Molecular point group: c1

    Geometry (in Angstrom), charge = -4, multiplicity = 1:

       Center              X                  Y                   Z               Mass
    ------------   -----------------  -----------------  -----------------  -----------------
         P            2.600337781718     0.101831999784    -0.344020442332    30.973761998420
         P           -0.165876218282    -1.124372000216     0.304682557668    30.973761998420
         P           -2.691382218282     0.494688999784    -0.188811442332    30.973761998420
         O            1.970924781718     1.626059999784    -0.172374442332    15.994914619570
         O            1.268410781718    -0.859002000216    -0.533121442332    15.994914619570
         O            3.285398781718     0.112016999784    -1.685962442332    15.994914619570
         O            3.346401781718    -0.274202000216     0.914165557668    15.994914619570
         O           -0.969740118282     0.209724999784    -0.131163042332    15.994914619570
         O            0.073637881718    -0.990448700216     1.795870057668    15.994914619570
         O           -0.697593218282    -2.411318000216    -0.288504442332    15.994914619570
         O           -3.215300218282    -0.249299000216     1.053301557668    15.994914619570
         O           -2.695381218282     2.027896999784    -0.084043442332    15.994914619570
         O           -3.193922218282    -0.055992000216    -1.535479442332    15.994914619570
         C            1.439136781718     1.987376999784     1.117185557668    12.000000000000
         H            1.034413781718     1.120899999784     1.639764557668     1.007825032230
         H            2.220184781718     2.458436999784     1.722215557668     1.007825032230
         H            0.633535781718     2.701131999784     0.938376557668     1.007825032230

  Basis Set: AUG-CC-PVTZ
    Blend: AUG-CC-PVTZ
  Basis Set: (AUG-CC-PVTZ AUX)
    Blend: AUG-CC-PVTZ-JKFIT
	 Reference Energy          =   -1810.6864756784837027 [Eh]
	 Singles Energy            =      -0.0000000000000000 [Eh]
	 Same-Spin Energy          =      -0.9132430954148382 [Eh]
	 Opposite-Spin Energy      =      -2.5261033959751784 [Eh]
	 Correlation Energy        =      -3.4393464913900167 [Eh]
	 Total Energy              =   -1814.1258221698737998 [Eh]

	 ================> DF-SCS-MP2 Energies <==================
	-----------------------------------------------------------
	 SCS Same-Spin Scale       =       0.3333333333333333 [-]
	 SCS Opposite-Spin Scale   =       1.2000000000000000 [-]
	 SCS Same-Spin Energy      =      -0.3044143651382794 [Eh]
	 SCS Opposite-Spin Energy  =      -3.0313240751702142 [Eh]
	 SCS Correlation Energy    =      -3.3357384403084938 [Eh]
	 SCS Total Energy          =   -1814.0222141187921352 [Eh]
	-----------------------------------------------------------

  Dipole Moment: [D]
     X:     9.3759      Y:     2.0852      Z:     1.4824     Total:     9.7187

*** Psi4 exiting successfully. Buy a developer a beer!
