                               Psi4 1.3.2 release

  ==> Input File <==

--------------------------------------------------------------------------
#psi4
#
memory 32 gb

molecule  {
-4 1
  P        2.5828670     0.0826120    -0.3559070
  P       -0.1833470    -1.1435920     0.2927960
  P       -2.7088530     0.4754690    -0.2006980
  O        1.9668465     1.6121521    -0.1829334
  O        1.2595101    -0.8897728    -0.5461309
  O        3.2679280     0.0927970    -1.6978490
  O        3.3289310    -0.2934220     0.9022790
  O       -0.9881700     0.1612780    -0.2225170
  O        0.0932830    -1.0798150     1.7822090
  O       -0.7150640    -2.4305380    -0.3003910
  O       -3.2327710    -0.2685190     1.0414150
  O       -2.7128520     2.0086770    -0.0959300
  O       -3.2113930    -0.0752120    -1.5473660
  C        1.4216660     1.9681570     1.1052990
  H        1.0169430     1.1016800     1.6278780
  H        2.2027140     2.4392170     1.7103290
  H        0.6160650     2.6819120     0.9264900
units angstrom
no_reorient  #important for SAPT in psi4, default
symmetry c1  #important for SAPT in psi4, default
}

set PROPERTIES_ORIGIN ["COM"]
properties('MP2/aug-cc-pvtz', properties = ['dipole'])
--------------------------------------------------------------------------

    Molecular point group: c1
  Charge       = -4
  Multiplicity = 1
  Basis Set: AUG-CC-PVTZ
    Blend: AUG-CC-PVTZ
  Basis Set: (AUG-CC-PVTZ AUX)
    Blend: AUG-CC-PVTZ-JKFIT

    Orbital Energies [Eh]
    ---------------------

    Doubly Occupied:

       1A    -79.571864     2A    -79.527818     3A    -79.480462
       4A    -20.086363     5A    -20.038989     6A    -20.001744
       7A    -20.001504     8A    -19.994131     9A    -19.950744
      10A    -19.945536    11A    -19.924419    12A    -19.919665
      13A    -19.917868    14A    -10.812173    15A     -7.085733
      16A     -7.040694    17A     -6.993968    18A     -4.984661
      19A     -4.983756    20A     -4.982903    21A     -4.939953
      22A     -4.938585    23A     -4.937644    24A     -4.893436
      25A     -4.891236    26A     -4.891086    27A     -0.901421
      28A     -0.845325    29A     -0.806680    30A     -0.777759
      31A     -0.756736    32A     -0.742394    33A     -0.714163
      34A     -0.700026    35A     -0.663939    36A     -0.659530
      37A     -0.467083    38A     -0.292507    39A     -0.234973
      40A     -0.184236    41A     -0.163913    42A     -0.149040
      43A     -0.125185    44A     -0.098984    45A     -0.082415
      46A     -0.065135    47A     -0.051945    48A     -0.045022
      49A     -0.032359    50A     -0.016469    51A     -0.006126
      52A     -0.000158    53A      0.009323    54A      0.015117
      55A      0.021179    56A      0.037309    57A      0.046792
      58A      0.054448    59A      0.067497    60A      0.071135
      61A      0.090703    62A      0.100036    63A      0.101797
      64A      0.103321    65A      0.113442    66A      0.124811
      67A      0.143986    68A      0.149960    69A      0.171591

  @DF-RHF Final Energy: -1810.68875868392774

   => Energetics <=

    Nuclear Repulsion Energy =           1462.2811199414911698
    One-Electron Energy =               -5500.1437323901354830
    Two-Electron Energy =                2227.1738537647165685
    Total Energy =                      -1810.6887586839279720
  Basis Set: (AUG-CC-PVTZ AUX)
    Blend: AUG-CC-PVTZ-RI
    Molecular point group: c1

    Geometry (in Angstrom), charge = -4, multiplicity = 1:

       Center              X                  Y                   Z               Mass
    ------------   -----------------  -----------------  -----------------  -----------------
         P            2.596867695929     0.108137686016    -0.339182022869    30.973761998420
         P           -0.169346304071    -1.118066313984     0.309520977131    30.973761998420
         P           -2.694852304071     0.500994686016    -0.183973022869    30.973761998420
         O            1.980847195929     1.637677786016    -0.166208422869    15.994914619570
         O            1.273510795929    -0.864247113984    -0.529405922869    15.994914619570
         O            3.281928695929     0.118322686016    -1.681124022869    15.994914619570
         O            3.342931695929    -0.267896313984     0.919003977131    15.994914619570
         O           -0.974169304071     0.186803686016    -0.205792022869    15.994914619570
         O            0.107283695929    -1.054289313984     1.798933977131    15.994914619570
         O           -0.701063304071    -2.405012313984    -0.283666022869    15.994914619570
         O           -3.218770304071    -0.242993313984     1.058139977131    15.994914619570
         O           -2.698851304071     2.034202686016    -0.079205022869    15.994914619570
         O           -3.197392304071    -0.049686313984    -1.530641022869    15.994914619570
         C            1.435666695929     1.993682686016     1.122023977131    12.000000000000
         H            1.030943695929     1.127205686016     1.644602977131     1.007825032230
         H            2.216714695929     2.464742686016     1.727053977131     1.007825032230
         H            0.630065695929     2.707437686016     0.943214977131     1.007825032230

  Basis Set: AUG-CC-PVTZ
    Blend: AUG-CC-PVTZ
  Basis Set: (AUG-CC-PVTZ AUX)
    Blend: AUG-CC-PVTZ-JKFIT
	 Reference Energy          =   -1810.6887586839277446 [Eh]
	 Singles Energy            =      -0.0000000000000000 [Eh]
	 Same-Spin Energy          =      -0.9130506204084260 [Eh]
	 Opposite-Spin Energy      =      -2.5259572860733996 [Eh]
	 Correlation Energy        =      -3.4390079064818257 [Eh]
	 Total Energy              =   -1814.1277665904094647 [Eh]

	 ================> DF-SCS-MP2 Energies <==================
	-----------------------------------------------------------
	 SCS Same-Spin Scale       =       0.3333333333333333 [-]
	 SCS Opposite-Spin Scale   =       1.2000000000000000 [-]
	 SCS Same-Spin Energy      =      -0.3043502068028087 [Eh]
	 SCS Opposite-Spin Energy  =      -3.0311487432880795 [Eh]
	 SCS Correlation Energy    =      -3.3354989500908880 [Eh]
	 SCS Total Energy          =   -1814.0242576340185678 [Eh]
	-----------------------------------------------------------

  Dipole Moment: [D]
     X:     9.1714      Y:     2.3423      Z:     1.6289     Total:     9.6049

*** Psi4 exiting successfully. Buy a developer a beer!
