                               Psi4 1.3.2 release

  ==> Input File <==

--------------------------------------------------------------------------
#psi4
#
memory 32 gb

molecule  {
-4 1
  P        2.5828670     0.0826120    -0.3559070
  P       -0.1833470    -1.1435920     0.2927960
  P       -2.7088530     0.4754690    -0.2006980
  O        1.9534540     1.6068400    -0.1842610
  O        1.2509400    -0.8782220    -0.5450080
  O        3.2679280     0.0927970    -1.6978490
  O        3.3289310    -0.2934220     0.9022790
  O       -0.9798221     0.1694704    -0.2146168
  O        0.0932830    -1.0798150     1.7822090
  O       -0.7059749    -2.4373381    -0.2936381
  O       -3.2327710    -0.2685190     1.0414150
  O       -2.7128520     2.0086770    -0.0959300
  O       -3.2113930    -0.0752120    -1.5473660
  C        1.4216660     1.9681570     1.1052990
  H        1.0169430     1.1016800     1.6278780
  H        2.2027140     2.4392170     1.7103290
  H        0.6160650     2.6819120     0.9264900
units angstrom
no_reorient  #important for SAPT in psi4, default
symmetry c1  #important for SAPT in psi4, default
}

set PROPERTIES_ORIGIN ["COM"]
properties('MP2/aug-cc-pvtz', properties = ['dipole'])
--------------------------------------------------------------------------

    Molecular point group: c1
  Charge       = -4
  Multiplicity = 1
  Basis Set: AUG-CC-PVTZ
    Blend: AUG-CC-PVTZ
  Basis Set: (AUG-CC-PVTZ AUX)
    Blend: AUG-CC-PVTZ-JKFIT

    Orbital Energies [Eh]
    ---------------------

    Doubly Occupied:

       1A    -79.572072     2A    -79.526411     3A    -79.480898
       4A    -20.085170     5A    -20.037478     6A    -20.002385
       7A    -20.002165     8A    -19.993660     9A    -19.948781
      10A    -19.945791    11A    -19.924358    12A    -19.920620
      13A    -19.918228    14A    -10.811212    15A     -7.085891
      16A     -7.039391    17A     -6.994369    18A     -4.984842
      19A     -4.983894    20A     -4.983080    21A     -4.938676
      22A     -4.937246    23A     -4.936366    24A     -4.893822
      25A     -4.891631    26A     -4.891486    27A     -0.901433
      28A     -0.845136    29A     -0.806145    30A     -0.777529
      31A     -0.757191    32A     -0.741996    33A     -0.713982
      34A     -0.699199    35A     -0.664120    36A     -0.660026
      37A     -0.466326    38A     -0.293160    39A     -0.233880
      40A     -0.183317    41A     -0.163385    42A     -0.148315
      43A     -0.125589    44A     -0.099011    45A     -0.082473
      46A     -0.065198    47A     -0.051480    48A     -0.043678
      49A     -0.031540    50A     -0.015959    51A     -0.006234
      52A      0.000135    53A      0.009778    54A      0.015085
      55A      0.021025    56A      0.037760    57A      0.047418
      58A      0.053974    59A      0.067339    60A      0.071227
      61A      0.090874    62A      0.100044    63A      0.102144
      64A      0.103418    65A      0.113909    66A      0.125519
      67A      0.143704    68A      0.149467    69A      0.171208

  @DF-RHF Final Energy: -1810.68874548163194

   => Energetics <=

    Nuclear Repulsion Energy =           1462.7576266143657904
    One-Electron Energy =               -5501.1283508947935843
    Two-Electron Energy =                2227.6819787987956261
    Total Energy =                      -1810.6887454816319405
  Basis Set: (AUG-CC-PVTZ AUX)
    Blend: AUG-CC-PVTZ-RI
    Molecular point group: c1

    Geometry (in Angstrom), charge = -4, multiplicity = 1:

       Center              X                  Y                   Z               Mass
    ------------   -----------------  -----------------  -----------------  -----------------
         P            2.597137902095     0.107682068362    -0.340044681250    30.973761998420
         P           -0.169076097905    -1.118521931638     0.308658318750    30.973761998420
         P           -2.694582097905     0.500539068362    -0.184835681250    30.973761998420
         O            1.967724902095     1.631910068362    -0.168398681250    15.994914619570
         O            1.265210902095    -0.853151931638    -0.529145681250    15.994914619570
         O            3.282198902095     0.117867068362    -1.681986681250    15.994914619570
         O            3.343201902095    -0.268351931638     0.918141318750    15.994914619570
         O           -0.965551197905     0.194540468362    -0.198754481250    15.994914619570
         O            0.107553902095    -1.054744931638     1.798071318750    15.994914619570
         O           -0.691703997905    -2.412268031638    -0.277775781250    15.994914619570
         O           -3.218500097905    -0.243448931638     1.057277318750    15.994914619570
         O           -2.698581097905     2.033747068362    -0.080067681250    15.994914619570
         O           -3.197122097905    -0.050141931638    -1.531503681250    15.994914619570
         C            1.435936902095     1.993227068362     1.121161318750    12.000000000000
         H            1.031213902095     1.126750068362     1.643740318750     1.007825032230
         H            2.216984902095     2.464287068362     1.726191318750     1.007825032230
         H            0.630335902095     2.706982068362     0.942352318750     1.007825032230

  Basis Set: AUG-CC-PVTZ
    Blend: AUG-CC-PVTZ
  Basis Set: (AUG-CC-PVTZ AUX)
    Blend: AUG-CC-PVTZ-JKFIT
	 Reference Energy          =   -1810.6887454816319405 [Eh]
	 Singles Energy            =      -0.0000000000000000 [Eh]
	 Same-Spin Energy          =      -0.9130759236757383 [Eh]
	 Opposite-Spin Energy      =      -2.5259496636685355 [Eh]
	 Correlation Energy        =      -3.4390255873442737 [Eh]
	 Total Energy              =   -1814.1277710689762444 [Eh]

	 ================> DF-SCS-MP2 Energies <==================
	-----------------------------------------------------------
	 SCS Same-Spin Scale       =       0.3333333333333333 [-]
	 SCS Opposite-Spin Scale   =       1.2000000000000000 [-]
	 SCS Same-Spin Energy      =      -0.3043586412252461 [Eh]
	 SCS Opposite-Spin Energy  =      -3.0311395964022423 [Eh]
	 SCS Correlation Energy    =      -3.3354982376274882 [Eh]
	 SCS Total Energy          =   -1814.0242437192594025 [Eh]
	-----------------------------------------------------------

  Dipole Moment: [D]
     X:     9.1644      Y:     2.3530      Z:     1.5742     Total:     9.5917

*** Psi4 exiting successfully. Buy a developer a beer!
