                               Psi4 1.3.2 release

  ==> Input File <==

--------------------------------------------------------------------------
#psi4
#
memory 32 gb

molecule  {
-4 1
  P        2.5828670     0.0826120    -0.3559070
  P       -0.1833470    -1.1435920     0.2927960
  P       -2.7088530     0.4754690    -0.2006980
  O        2.0293793     1.4229742    -0.2049665
  O        1.2509400    -0.8782220    -0.5450080
  O        3.2679280     0.0927970    -1.6978490
  O        3.3289310    -0.2934220     0.9022790
  O       -0.9881700     0.1612780    -0.2225170
  O        0.0932830    -1.0798150     1.7822090
  O       -0.7150640    -2.4305380    -0.3003910
  O       -3.2327710    -0.2685190     1.0414150
  O       -2.7128520     2.0086770    -0.0959300
  O       -3.2113930    -0.0752120    -1.5473660
  C        1.4216660     1.9681570     1.1052990
  H        1.0169430     1.1016800     1.6278780
  H        2.2027140     2.4392170     1.7103290
  H        0.6160650     2.6819120     0.9264900
units angstrom
no_reorient  #important for SAPT in psi4, default
symmetry c1  #important for SAPT in psi4, default
}

set PROPERTIES_ORIGIN ["COM"]
properties('MP2/aug-cc-pvtz', properties = ['dipole'])
--------------------------------------------------------------------------

    Molecular point group: c1
  Charge       = -4
  Multiplicity = 1
  Basis Set: AUG-CC-PVTZ
    Blend: AUG-CC-PVTZ
  Basis Set: (AUG-CC-PVTZ AUX)
    Blend: AUG-CC-PVTZ-JKFIT

    Orbital Energies [Eh]
    ---------------------

    Doubly Occupied:

       1A    -79.540693     2A    -79.522585     3A    -79.480565
       4A    -20.086116     5A    -20.021284     6A    -19.992316
       7A    -19.983482     8A    -19.983140     9A    -19.947906
      10A    -19.940853    11A    -19.926024    12A    -19.919524
      13A    -19.917936    14A    -10.842650    15A     -7.060268
      16A     -7.035451    17A     -6.994070    18A     -4.960396
      19A     -4.957656    20A     -4.956837    21A     -4.934632
      22A     -4.933432    23A     -4.932484    24A     -4.893516
      25A     -4.891372    26A     -4.891195    27A     -0.938854
      28A     -0.837544    29A     -0.795299    30A     -0.767400
      31A     -0.742200    32A     -0.737637    33A     -0.712928
      34A     -0.696205    35A     -0.664923    36A     -0.659480
      37A     -0.500567    38A     -0.287885    39A     -0.239067
      40A     -0.191905    41A     -0.174651    42A     -0.162410
      43A     -0.118549    44A     -0.099412    45A     -0.080910
      46A     -0.064493    47A     -0.059797    48A     -0.048042
      49A     -0.031103    50A     -0.014649    51A     -0.008205
      52A      0.001200    53A      0.010281    54A      0.019219
      55A      0.026979    56A      0.045109    57A      0.051803
      58A      0.069391    59A      0.075203    60A      0.084574
      61A      0.095316    62A      0.100128    63A      0.102741
      64A      0.104265    65A      0.116924    66A      0.127662
      67A      0.143494    68A      0.150310    69A      0.171131

  @DF-RHF Final Energy: -1810.65997466321505

   => Energetics <=

    Nuclear Repulsion Energy =           1469.9487233357879177
    One-Electron Energy =               -5515.8478534532023332
    Two-Electron Energy =                2235.2391554541995902
    Total Energy =                      -1810.6599746632150527
  Basis Set: (AUG-CC-PVTZ AUX)
    Blend: AUG-CC-PVTZ-RI
    Molecular point group: c1

    Geometry (in Angstrom), charge = -4, multiplicity = 1:

       Center              X                  Y                   Z               Mass
    ------------   -----------------  -----------------  -----------------  -----------------
         P            2.593645790706     0.118743116827    -0.337933555268    30.973761998420
         P           -0.172568209294    -1.107460883173     0.310769444732    30.973761998420
         P           -2.698074209294     0.511600116827    -0.182724555268    30.973761998420
         O            2.040158090706     1.459105316827    -0.186993055268    15.994914619570
         O            1.261718790706    -0.842090883173    -0.527034555268    15.994914619570
         O            3.278706790706     0.128928116827    -1.679875555268    15.994914619570
         O            3.339709790706    -0.257290883173     0.920252444732    15.994914619570
         O           -0.977391209294     0.197409116827    -0.204543555268    15.994914619570
         O            0.104061790706    -1.043683883173     1.800182444732    15.994914619570
         O           -0.704285209294    -2.394406883173    -0.282417555268    15.994914619570
         O           -3.221992209294    -0.232387883173     1.059388444732    15.994914619570
         O           -2.702073209294     2.044808116827    -0.077956555268    15.994914619570
         O           -3.200614209294    -0.039080883173    -1.529392555268    15.994914619570
         C            1.432444790706     2.004288116827     1.123272444732    12.000000000000
         H            1.027721790706     1.137811116827     1.645851444732     1.007825032230
         H            2.213492790706     2.475348116827     1.728302444732     1.007825032230
         H            0.626843790706     2.718043116827     0.944463444732     1.007825032230

  Basis Set: AUG-CC-PVTZ
    Blend: AUG-CC-PVTZ
  Basis Set: (AUG-CC-PVTZ AUX)
    Blend: AUG-CC-PVTZ-JKFIT
	 Reference Energy          =   -1810.6599746632150527 [Eh]
	 Singles Energy            =      -0.0000000000000000 [Eh]
	 Same-Spin Energy          =      -0.9114429273352496 [Eh]
	 Opposite-Spin Energy      =      -2.5215864853967611 [Eh]
	 Correlation Energy        =      -3.4330294127320107 [Eh]
	 Total Energy              =   -1814.0930040759469648 [Eh]

	 ================> DF-SCS-MP2 Energies <==================
	-----------------------------------------------------------
	 SCS Same-Spin Scale       =       0.3333333333333333 [-]
	 SCS Opposite-Spin Scale   =       1.2000000000000000 [-]
	 SCS Same-Spin Energy      =      -0.3038143091117498 [Eh]
	 SCS Opposite-Spin Energy  =      -3.0259037824761132 [Eh]
	 SCS Correlation Energy    =      -3.3297180915878632 [Eh]
	 SCS Total Energy          =   -1813.9896927548029453 [Eh]
	-----------------------------------------------------------

  Dipole Moment: [D]
     X:     8.8042      Y:     3.4612      Z:     2.0621     Total:     9.6823

*** Psi4 exiting successfully. Buy a developer a beer!
