                               Psi4 1.3.2 release

  ==> Input File <==

--------------------------------------------------------------------------
#psi4
#
memory 32 gb

molecule  {
-4 1
  P        2.5828670     0.0826120    -0.3559070
  P       -0.1833470    -1.1435920     0.2927960
  P       -2.7088530     0.4754690    -0.2006980
  O        1.9534540     1.6068400    -0.1842610
  O        1.2509400    -0.8782220    -0.5450080
  O        3.3343335     0.0701370    -1.6618025
  O        3.3936648    -0.3042322     0.8581785
  O       -0.9881700     0.1612780    -0.2225170
  O        0.0932830    -1.0798150     1.7822090
  O       -0.7150640    -2.4305380    -0.3003910
  O       -3.2327710    -0.2685190     1.0414150
  O       -2.7128520     2.0086770    -0.0959300
  O       -3.2113930    -0.0752120    -1.5473660
  C        1.4216660     1.9681570     1.1052990
  H        1.0169430     1.1016800     1.6278780
  H        2.2027140     2.4392170     1.7103290
  H        0.6160650     2.6819120     0.9264900
units angstrom
no_reorient  #important for SAPT in psi4, default
symmetry c1  #important for SAPT in psi4, default
}

set PROPERTIES_ORIGIN ["COM"]
properties('MP2/aug-cc-pvtz', properties = ['dipole'])
--------------------------------------------------------------------------

    Molecular point group: c1
  Charge       = -4
  Multiplicity = 1
  Basis Set: AUG-CC-PVTZ
    Blend: AUG-CC-PVTZ
  Basis Set: (AUG-CC-PVTZ AUX)
    Blend: AUG-CC-PVTZ-JKFIT

    Orbital Energies [Eh]
    ---------------------

    Doubly Occupied:

       1A    -79.572285     2A    -79.529692     3A    -79.481419
       4A    -20.090066     5A    -20.043521     6A    -19.997826
       7A    -19.997783     8A    -19.995234     9A    -19.952864
      10A    -19.947464    11A    -19.925402    12A    -19.920622
      13A    -19.918837    14A    -10.815110    15A     -7.086124
      16A     -7.042640    17A     -6.994932    18A     -4.985040
      19A     -4.983916    20A     -4.983452    21A     -4.941938
      22A     -4.940507    23A     -4.939582    24A     -4.894400
      25A     -4.892200    26A     -4.892050    27A     -0.904009
      28A     -0.849042    29A     -0.807731    30A     -0.780391
      31A     -0.750218    32A     -0.744453    33A     -0.715535
      34A     -0.702035    35A     -0.664926    36A     -0.660504
      37A     -0.470139    38A     -0.296901    39A     -0.237104
      40A     -0.186417    41A     -0.166425    42A     -0.151433
      43A     -0.126033    44A     -0.100675    45A     -0.083399
      46A     -0.067227    47A     -0.052006    48A     -0.045871
      49A     -0.033595    50A     -0.017678    51A     -0.009183
      52A     -0.001567    53A      0.007858    54A      0.015113
      55A      0.019656    56A      0.036996    57A      0.045360
      58A      0.056953    59A      0.066824    60A      0.075014
      61A      0.088951    62A      0.098819    63A      0.100533
      64A      0.102256    65A      0.111732    66A      0.123018
      67A      0.142948    68A      0.148896    69A      0.170617

  @DF-RHF Final Energy: -1810.68974285476747

   => Energetics <=

    Nuclear Repulsion Energy =           1461.2171830354047870
    One-Electron Energy =               -5497.8581390553927122
    Two-Electron Energy =                2225.9512131652204516
    Total Energy =                      -1810.6897428547677009
  Basis Set: (AUG-CC-PVTZ AUX)
    Blend: AUG-CC-PVTZ-RI
    Molecular point group: c1

    Geometry (in Angstrom), charge = -4, multiplicity = 1:

       Center              X                  Y                   Z               Mass
    ------------   -----------------  -----------------  -----------------  -----------------
         P            2.590349175173     0.109763574121    -0.338688927663    30.973761998420
         P           -0.175864824827    -1.116440425879     0.310014072337    30.973761998420
         P           -2.701370824827     0.502620574121    -0.183479927663    30.973761998420
         O            1.960936175173     1.633991574121    -0.167042927663    15.994914619570
         O            1.258422175173    -0.851070425879    -0.527789927663    15.994914619570
         O            3.341815675173     0.097288574121    -1.644584427663    15.994914619570
         O            3.401146975173    -0.277080625879     0.875396572337    15.994914619570
         O           -0.980687824827     0.188429574121    -0.205298927663    15.994914619570
         O            0.100765175173    -1.052663425879     1.799427072337    15.994914619570
         O           -0.707581824827    -2.403386425879    -0.283172927663    15.994914619570
         O           -3.225288824827    -0.241367425879     1.058633072337    15.994914619570
         O           -2.705369824827     2.035828574121    -0.078711927663    15.994914619570
         O           -3.203910824827    -0.048060425879    -1.530147927663    15.994914619570
         C            1.429148175173     1.995308574121     1.122517072337    12.000000000000
         H            1.024425175173     1.128831574121     1.645096072337     1.007825032230
         H            2.210196175173     2.466368574121     1.727547072337     1.007825032230
         H            0.623547175173     2.709063574121     0.943708072337     1.007825032230

  Basis Set: AUG-CC-PVTZ
    Blend: AUG-CC-PVTZ
  Basis Set: (AUG-CC-PVTZ AUX)
    Blend: AUG-CC-PVTZ-JKFIT
	 Reference Energy          =   -1810.6897428547674735 [Eh]
	 Singles Energy            =      -0.0000000000000000 [Eh]
	 Same-Spin Energy          =      -0.9127279296794019 [Eh]
	 Opposite-Spin Energy      =      -2.5252663120816812 [Eh]
	 Correlation Energy        =      -3.4379942417610829 [Eh]
	 Total Energy              =   -1814.1277370965285627 [Eh]

	 ================> DF-SCS-MP2 Energies <==================
	-----------------------------------------------------------
	 SCS Same-Spin Scale       =       0.3333333333333333 [-]
	 SCS Opposite-Spin Scale   =       1.2000000000000000 [-]
	 SCS Same-Spin Energy      =      -0.3042426432264673 [Eh]
	 SCS Opposite-Spin Energy  =      -3.0303195744980171 [Eh]
	 SCS Correlation Energy    =      -3.3345622177244842 [Eh]
	 SCS Total Energy          =   -1814.0243050724918703 [Eh]
	-----------------------------------------------------------

  Dipole Moment: [D]
     X:     8.8312      Y:     2.4254      Z:     1.6509     Total:     9.3058

*** Psi4 exiting successfully. Buy a developer a beer!
