                               Psi4 1.3.2 release

  ==> Input File <==

--------------------------------------------------------------------------
#psi4
#
memory 32 gb

molecule  {
-4 1
  P        2.5828670     0.0826120    -0.3559070
  P       -0.1833470    -1.1435920     0.2927960
  P       -2.7088530     0.4754690    -0.2006980
  O        1.9534540     1.6068400    -0.1842610
  O        1.2590101    -0.8292589    -0.5136262
  O        3.2679280     0.0927970    -1.6978490
  O        3.3289310    -0.2934220     0.9022790
  O       -0.9881700     0.1612780    -0.2225170
  O        0.0932830    -1.0798150     1.7822090
  O       -0.7565609    -2.4273052    -0.2678553
  O       -3.2327710    -0.2685190     1.0414150
  O       -2.7128520     2.0086770    -0.0959300
  O       -3.2113930    -0.0752120    -1.5473660
  C        1.4216660     1.9681570     1.1052990
  H        1.0169430     1.1016800     1.6278780
  H        2.2027140     2.4392170     1.7103290
  H        0.6160650     2.6819120     0.9264900
units angstrom
no_reorient  #important for SAPT in psi4, default
symmetry c1  #important for SAPT in psi4, default
}

set PROPERTIES_ORIGIN ["COM"]
properties('MP2/aug-cc-pvtz', properties = ['dipole'])
--------------------------------------------------------------------------

    Molecular point group: c1
  Charge       = -4
  Multiplicity = 1
  Basis Set: AUG-CC-PVTZ
    Blend: AUG-CC-PVTZ
  Basis Set: (AUG-CC-PVTZ AUX)
    Blend: AUG-CC-PVTZ-JKFIT

    Orbital Energies [Eh]
    ---------------------

    Doubly Occupied:

       1A    -79.569592     2A    -79.529836     3A    -79.479322
       4A    -20.081689     5A    -20.040258     6A    -20.002104
       7A    -20.000139     8A    -19.992291     9A    -19.949921
      10A    -19.947949    11A    -19.923441    12A    -19.918963
      13A    -19.916565    14A    -10.809668    15A     -7.083844
      16A     -7.042557    17A     -6.992826    18A     -4.982884
      19A     -4.981910    20A     -4.981023    21A     -4.941883
      22A     -4.940403    23A     -4.939512    24A     -4.892286
      25A     -4.890102    26A     -4.889955    27A     -0.903285
      28A     -0.849389    29A     -0.806631    30A     -0.779216
      31A     -0.756296    32A     -0.744552    33A     -0.713458
      34A     -0.700295    35A     -0.662960    36A     -0.658513
      37A     -0.464696    38A     -0.303410    39A     -0.233119
      40A     -0.184081    41A     -0.163137    42A     -0.147185
      43A     -0.126151    44A     -0.099574    45A     -0.086281
      46A     -0.066655    47A     -0.051332    48A     -0.044632
      49A     -0.030656    50A     -0.017561    51A     -0.007192
      52A      0.000981    53A      0.010044    54A      0.014350
      55A      0.021141    56A      0.038741    57A      0.047690
      58A      0.055128    59A      0.065764    60A      0.071586
      61A      0.088470    62A      0.100757    63A      0.102729
      64A      0.104416    65A      0.113377    66A      0.124999
      67A      0.145048    68A      0.150884    69A      0.172571

  @DF-RHF Final Energy: -1810.69089713938001

   => Energetics <=

    Nuclear Repulsion Energy =           1464.6355163922726206
    One-Electron Energy =               -5504.8678249455515470
    Two-Electron Energy =                2229.5414114138989135
    Total Energy =                      -1810.6908971393800130
  Basis Set: (AUG-CC-PVTZ AUX)
    Blend: AUG-CC-PVTZ-RI
    Molecular point group: c1

    Geometry (in Angstrom), charge = -4, multiplicity = 1:

       Center              X                  Y                   Z               Mass
    ------------   -----------------  -----------------  -----------------  -----------------
         P            2.600174783920     0.104648780847    -0.342986069055    30.973761998420
         P           -0.166039216080    -1.121555219153     0.305716930945    30.973761998420
         P           -2.691545216080     0.497505780847    -0.187777069055    30.973761998420
         O            1.970761783920     1.628876780847    -0.171340069055    15.994914619570
         O            1.276317883920    -0.807222119153    -0.500705269055    15.994914619570
         O            3.285235783920     0.114833780847    -1.684928069055    15.994914619570
         O            3.346238783920    -0.271385219153     0.915199930945    15.994914619570
         O           -0.970862216080     0.183314780847    -0.209596069055    15.994914619570
         O            0.110590783920    -1.057778219153     1.795129930945    15.994914619570
         O           -0.739253116080    -2.405268419153    -0.254934369055    15.994914619570
         O           -3.215463216080    -0.246482219153     1.054335930945    15.994914619570
         O           -2.695544216080     2.030713780847    -0.083009069055    15.994914619570
         O           -3.194085216080    -0.053175219153    -1.534445069055    15.994914619570
         C            1.438973783920     1.990193780847     1.118219930945    12.000000000000
         H            1.034250783920     1.123716780847     1.640798930945     1.007825032230
         H            2.220021783920     2.461253780847     1.723249930945     1.007825032230
         H            0.633372783920     2.703948780847     0.939410930945     1.007825032230

  Basis Set: AUG-CC-PVTZ
    Blend: AUG-CC-PVTZ
  Basis Set: (AUG-CC-PVTZ AUX)
    Blend: AUG-CC-PVTZ-JKFIT
	 Reference Energy          =   -1810.6908971393800130 [Eh]
	 Singles Energy            =      -0.0000000000000000 [Eh]
	 Same-Spin Energy          =      -0.9125883270781067 [Eh]
	 Opposite-Spin Energy      =      -2.5244967977874051 [Eh]
	 Correlation Energy        =      -3.4370851248655119 [Eh]
	 Total Energy              =   -1814.1279822642454747 [Eh]

	 ================> DF-SCS-MP2 Energies <==================
	-----------------------------------------------------------
	 SCS Same-Spin Scale       =       0.3333333333333333 [-]
	 SCS Opposite-Spin Scale   =       1.2000000000000000 [-]
	 SCS Same-Spin Energy      =      -0.3041961090260356 [Eh]
	 SCS Opposite-Spin Energy  =      -3.0293961573448862 [Eh]
	 SCS Correlation Energy    =      -3.3335922663709217 [Eh]
	 SCS Total Energy          =   -1814.0244894057509555 [Eh]
	-----------------------------------------------------------

  Dipole Moment: [D]
     X:     9.1877      Y:     2.1469      Z:     1.4780     Total:     9.5502

*** Psi4 exiting successfully. Buy a developer a beer!
