                               Psi4 1.3.2 release

  ==> Input File <==

--------------------------------------------------------------------------
#psi4
#
memory 32 gb

molecule  {
-4 1
  P        2.5828670     0.0826120    -0.3559070
  P       -0.1833470    -1.1435920     0.2927960
  P       -2.7088530     0.4754690    -0.2006980
  O        1.9534540     1.6068400    -0.1842610
  O        1.3315078    -0.8201015    -0.5335694
  O        3.2679280     0.0927970    -1.6978490
  O        3.3289310    -0.2934220     0.9022790
  O       -0.9881700     0.1612780    -0.2225170
  O        0.0932830    -1.0798150     1.7822090
  O       -0.7150640    -2.4305380    -0.3003910
  O       -3.2327710    -0.2685190     1.0414150
  O       -2.7128520     2.0086770    -0.0959300
  O       -3.2113930    -0.0752120    -1.5473660
  C        1.4216660     1.9681570     1.1052990
  H        1.0169430     1.1016800     1.6278780
  H        2.2027140     2.4392170     1.7103290
  H        0.6160650     2.6819120     0.9264900
units angstrom
no_reorient  #important for SAPT in psi4, default
symmetry c1  #important for SAPT in psi4, default
}

set PROPERTIES_ORIGIN ["COM"]
properties('MP2/aug-cc-pvtz', properties = ['dipole'])
--------------------------------------------------------------------------

    Molecular point group: c1
  Charge       = -4
  Multiplicity = 1
  Basis Set: AUG-CC-PVTZ
    Blend: AUG-CC-PVTZ
  Basis Set: (AUG-CC-PVTZ AUX)
    Blend: AUG-CC-PVTZ-JKFIT

    Orbital Energies [Eh]
    ---------------------

    Doubly Occupied:

       1A    -79.553142     2A    -79.542104     3A    -79.484239
       4A    -20.075759     5A    -20.035515     6A    -20.001231
       7A    -19.990421     8A    -19.989449     9A    -19.959589
      10A    -19.958092    11A    -19.927137    12A    -19.923017
      13A    -19.921462    14A    -10.807466    15A     -7.069164
      16A     -7.054044    17A     -6.997769    18A     -4.968202
      19A     -4.967311    20A     -4.966230    21A     -4.953314
      22A     -4.951811    23A     -4.950865    24A     -4.897271
      25A     -4.894998    26A     -4.894859    27A     -0.901243
      28A     -0.846717    29A     -0.810748    30A     -0.773324
      31A     -0.751398    32A     -0.746248    33A     -0.719681
      34A     -0.709411    35A     -0.666936    36A     -0.663042
      37A     -0.461585    38A     -0.296832    39A     -0.232663
      40A     -0.184138    41A     -0.161358    42A     -0.143397
      43A     -0.123290    44A     -0.101970    45A     -0.084371
      46A     -0.068172    47A     -0.050503    48A     -0.046903
      49A     -0.033333    50A     -0.018597    51A     -0.003156
      52A     -0.000511    53A      0.008878    54A      0.018258
      55A      0.020564    56A      0.039517    57A      0.046452
      58A      0.061863    59A      0.065349    60A      0.076382
      61A      0.085524    62A      0.095649    63A      0.097965
      64A      0.099548    65A      0.105768    66A      0.116431
      67A      0.140480    68A      0.146000    69A      0.168379

  @DF-RHF Final Energy: -1810.68863235394292

   => Energetics <=

    Nuclear Repulsion Energy =           1463.9164204561752740
    One-Electron Energy =               -5503.3281408501652550
    Two-Electron Energy =                2228.7230880400470596
    Total Energy =                      -1810.6886323539429213
  Basis Set: (AUG-CC-PVTZ AUX)
    Blend: AUG-CC-PVTZ-RI
    Molecular point group: c1

    Geometry (in Angstrom), charge = -4, multiplicity = 1:

       Center              X                  Y                   Z               Mass
    ------------   -----------------  -----------------  -----------------  -----------------
         P            2.593368604890     0.104295045773    -0.339852755821    30.973761998420
         P           -0.172845395110    -1.121908954227     0.308850244179    30.973761998420
         P           -2.698351395110     0.497152045773    -0.184643755821    30.973761998420
         O            1.963955604890     1.628523045773    -0.168206755821    15.994914619570
         O            1.342009404890    -0.798418454227    -0.517515155821    15.994914619570
         O            3.278429604890     0.114480045773    -1.681794755821    15.994914619570
         O            3.339432604890    -0.271738954227     0.918333244179    15.994914619570
         O           -0.977668395110     0.182961045773    -0.206462755821    15.994914619570
         O            0.103784604890    -1.058131954227     1.798263244179    15.994914619570
         O           -0.704562395110    -2.408854954227    -0.284336755821    15.994914619570
         O           -3.222269395110    -0.246835954227     1.057469244179    15.994914619570
         O           -2.702350395110     2.030360045773    -0.079875755821    15.994914619570
         O           -3.200891395110    -0.053528954227    -1.531311755821    15.994914619570
         C            1.432167604890     1.989840045773     1.121353244179    12.000000000000
         H            1.027444604890     1.123363045773     1.643932244179     1.007825032230
         H            2.213215604890     2.460900045773     1.726383244179     1.007825032230
         H            0.626566604890     2.703595045773     0.942544244179     1.007825032230

  Basis Set: AUG-CC-PVTZ
    Blend: AUG-CC-PVTZ
  Basis Set: (AUG-CC-PVTZ AUX)
    Blend: AUG-CC-PVTZ-JKFIT
	 Reference Energy          =   -1810.6886323539429213 [Eh]
	 Singles Energy            =      -0.0000000000000000 [Eh]
	 Same-Spin Energy          =      -0.9126056390603352 [Eh]
	 Opposite-Spin Energy      =      -2.5245447349454100 [Eh]
	 Correlation Energy        =      -3.4371503740057454 [Eh]
	 Total Energy              =   -1814.1257827279487174 [Eh]

	 ================> DF-SCS-MP2 Energies <==================
	-----------------------------------------------------------
	 SCS Same-Spin Scale       =       0.3333333333333333 [-]
	 SCS Opposite-Spin Scale   =       1.2000000000000000 [-]
	 SCS Same-Spin Energy      =      -0.3042018796867784 [Eh]
	 SCS Opposite-Spin Energy  =      -3.0294536819344917 [Eh]
	 SCS Correlation Energy    =      -3.3336555616212702 [Eh]
	 SCS Total Energy          =   -1814.0222879155642204 [Eh]
	-----------------------------------------------------------

  Dipole Moment: [D]
     X:     8.1881      Y:     1.8779      Z:     1.7227     Total:     8.5755

*** Psi4 exiting successfully. Buy a developer a beer!
