                               Psi4 1.4a3.dev225

  ==> Input File <==

--------------------------------------------------------------------------
#psi4
#
memory 32 gb

molecule  {
-4 1
  P       -2.5202440    -0.2449420     0.3712220
  P        0.3565170    -0.5960480    -0.3589090
  P        3.1750170     0.3881900     0.1554910
  O       -2.7927880     1.3311510    -0.1150520
  O       -0.9169740    -0.0836090     0.6422800
  O       -3.1856250    -0.4605710     1.7148300
  O       -2.8507450    -1.1694890    -0.7786080
  O        1.4898640     0.0841660     0.5723090
  O        0.2127210     0.0849480    -1.7048820
  O        0.4027150    -2.1095660    -0.2874290
  O        3.5327910    -0.6840640    -0.8835370
  O        3.1643710     1.8286230    -0.3742880
  O        3.8338960     0.2099350     1.5311200
  C       -4.1210561     1.5853562    -0.5195084
  H       -4.4292020     0.9309370    -1.3496150
  H       -4.8386320     1.4471050     0.3059850
  H       -4.1840730     2.6280350    -0.8559160
units angstrom
no_reorient  #important for SAPT in psi4, default
symmetry c1  #important for SAPT in psi4, default
}

set PROPERTIES_ORIGIN ["COM"]
properties('MP2/aug-cc-pvtz', properties = ['dipole'])
--------------------------------------------------------------------------

    Molecular point group: c1
  Charge       = -4
  Multiplicity = 1
  Basis Set: AUG-CC-PVTZ
    Blend: AUG-CC-PVTZ
  Basis Set: (AUG-CC-PVTZ AUX)
    Blend: AUG-CC-PVTZ-JKFIT

    Orbital Energies [Eh]
    ---------------------

    Doubly Occupied:

       1A    -79.581707     2A    -79.517576     3A    -79.475638
       4A    -20.120364     5A    -20.042363     6A    -20.015733
       7A    -20.005664     8A    -19.984567     9A    -19.937257
      10A    -19.935608    11A    -19.922153    12A    -19.917232
      13A    -19.913396    14A    -10.884237    15A     -7.095997
      16A     -7.030642    17A     -6.989396    18A     -4.995163
      19A     -4.993816    20A     -4.992911    21A     -4.930045
      22A     -4.928460    23A     -4.927318    24A     -4.888792
      25A     -4.886683    26A     -4.886554    27A     -0.937757
      28A     -0.855175    29A     -0.807835    30A     -0.778273
      31A     -0.761890    32A     -0.736807    33A     -0.706206
      34A     -0.687317    35A     -0.662165    36A     -0.657459
      37A     -0.525339    38A     -0.311133    39A     -0.253300
      40A     -0.220111    41A     -0.199053    42A     -0.167390
      43A     -0.139830    44A     -0.107715    45A     -0.094082
      46A     -0.079250    47A     -0.062964    48A     -0.052183
      49A     -0.035318    50A     -0.024936    51A     -0.012985
      52A     -0.010068    53A      0.008908    54A      0.011211
      55A      0.022731    56A      0.033637    57A      0.047310
      58A      0.054472    59A      0.061486    60A      0.080835
      61A      0.097150    62A      0.103168    63A      0.106861
      64A      0.107895    65A      0.124496    66A      0.134984
      67A      0.147785    68A      0.154135    69A      0.174344

  @DF-RHF Final Energy: -1810.67647113218004

   => Energetics <=

    Nuclear Repulsion Energy =           1426.1757335541551583
    One-Electron Energy =               -5427.2756016049070240
    Two-Electron Energy =                2190.4233969185715978
    Total Energy =                      -1810.6764711321802679
  Basis Set: (AUG-CC-PVTZ AUX)
    Blend: AUG-CC-PVTZ-RI
    Molecular point group: c1

    Geometry (in Angstrom), charge = -4, multiplicity = 1:

       Center              X                  Y                   Z               Mass
    ------------   -----------------  -----------------  -----------------  -----------------
         P           -2.574528668935    -0.224612734937     0.363326010082    30.973761998420
         P            0.302232331065    -0.575718734937    -0.366804989918    30.973761998420
         P            3.120732331065     0.408519265063     0.147595010082    30.973761998420
         O           -2.847072668935     1.351480265063    -0.122947989918    15.994914619570
         O           -0.971258668935    -0.063279734937     0.634384010082    15.994914619570
         O           -3.239909668935    -0.440241734937     1.706934010082    15.994914619570
         O           -2.905029668935    -1.149159734937    -0.786503989918    15.994914619570
         O            1.435579331065     0.104495265063     0.564413010082    15.994914619570
         O            0.158436331065     0.105277265063    -1.712777989918    15.994914619570
         O            0.348430331065    -2.089236734937    -0.295324989918    15.994914619570
         O            3.478506331065    -0.663734734937    -0.891432989918    15.994914619570
         O            3.110086331065     1.848952265063    -0.382183989918    15.994914619570
         O            3.779611331065     0.230264265063     1.523224010082    15.994914619570
         C           -4.175340768935     1.605685465063    -0.527404389918    12.000000000000
         H           -4.483486668935     0.951266265063    -1.357510989918     1.007825032230
         H           -4.892916668935     1.467434265063     0.298089010082     1.007825032230
         H           -4.238357668935     2.648364265063    -0.863811989918     1.007825032230

  Basis Set: AUG-CC-PVTZ
    Blend: AUG-CC-PVTZ
  Basis Set: (AUG-CC-PVTZ AUX)
    Blend: AUG-CC-PVTZ-JKFIT
	 Reference Energy          =   -1810.6764711321800405 [Eh]
	 Singles Energy            =      -0.0000000000000000 [Eh]
	 Same-Spin Energy          =      -0.9123667353818672 [Eh]
	 Opposite-Spin Energy      =      -2.5249553734560028 [Eh]
	 Correlation Energy        =      -3.4373221088378703 [Eh]
	 Total Energy              =   -1814.1137932410179019 [Eh]

	 ================> DF-SCS-MP2 Energies <==================
	-----------------------------------------------------------
	 SCS Same-Spin Scale       =       0.3333333333333333 [-]
	 SCS Opposite-Spin Scale   =       1.2000000000000000 [-]
	 SCS Same-Spin Energy      =      -0.3041222451272890 [Eh]
	 SCS Opposite-Spin Energy  =      -3.0299464481472032 [Eh]
	 SCS Correlation Energy    =      -3.3340686932744923 [Eh]
	 SCS Total Energy          =   -1814.0105398254545435 [Eh]
	-----------------------------------------------------------

  Dipole Moment: [D]
     X:   -14.8929      Y:     2.6702      Z:     0.0342     Total:    15.1305

*** Psi4 exiting successfully. Buy a developer a beer!
