                               Psi4 1.3.2 release

  ==> Input File <==

--------------------------------------------------------------------------
#psi4
#
memory 32 gb

molecule  {
-4 1
  P        2.5828670     0.0826120    -0.3559070
  P       -0.1833470    -1.1435920     0.2927960
  P       -2.7088530     0.4754690    -0.2006980
  O        1.9863400     1.6267133    -0.2620948
  O        1.2509400    -0.8782220    -0.5450080
  O        3.2455972     0.1679729    -1.7063598
  O        3.3289310    -0.2934220     0.9022790
  O       -0.9881700     0.1612780    -0.2225170
  O        0.0932830    -1.0798150     1.7822090
  O       -0.7150640    -2.4305380    -0.3003910
  O       -3.2327710    -0.2685190     1.0414150
  O       -2.7128520     2.0086770    -0.0959300
  O       -3.2113930    -0.0752120    -1.5473660
  C        1.4216660     1.9681570     1.1052990
  H        1.0169430     1.1016800     1.6278780
  H        2.2027140     2.4392170     1.7103290
  H        0.6160650     2.6819120     0.9264900
units angstrom
no_reorient  #important for SAPT in psi4, default
symmetry c1  #important for SAPT in psi4, default
}

set PROPERTIES_ORIGIN ["COM"]
properties('MP2/aug-cc-pvtz', properties = ['dipole'])
--------------------------------------------------------------------------

    Molecular point group: c1
  Charge       = -4
  Multiplicity = 1
  Basis Set: AUG-CC-PVTZ
    Blend: AUG-CC-PVTZ
  Basis Set: (AUG-CC-PVTZ AUX)
    Blend: AUG-CC-PVTZ-JKFIT

    Orbital Energies [Eh]
    ---------------------

    Doubly Occupied:

       1A    -79.570149     2A    -79.528153     3A    -79.480178
       4A    -20.085722     5A    -20.040407     6A    -20.006888
       7A    -19.995709     8A    -19.993570     9A    -19.951576
      10A    -19.946217    11A    -19.924143    12A    -19.919375
      13A    -19.917798    14A    -10.816674    15A     -7.084169
      16A     -7.041078    17A     -6.993685    18A     -4.983126
      19A     -4.982219    20A     -4.981256    21A     -4.940364
      22A     -4.938957    23A     -4.938037    24A     -4.893149
      25A     -4.890957    26A     -4.890808    27A     -0.890414
      28A     -0.840482    29A     -0.801714    30A     -0.777386
      31A     -0.757020    32A     -0.742833    33A     -0.714145
      34A     -0.700794    35A     -0.663700    36A     -0.659361
      37A     -0.466860    38A     -0.293096    39A     -0.227893
      40A     -0.179435    41A     -0.155414    42A     -0.134010
      43A     -0.125601    44A     -0.099397    45A     -0.080058
      46A     -0.066288    47A     -0.052390    48A     -0.046500
      49A     -0.033890    50A     -0.015995    51A     -0.008707
      52A     -0.001687    53A      0.009351    54A      0.015568
      55A      0.020547    56A      0.041295    57A      0.046962
      58A      0.052919    59A      0.067154    60A      0.070793
      61A      0.090337    62A      0.099994    63A      0.101859
      64A      0.103500    65A      0.112885    66A      0.124154
      67A      0.144164    68A      0.150147    69A      0.171785

  @DF-RHF Final Energy: -1810.67896820175611

   => Energetics <=

    Nuclear Repulsion Energy =           1461.3319103122091747
    One-Electron Energy =               -5498.3297227878983904
    Two-Electron Energy =                2226.3188442739328821
    Total Energy =                      -1810.6789682017561063
  Basis Set: (AUG-CC-PVTZ AUX)
    Blend: AUG-CC-PVTZ-RI
    Molecular point group: c1

    Geometry (in Angstrom), charge = -4, multiplicity = 1:

       Center              X                  Y                   Z               Mass
    ------------   -----------------  -----------------  -----------------  -----------------
         P            2.597548787899     0.102090175160    -0.334014497120    30.973761998420
         P           -0.168665212101    -1.124113824840     0.314688502880    30.973761998420
         P           -2.694171212101     0.494947175160    -0.178805497120    30.973761998420
         O            2.001021787899     1.646191475160    -0.240202297120    15.994914619570
         O            1.265621787899    -0.858743824840    -0.523115497120    15.994914619570
         O            3.260278987899     0.187451075160    -1.684467297120    15.994914619570
         O            3.343612787899    -0.273943824840     0.924171502880    15.994914619570
         O           -0.973488212101     0.180756175160    -0.200624497120    15.994914619570
         O            0.107964787899    -1.060336824840     1.804101502880    15.994914619570
         O           -0.700382212101    -2.411059824840    -0.278498497120    15.994914619570
         O           -3.218089212101    -0.249040824840     1.063307502880    15.994914619570
         O           -2.698170212101     2.028155175160    -0.074037497120    15.994914619570
         O           -3.196711212101    -0.055733824840    -1.525473497120    15.994914619570
         C            1.436347787899     1.987635175160     1.127191502880    12.000000000000
         H            1.031624787899     1.121158175160     1.649770502880     1.007825032230
         H            2.217395787899     2.458695175160     1.732221502880     1.007825032230
         H            0.630746787899     2.701390175160     0.948382502880     1.007825032230

  Basis Set: AUG-CC-PVTZ
    Blend: AUG-CC-PVTZ
  Basis Set: (AUG-CC-PVTZ AUX)
    Blend: AUG-CC-PVTZ-JKFIT
	 Reference Energy          =   -1810.6789682017561063 [Eh]
	 Singles Energy            =      -0.0000000000000000 [Eh]
	 Same-Spin Energy          =      -0.9138691401982282 [Eh]
	 Opposite-Spin Energy      =      -2.5286608725339201 [Eh]
	 Correlation Energy        =      -3.4425300127321483 [Eh]
	 Total Energy              =   -1814.1214982144881560 [Eh]

	 ================> DF-SCS-MP2 Energies <==================
	-----------------------------------------------------------
	 SCS Same-Spin Scale       =       0.3333333333333333 [-]
	 SCS Opposite-Spin Scale   =       1.2000000000000000 [-]
	 SCS Same-Spin Energy      =      -0.3046230467327427 [Eh]
	 SCS Opposite-Spin Energy  =      -3.0343930470407039 [Eh]
	 SCS Correlation Energy    =      -3.3390160937734468 [Eh]
	 SCS Total Energy          =   -1814.0179842955294589 [Eh]
	-----------------------------------------------------------

  Dipole Moment: [D]
     X:     9.1965      Y:     2.1985      Z:     1.8404     Total:     9.6331

*** Psi4 exiting successfully. Buy a developer a beer!
