                               Psi4 1.3.2 release

  ==> Input File <==

--------------------------------------------------------------------------
#psi4
#
memory 32 gb

molecule  {
-4 1
  P        2.6046611     0.0602149    -0.4044159
  P       -0.1986132    -1.1830654     0.2521005
  P       -2.7088530     0.4754690    -0.2006980
  O        1.9534540     1.6068400    -0.1842610
  O        1.2509400    -0.8782220    -0.5450080
  O        3.2679280     0.0927970    -1.6978490
  O        3.3289310    -0.2934220     0.9022790
  O       -0.9881700     0.1612780    -0.2225170
  O        0.0932830    -1.0798150     1.7822090
  O       -0.7150640    -2.4305380    -0.3003910
  O       -3.2327710    -0.2685190     1.0414150
  O       -2.7128520     2.0086770    -0.0959300
  O       -3.2113930    -0.0752120    -1.5473660
  C        1.4216660     1.9681570     1.1052990
  H        1.0169430     1.1016800     1.6278780
  H        2.2027140     2.4392170     1.7103290
  H        0.6160650     2.6819120     0.9264900
units angstrom
no_reorient  #important for SAPT in psi4, default
symmetry c1  #important for SAPT in psi4, default
}

set PROPERTIES_ORIGIN ["COM"]
properties('MP2/aug-cc-pvtz', properties = ['dipole'])
--------------------------------------------------------------------------

    Molecular point group: c1
  Charge       = -4
  Multiplicity = 1
  Basis Set: AUG-CC-PVTZ
    Blend: AUG-CC-PVTZ
  Basis Set: (AUG-CC-PVTZ AUX)
    Blend: AUG-CC-PVTZ-JKFIT

    Orbital Energies [Eh]
    ---------------------

    Doubly Occupied:

       1A    -79.571617     2A    -79.525916     3A    -79.477845
       4A    -20.073460     5A    -20.035919     6A    -20.013614
       7A    -19.997956     8A    -19.989899     9A    -19.956254
      10A    -19.939825    11A    -19.921947    12A    -19.918744
      13A    -19.915716    14A    -10.801834    15A     -7.085999
      16A     -7.039372    17A     -6.991377    18A     -4.984817
      19A     -4.984158    20A     -4.983139    21A     -4.938586
      22A     -4.937391    23A     -4.936175    24A     -4.890804
      25A     -4.888678    26A     -4.888531    27A     -0.892356
      28A     -0.840586    29A     -0.815924    30A     -0.782351
      31A     -0.757030    32A     -0.749570    33A     -0.716624
      34A     -0.686449    35A     -0.661887    36A     -0.657945
      37A     -0.454852    38A     -0.293673    39A     -0.224647
      40A     -0.177563    41A     -0.154689    42A     -0.139326
      43A     -0.125839    44A     -0.100163    45A     -0.086526
      46A     -0.065094    47A     -0.052854    48A     -0.038738
      49A     -0.026908    50A     -0.017550    51A     -0.005692
      52A      0.000824    53A      0.007698    54A      0.015855
      55A      0.021064    56A      0.032836    57A      0.049360
      58A      0.060901    59A      0.064758    60A      0.070396
      61A      0.080145    62A      0.102029    63A      0.105030
      64A      0.106693    65A      0.120392    66A      0.127462
      67A      0.146103    68A      0.152428    69A      0.173318

  @DF-RHF Final Energy: -1810.67930186676858

   => Energetics <=

    Nuclear Repulsion Energy =           1460.8384492294846950
    One-Electron Energy =               -5497.4812733962908169
    Two-Electron Energy =                2225.9635223000377664
    Total Energy =                      -1810.6793018667685828
  Basis Set: (AUG-CC-PVTZ AUX)
    Blend: AUG-CC-PVTZ-RI
    Molecular point group: c1

    Geometry (in Angstrom), charge = -4, multiplicity = 1:

       Center              X                  Y                   Z               Mass
    ------------   -----------------  -----------------  -----------------  -----------------
         P            2.619218345693     0.092521534064    -0.377364932100    30.973761998420
         P           -0.184055954307    -1.150758765936     0.279151467900    30.973761998420
         P           -2.694295754307     0.507775634064    -0.173647032100    30.973761998420
         O            1.968011245693     1.639146634064    -0.157210032100    15.994914619570
         O            1.265497245693    -0.845915365936    -0.517957032100    15.994914619570
         O            3.282485245693     0.125103634064    -1.670798032100    15.994914619570
         O            3.343488245693    -0.261115365936     0.929329967900    15.994914619570
         O           -0.973612754307     0.193584634064    -0.195466032100    15.994914619570
         O            0.107840245693    -1.047508365936     1.809259967900    15.994914619570
         O           -0.700506754307    -2.398231365936    -0.273340032100    15.994914619570
         O           -3.218213754307    -0.236212365936     1.068465967900    15.994914619570
         O           -2.698294754307     2.040983634064    -0.068879032100    15.994914619570
         O           -3.196835754307    -0.042905365936    -1.520315032100    15.994914619570
         C            1.436223245693     2.000463634064     1.132349967900    12.000000000000
         H            1.031500245693     1.133986634064     1.654928967900     1.007825032230
         H            2.217271245693     2.471523634064     1.737379967900     1.007825032230
         H            0.630622245693     2.714218634064     0.953540967900     1.007825032230

  Basis Set: AUG-CC-PVTZ
    Blend: AUG-CC-PVTZ
  Basis Set: (AUG-CC-PVTZ AUX)
    Blend: AUG-CC-PVTZ-JKFIT
	 Reference Energy          =   -1810.6793018667685828 [Eh]
	 Singles Energy            =      -0.0000000000000000 [Eh]
	 Same-Spin Energy          =      -0.9125984840235059 [Eh]
	 Opposite-Spin Energy      =      -2.5251097430643767 [Eh]
	 Correlation Energy        =      -3.4377082270878825 [Eh]
	 Total Energy              =   -1814.1170100938563792 [Eh]

	 ================> DF-SCS-MP2 Energies <==================
	-----------------------------------------------------------
	 SCS Same-Spin Scale       =       0.3333333333333333 [-]
	 SCS Opposite-Spin Scale   =       1.2000000000000000 [-]
	 SCS Same-Spin Energy      =      -0.3041994946745019 [Eh]
	 SCS Opposite-Spin Energy  =      -3.0301316916772518 [Eh]
	 SCS Correlation Energy    =      -3.3343311863517537 [Eh]
	 SCS Total Energy          =   -1814.0136330531204294 [Eh]
	-----------------------------------------------------------

  Dipole Moment: [D]
     X:     9.4002      Y:     1.5402      Z:     0.4222     Total:     9.5349

*** Psi4 exiting successfully. Buy a developer a beer!
