                               Psi4 1.4a3.dev225

  ==> Input File <==

--------------------------------------------------------------------------
#psi4
#
memory 32 gb

molecule  {
-4 1
  P       -2.5202440    -0.2449420     0.3712220
  P        0.3565170    -0.5960480    -0.3589090
  P        3.1750170     0.3881900     0.1554910
  O       -2.7927880     1.3311510    -0.1150520
  O       -0.9169740    -0.0836090     0.6422800
  O       -3.1856250    -0.4605710     1.7148300
  O       -2.8507450    -1.1694890    -0.7786080
  O        1.5376736     0.0927915     0.5604834
  O        0.2127210     0.0849480    -1.7048820
  O        0.4027150    -2.1095660    -0.2874290
  O        3.5327910    -0.6840640    -0.8835370
  O        3.1643710     1.8286230    -0.3742880
  O        3.8338960     0.2099350     1.5311200
  C       -4.1398760     1.5889580    -0.5252390
  H       -4.4292020     0.9309370    -1.3496150
  H       -4.8386320     1.4471050     0.3059850
  H       -4.1840730     2.6280350    -0.8559160
units angstrom
no_reorient  #important for SAPT in psi4, default
symmetry c1  #important for SAPT in psi4, default
}

set PROPERTIES_ORIGIN ["COM"]
properties('MP2/aug-cc-pvtz', properties = ['dipole'])
--------------------------------------------------------------------------

    Molecular point group: c1
  Charge       = -4
  Multiplicity = 1
  Basis Set: AUG-CC-PVTZ
    Blend: AUG-CC-PVTZ
  Basis Set: (AUG-CC-PVTZ AUX)
    Blend: AUG-CC-PVTZ-JKFIT

    Orbital Energies [Eh]
    ---------------------

    Doubly Occupied:

       1A    -79.584138     2A    -79.524957     3A    -79.468269
       4A    -20.121313     5A    -20.047294     6A    -20.017593
       7A    -20.007589     8A    -19.985634     9A    -19.941420
      10A    -19.938495    11A    -19.916593    12A    -19.911591
      13A    -19.907839    14A    -10.885127    15A     -7.098353
      16A     -7.037256    17A     -6.982480    18A     -4.997499
      19A     -4.996217    20A     -4.995266    21A     -4.936614
      22A     -4.935087    23A     -4.933937    24A     -4.881924
      25A     -4.879840    26A     -4.879704    27A     -0.933695
      28A     -0.856487    29A     -0.808779    30A     -0.781878
      31A     -0.763801    32A     -0.736964    33A     -0.703905
      34A     -0.690471    35A     -0.657336    36A     -0.652651
      37A     -0.530042    38A     -0.312122    39A     -0.255613
      40A     -0.222559    41A     -0.199411    42A     -0.168448
      43A     -0.143548    44A     -0.111029    45A     -0.094453
      46A     -0.081423    47A     -0.063813    48A     -0.053717
      49A     -0.036410    50A     -0.027572    51A     -0.014859
      52A     -0.011378    53A      0.006986    54A      0.011573
      55A      0.026671    56A      0.031921    57A      0.045496
      58A      0.054262    59A      0.059524    60A      0.078523
      61A      0.095757    62A      0.106728    63A      0.109717
      64A      0.110646    65A      0.122583    66A      0.133015
      67A      0.153115    68A      0.158759    69A      0.179312

  @DF-RHF Final Energy: -1810.67522449842272

   => Energetics <=

    Nuclear Repulsion Energy =           1425.7014494708573693
    One-Electron Energy =               -5426.2737339867171613
    Two-Electron Energy =                2189.8970600174370702
    Total Energy =                      -1810.6752244984227218
  Basis Set: (AUG-CC-PVTZ AUX)
    Blend: AUG-CC-PVTZ-RI
    Molecular point group: c1

    Geometry (in Angstrom), charge = -4, multiplicity = 1:

       Center              X                  Y                   Z               Mass
    ------------   -----------------  -----------------  -----------------  -----------------
         P           -2.576540180415    -0.225289068855     0.364288766813    30.973761998420
         P            0.300220819585    -0.576395068855    -0.365842233187    30.973761998420
         P            3.118720819585     0.407842931145     0.148557766813    30.973761998420
         O           -2.849084180415     1.350803931145    -0.121985233187    15.994914619570
         O           -0.973270180415    -0.063956068855     0.635346766813    15.994914619570
         O           -3.241921180415    -0.440918068855     1.707896766813    15.994914619570
         O           -2.907041180415    -1.149836068855    -0.785541233187    15.994914619570
         O            1.481377419585     0.112444431145     0.553550166813    15.994914619570
         O            0.156424819585     0.104600931145    -1.711815233187    15.994914619570
         O            0.346418819585    -2.089913068855    -0.294362233187    15.994914619570
         O            3.476494819585    -0.664411068855    -0.890470233187    15.994914619570
         O            3.108074819585     1.848275931145    -0.381221233187    15.994914619570
         O            3.777599819585     0.229587931145     1.524186766813    15.994914619570
         C           -4.196172180415     1.608610931145    -0.532172233187    12.000000000000
         H           -4.485498180415     0.950589931145    -1.356548233187     1.007825032230
         H           -4.894928180415     1.466757931145     0.299051766813     1.007825032230
         H           -4.240369180415     2.647687931145    -0.862849233187     1.007825032230

  Basis Set: AUG-CC-PVTZ
    Blend: AUG-CC-PVTZ
  Basis Set: (AUG-CC-PVTZ AUX)
    Blend: AUG-CC-PVTZ-JKFIT
	 Reference Energy          =   -1810.6752244984227218 [Eh]
	 Singles Energy            =      -0.0000000000000000 [Eh]
	 Same-Spin Energy          =      -0.9122437403192234 [Eh]
	 Opposite-Spin Energy      =      -2.5248788741494574 [Eh]
	 Correlation Energy        =      -3.4371226144686808 [Eh]
	 Total Energy              =   -1814.1123471128914844 [Eh]

	 ================> DF-SCS-MP2 Energies <==================
	-----------------------------------------------------------
	 SCS Same-Spin Scale       =       0.3333333333333333 [-]
	 SCS Opposite-Spin Scale   =       1.2000000000000000 [-]
	 SCS Same-Spin Energy      =      -0.3040812467730745 [Eh]
	 SCS Opposite-Spin Energy  =      -3.0298546489793488 [Eh]
	 SCS Correlation Energy    =      -3.3339358957524232 [Eh]
	 SCS Total Energy          =   -1814.0091603941750691 [Eh]
	-----------------------------------------------------------

  Dipole Moment: [D]
     X:   -15.5699      Y:     2.5637      Z:    -0.0274     Total:    15.7796

*** Psi4 exiting successfully. Buy a developer a beer!
