                               Psi4 1.4a3.dev225

  ==> Input File <==

--------------------------------------------------------------------------
#psi4
#
memory 32 gb

molecule  {
-4 1
  P       -2.5202440    -0.2449420     0.3712220
  P        0.3565170    -0.5960480    -0.3589090
  P        3.1750170     0.3881900     0.1554910
  O       -2.7927880     1.3311510    -0.1150520
  O       -0.9544507    -0.0685288     0.6717433
  O       -3.1856250    -0.4605710     1.7148300
  O       -2.8507450    -1.1694890    -0.7786080
  O        1.4898640     0.0841660     0.5723090
  O        0.2127210     0.0849480    -1.7048820
  O        0.4027150    -2.1095660    -0.2874290
  O        3.5327910    -0.6840640    -0.8835370
  O        3.1643710     1.8286230    -0.3742880
  O        3.8338960     0.2099350     1.5311200
  C       -4.1398760     1.5889580    -0.5252390
  H       -4.4292020     0.9309370    -1.3496150
  H       -4.8386320     1.4471050     0.3059850
  H       -4.1840730     2.6280350    -0.8559160
units angstrom
no_reorient  #important for SAPT in psi4, default
symmetry c1  #important for SAPT in psi4, default
}

set PROPERTIES_ORIGIN ["COM"]
properties('MP2/aug-cc-pvtz', properties = ['dipole'])
--------------------------------------------------------------------------

    Molecular point group: c1
  Charge       = -4
  Multiplicity = 1
  Basis Set: AUG-CC-PVTZ
    Blend: AUG-CC-PVTZ
  Basis Set: (AUG-CC-PVTZ AUX)
    Blend: AUG-CC-PVTZ-JKFIT

    Orbital Energies [Eh]
    ---------------------

    Doubly Occupied:

       1A    -79.572806     2A    -79.524360     3A    -79.477852
       4A    -20.114982     5A    -20.040353     6A    -20.008321
       7A    -20.002508     8A    -19.988667     9A    -19.942687
      10A    -19.940902    11A    -19.923916    12A    -19.918999
      13A    -19.915457    14A    -10.880341    15A     -7.087880
      16A     -7.036908    17A     -6.991620    18A     -4.987021
      19A     -4.985727    20A     -4.984795    21A     -4.936255
      22A     -4.934648    23A     -4.933537    24A     -4.891036
      25A     -4.888885    26A     -4.888758    27A     -0.928398
      28A     -0.850817    29A     -0.805923    30A     -0.777397
      31A     -0.757553    32A     -0.740646    33A     -0.709501
      34A     -0.691732    35A     -0.663957    36A     -0.659419
      37A     -0.525035    38A     -0.303426    39A     -0.249512
      40A     -0.217656    41A     -0.195416    42A     -0.163993
      43A     -0.138237    44A     -0.106822    45A     -0.095339
      46A     -0.076278    47A     -0.061752    48A     -0.050405
      49A     -0.036928    50A     -0.022510    51A     -0.013837
      52A     -0.011182    53A      0.009616    54A      0.012636
      55A      0.020743    56A      0.037157    57A      0.050240
      58A      0.051695    59A      0.064111    60A      0.079898
      61A      0.093871    62A      0.101183    63A      0.104274
      64A      0.105105    65A      0.120191    66A      0.130917
      67A      0.145589    68A      0.151712    69A      0.172493

  @DF-RHF Final Energy: -1810.67525890165257

   => Energetics <=

    Nuclear Repulsion Energy =           1424.8557690013219599
    One-Electron Energy =               -5424.6591352633195129
    Two-Electron Energy =                2189.1281073603445293
    Total Energy =                      -1810.6752589016527963
  Basis Set: (AUG-CC-PVTZ AUX)
    Blend: AUG-CC-PVTZ-RI
    Molecular point group: c1

    Geometry (in Angstrom), charge = -4, multiplicity = 1:

       Center              X                  Y                   Z               Mass
    ------------   -----------------  -----------------  -----------------  -----------------
         P           -2.571448063538    -0.225674454161     0.361823565431    30.973761998420
         P            0.305312936462    -0.576780454161    -0.368307434569    30.973761998420
         P            3.123812936462     0.407457545839     0.146092565431    30.973761998420
         O           -2.843992063538     1.350418545839    -0.124450434569    15.994914619570
         O           -1.005654763538    -0.049261254161     0.662344865431    15.994914619570
         O           -3.236829063538    -0.441303454161     1.705431565431    15.994914619570
         O           -2.901949063538    -1.150221454161    -0.788006434569    15.994914619570
         O            1.438659936462     0.103433545839     0.562910565431    15.994914619570
         O            0.161516936462     0.104215545839    -1.714280434569    15.994914619570
         O            0.351510936462    -2.090298454161    -0.296827434569    15.994914619570
         O            3.481586936462    -0.664796454161    -0.892935434569    15.994914619570
         O            3.113166936462     1.847890545839    -0.383686434569    15.994914619570
         O            3.782691936462     0.229202545839     1.521721565431    15.994914619570
         C           -4.191080063538     1.608225545839    -0.534637434569    12.000000000000
         H           -4.480406063538     0.950204545839    -1.359013434569     1.007825032230
         H           -4.889836063538     1.466372545839     0.296586565431     1.007825032230
         H           -4.235277063538     2.647302545839    -0.865314434569     1.007825032230

  Basis Set: AUG-CC-PVTZ
    Blend: AUG-CC-PVTZ
  Basis Set: (AUG-CC-PVTZ AUX)
    Blend: AUG-CC-PVTZ-JKFIT
	 Reference Energy          =   -1810.6752589016525690 [Eh]
	 Singles Energy            =      -0.0000000000000000 [Eh]
	 Same-Spin Energy          =      -0.9126526616580208 [Eh]
	 Opposite-Spin Energy      =      -2.5258646440889740 [Eh]
	 Correlation Energy        =      -3.4385173057469949 [Eh]
	 Total Energy              =   -1814.1137762073994963 [Eh]

	 ================> DF-SCS-MP2 Energies <==================
	-----------------------------------------------------------
	 SCS Same-Spin Scale       =       0.3333333333333333 [-]
	 SCS Opposite-Spin Scale   =       1.2000000000000000 [-]
	 SCS Same-Spin Energy      =      -0.3042175538860069 [Eh]
	 SCS Opposite-Spin Energy  =      -3.0310375729067687 [Eh]
	 SCS Correlation Energy    =      -3.3352551267927755 [Eh]
	 SCS Total Energy          =   -1814.0105140284454137 [Eh]
	-----------------------------------------------------------

  Dipole Moment: [D]
     X:   -14.4417      Y:     2.6235      Z:    -0.1617     Total:    14.6789

*** Psi4 exiting successfully. Buy a developer a beer!
