                               Psi4 1.3.2 release

  ==> Input File <==

--------------------------------------------------------------------------
#psi4
#
memory 32 gb

molecule  {
-4 1
  P        2.5828670     0.0826120    -0.3559070
  P       -0.1833470    -1.1435920     0.2927960
  P       -2.7088530     0.4754690    -0.2006980
  O        1.9534540     1.6068400    -0.1842610
  O        1.2452583    -0.8659511    -0.5507195
  O        3.2679280     0.0927970    -1.6978490
  O        3.3289310    -0.2934220     0.9022790
  O       -0.9769687     0.1650670    -0.2302235
  O        0.0932830    -1.0798150     1.7822090
  O       -0.7150640    -2.4305380    -0.3003910
  O       -3.2327710    -0.2685190     1.0414150
  O       -2.7128520     2.0086770    -0.0959300
  O       -3.2113930    -0.0752120    -1.5473660
  C        1.4216660     1.9681570     1.1052990
  H        1.0169430     1.1016800     1.6278780
  H        2.2027140     2.4392170     1.7103290
  H        0.6160650     2.6819120     0.9264900
units angstrom
no_reorient  #important for SAPT in psi4, default
symmetry c1  #important for SAPT in psi4, default
}

set PROPERTIES_ORIGIN ["COM"]
properties('MP2/aug-cc-pvtz', properties = ['dipole'])
--------------------------------------------------------------------------

    Molecular point group: c1
  Charge       = -4
  Multiplicity = 1
  Basis Set: AUG-CC-PVTZ
    Blend: AUG-CC-PVTZ
  Basis Set: (AUG-CC-PVTZ AUX)
    Blend: AUG-CC-PVTZ-JKFIT

    Orbital Energies [Eh]
    ---------------------

    Doubly Occupied:

       1A    -79.571812     2A    -79.526282     3A    -79.480633
       4A    -20.084456     5A    -20.037066     6A    -20.002811
       7A    -20.001876     8A    -19.992234     9A    -19.950419
      10A    -19.945607    11A    -19.924338    12A    -19.919746
      13A    -19.918558    14A    -10.811077    15A     -7.085646
      16A     -7.039277    17A     -6.994082    18A     -4.984605
      19A     -4.983644    20A     -4.982846    21A     -4.938577
      22A     -4.937126    23A     -4.936246    24A     -4.893522
      25A     -4.891347    26A     -4.891202    27A     -0.901223
      28A     -0.844905    29A     -0.805532    30A     -0.776822
      31A     -0.757256    32A     -0.742258    33A     -0.713591
      34A     -0.699801    35A     -0.663912    36A     -0.659750
      37A     -0.466107    38A     -0.293403    39A     -0.233039
      40A     -0.182032    41A     -0.162939    42A     -0.147873
      43A     -0.126011    44A     -0.099207    45A     -0.082319
      46A     -0.065173    47A     -0.051352    48A     -0.043131
      49A     -0.031012    50A     -0.015500    51A     -0.006084
      52A      0.000248    53A      0.010216    54A      0.014974
      55A      0.021095    56A      0.038338    57A      0.047740
      58A      0.053683    59A      0.066906    60A      0.071226
      61A      0.091129    62A      0.100108    63A      0.102163
      64A      0.103791    65A      0.113698    66A      0.125121
      67A      0.143765    68A      0.149887    69A      0.171428

  @DF-RHF Final Energy: -1810.68836250530399

   => Energetics <=

    Nuclear Repulsion Energy =           1462.9422406082985617
    One-Electron Energy =               -5501.5217110821104143
    Two-Electron Energy =                2227.8911079685080949
    Total Energy =                      -1810.6883625053037576
  Basis Set: (AUG-CC-PVTZ AUX)
    Blend: AUG-CC-PVTZ-RI
    Molecular point group: c1

    Geometry (in Angstrom), charge = -4, multiplicity = 1:

       Center              X                  Y                   Z               Mass
    ------------   -----------------  -----------------  -----------------  -----------------
         P            2.597849444203     0.106806322392    -0.338368663858    30.973761998420
         P           -0.168364555797    -1.119397677608     0.310334336142    30.973761998420
         P           -2.693870555797     0.499663322392    -0.183159663858    30.973761998420
         O            1.968436444203     1.631034322392    -0.166722663858    15.994914619570
         O            1.260240744203    -0.841756777608    -0.533181163858    15.994914619570
         O            3.282910444203     0.116991322392    -1.680310663858    15.994914619570
         O            3.343913444203    -0.269227677608     0.919817336142    15.994914619570
         O           -0.961986255797     0.189261322392    -0.212685163858    15.994914619570
         O            0.108265444203    -1.055620677608     1.799747336142    15.994914619570
         O           -0.700081555797    -2.406343677608    -0.282852663858    15.994914619570
         O           -3.217788555797    -0.244324677608     1.058953336142    15.994914619570
         O           -2.697869555797     2.032871322392    -0.078391663858    15.994914619570
         O           -3.196410555797    -0.051017677608    -1.529827663858    15.994914619570
         C            1.436648444203     1.992351322392     1.122837336142    12.000000000000
         H            1.031925444203     1.125874322392     1.645416336142     1.007825032230
         H            2.217696444203     2.463411322392     1.727867336142     1.007825032230
         H            0.631047444203     2.706106322392     0.944028336142     1.007825032230

  Basis Set: AUG-CC-PVTZ
    Blend: AUG-CC-PVTZ
  Basis Set: (AUG-CC-PVTZ AUX)
    Blend: AUG-CC-PVTZ-JKFIT
	 Reference Energy          =   -1810.6883625053039850 [Eh]
	 Singles Energy            =      -0.0000000000000000 [Eh]
	 Same-Spin Energy          =      -0.9131427988726322 [Eh]
	 Opposite-Spin Energy      =      -2.5260984631500616 [Eh]
	 Correlation Energy        =      -3.4392412620226938 [Eh]
	 Total Energy              =   -1814.1276037673267183 [Eh]

	 ================> DF-SCS-MP2 Energies <==================
	-----------------------------------------------------------
	 SCS Same-Spin Scale       =       0.3333333333333333 [-]
	 SCS Opposite-Spin Scale   =       1.2000000000000000 [-]
	 SCS Same-Spin Energy      =      -0.3043809329575440 [Eh]
	 SCS Opposite-Spin Energy  =      -3.0313181557800739 [Eh]
	 SCS Correlation Energy    =      -3.3356990887376181 [Eh]
	 SCS Total Energy          =   -1814.0240615940415410 [Eh]
	-----------------------------------------------------------

  Dipole Moment: [D]
     X:     9.1790      Y:     2.3212      Z:     1.6222     Total:     9.6059

*** Psi4 exiting successfully. Buy a developer a beer!
