                               Psi4 1.3.2 release

  ==> Input File <==

--------------------------------------------------------------------------
#psi4
#
memory 32 gb

molecule  {
-4 1
  P        2.5828670     0.0826120    -0.3559070
  P       -0.1833470    -1.1435920     0.2927960
  P       -2.7088530     0.4754690    -0.2006980
  O        1.9534540     1.6068400    -0.1842610
  O        1.2509400    -0.8782220    -0.5450080
  O        3.2679280     0.0927970    -1.6978490
  O        3.3289310    -0.2934220     0.9022790
  O       -0.9881700     0.1612780    -0.2225170
  O        0.0932830    -1.0798150     1.7822090
  O       -0.7150640    -2.4305380    -0.3003910
  O       -3.2327710    -0.2685190     1.0414150
  O       -2.7128520     2.0086770    -0.0959300
  O       -3.1460965    -0.0036604    -1.3723896
  C        1.4216660     1.9681570     1.1052990
  H        1.0169430     1.1016800     1.6278780
  H        2.2027140     2.4392170     1.7103290
  H        0.6160650     2.6819120     0.9264900
units angstrom
no_reorient  #important for SAPT in psi4, default
symmetry c1  #important for SAPT in psi4, default
}

set PROPERTIES_ORIGIN ["COM"]
properties('MP2/aug-cc-pvtz', properties = ['dipole'])
--------------------------------------------------------------------------

    Molecular point group: c1
  Charge       = -4
  Multiplicity = 1
  Basis Set: AUG-CC-PVTZ
    Blend: AUG-CC-PVTZ
  Basis Set: (AUG-CC-PVTZ AUX)
    Blend: AUG-CC-PVTZ-JKFIT

    Orbital Energies [Eh]
    ---------------------

    Doubly Occupied:

       1A    -79.569582     2A    -79.520706     3A    -79.433071
       4A    -20.082128     5A    -20.034117     6A    -20.000305
       7A    -20.000015     8A    -19.978674     9A    -19.944392
      10A    -19.942092    11A    -19.905384    12A    -19.905071
      13A    -19.898236    14A    -10.807560    15A     -7.083389
      16A     -7.033635    17A     -6.958408    18A     -4.982335
      19A     -4.981393    20A     -4.980595    21A     -4.932948
      22A     -4.931450    23A     -4.930656    24A     -4.858270
      25A     -4.855842    26A     -4.853771    27A     -0.898389
      28A     -0.841757    29A     -0.814682    30A     -0.791242
      31A     -0.755396    32A     -0.753529    33A     -0.719258
      34A     -0.695389    35A     -0.672137    36A     -0.645670
      37A     -0.462783    38A     -0.289095    39A     -0.228437
      40A     -0.176540    41A     -0.158964    42A     -0.144794
      43A     -0.121763    44A     -0.093138    45A     -0.079068
      46A     -0.064510    47A     -0.048530    48A     -0.041027
      49A     -0.027436    50A     -0.021398    51A     -0.005065
      52A     -0.002799    53A      0.005829    54A      0.015936
      55A      0.020098    56A      0.038691    57A      0.050203
      58A      0.056379    59A      0.070211    60A      0.073834
      61A      0.085075    62A      0.091079    63A      0.104444
      64A      0.112459    65A      0.116286    66A      0.127868
      67A      0.150174    68A      0.158978    69A      0.182294

  @DF-RHF Final Energy: -1810.65187501624973

   => Energetics <=

    Nuclear Repulsion Energy =           1473.3557948278703407
    One-Electron Energy =               -5523.0213686434308329
    Two-Electron Energy =                2239.0136987993105322
    Total Energy =                      -1810.6518750162499600
  Basis Set: (AUG-CC-PVTZ AUX)
    Blend: AUG-CC-PVTZ-RI
    Molecular point group: c1

    Geometry (in Angstrom), charge = -4, multiplicity = 1:

       Center              X                  Y                   Z               Mass
    ------------   -----------------  -----------------  -----------------  -----------------
         P            2.594280395465     0.103493126461    -0.349616968731    30.973761998420
         P           -0.171933604535    -1.122710873539     0.299086031269    30.973761998420
         P           -2.697439604535     0.496350126461    -0.194407968731    30.973761998420
         O            1.964867395465     1.627721126461    -0.177970968731    15.994914619570
         O            1.262353395465    -0.857340873539    -0.538717968731    15.994914619570
         O            3.279341395465     0.113678126461    -1.691558968731    15.994914619570
         O            3.340344395465    -0.272540873539     0.908569031269    15.994914619570
         O           -0.976756604535     0.182159126461    -0.216226968731    15.994914619570
         O            0.104696395465    -1.058933873539     1.788499031269    15.994914619570
         O           -0.703650604535    -2.409656873539    -0.294100968731    15.994914619570
         O           -3.221357604535    -0.247637873539     1.047705031269    15.994914619570
         O           -2.701438604535     2.029558126461    -0.089639968731    15.994914619570
         O           -3.134683104535     0.017220726461    -1.366099568731    15.994914619570
         C            1.433079395465     1.989038126461     1.111589031269    12.000000000000
         H            1.028356395465     1.122561126461     1.634168031269     1.007825032230
         H            2.214127395465     2.460098126461     1.716619031269     1.007825032230
         H            0.627478395465     2.702793126461     0.932780031269     1.007825032230

  Basis Set: AUG-CC-PVTZ
    Blend: AUG-CC-PVTZ
  Basis Set: (AUG-CC-PVTZ AUX)
    Blend: AUG-CC-PVTZ-JKFIT
	 Reference Energy          =   -1810.6518750162497327 [Eh]
	 Singles Energy            =      -0.0000000000000000 [Eh]
	 Same-Spin Energy          =      -0.9096098414284480 [Eh]
	 Opposite-Spin Energy      =      -2.5169536887393980 [Eh]
	 Correlation Energy        =      -3.4265635301678459 [Eh]
	 Total Energy              =   -1814.0784385464176012 [Eh]

	 ================> DF-SCS-MP2 Energies <==================
	-----------------------------------------------------------
	 SCS Same-Spin Scale       =       0.3333333333333333 [-]
	 SCS Opposite-Spin Scale   =       1.2000000000000000 [-]
	 SCS Same-Spin Energy      =      -0.3032032804761493 [Eh]
	 SCS Opposite-Spin Energy  =      -3.0203444264872776 [Eh]
	 SCS Correlation Energy    =      -3.3235477069634269 [Eh]
	 SCS Total Energy          =   -1813.9754227232131143 [Eh]
	-----------------------------------------------------------

  Dipole Moment: [D]
     X:     8.5639      Y:     1.9200      Z:     0.2830     Total:     8.7811

*** Psi4 exiting successfully. Buy a developer a beer!
