                               Psi4 1.3.2 release

  ==> Input File <==

--------------------------------------------------------------------------
#psi4
#
memory 32 gb

molecule  {
-4 1
  P        2.5828670     0.0826120    -0.3559070
  P       -0.1833470    -1.1435920     0.2927960
  P       -2.7088530     0.4754690    -0.2006980
  O        1.9534540     1.6068400    -0.1842610
  O        1.2509400    -0.8782220    -0.5450080
  O        3.2679280     0.0927970    -1.6978490
  O        3.3289310    -0.2934220     0.9022790
  O       -0.9945419     0.1361538    -0.2778003
  O        0.0932830    -1.0798150     1.7822090
  O       -0.7150640    -2.4305380    -0.3003910
  O       -3.2327710    -0.2685190     1.0414150
  O       -2.7128520     2.0086770    -0.0959300
  O       -3.1610213    -0.0897082    -1.5591638
  C        1.4216660     1.9681570     1.1052990
  H        1.0169430     1.1016800     1.6278780
  H        2.2027140     2.4392170     1.7103290
  H        0.6160650     2.6819120     0.9264900
units angstrom
no_reorient  #important for SAPT in psi4, default
symmetry c1  #important for SAPT in psi4, default
}

set PROPERTIES_ORIGIN ["COM"]
properties('MP2/aug-cc-pvtz', properties = ['dipole'])
--------------------------------------------------------------------------

    Molecular point group: c1
  Charge       = -4
  Multiplicity = 1
  Basis Set: AUG-CC-PVTZ
    Blend: AUG-CC-PVTZ
  Basis Set: (AUG-CC-PVTZ AUX)
    Blend: AUG-CC-PVTZ-JKFIT

    Orbital Energies [Eh]
    ---------------------

    Doubly Occupied:

       1A    -79.571849     2A    -79.525679     3A    -79.479656
       4A    -20.085470     5A    -20.036761     6A    -20.002402
       7A    -20.001852     8A    -19.989663     9A    -19.952095
      10A    -19.941725    11A    -19.926294    12A    -19.920339
      13A    -19.916058    14A    -10.812143    15A     -7.085674
      16A     -7.038571    17A     -6.993206    18A     -4.984628
      19A     -4.983673    20A     -4.982866    21A     -4.937884
      22A     -4.936431    23A     -4.935533    24A     -4.892703
      25A     -4.890503    26A     -4.890287    27A     -0.901516
      28A     -0.844474    29A     -0.805352    30A     -0.776908
      31A     -0.757067    32A     -0.741648    33A     -0.712675
      34A     -0.697966    35A     -0.664841    36A     -0.659196
      37A     -0.467123    38A     -0.292742    39A     -0.233638
      40A     -0.182416    41A     -0.163828    42A     -0.148661
      43A     -0.125728    44A     -0.098617    45A     -0.081889
      46A     -0.064432    47A     -0.051218    48A     -0.043387
      49A     -0.030416    50A     -0.015797    51A     -0.005978
      52A      0.000337    53A      0.010452    54A      0.015110
      55A      0.022139    56A      0.038174    57A      0.047791
      58A      0.053908    59A      0.067635    60A      0.071838
      61A      0.092855    62A      0.098830    63A      0.102411
      64A      0.104322    65A      0.115329    66A      0.126382
      67A      0.143114    68A      0.152407    69A      0.171164

  @DF-RHF Final Energy: -1810.68670996939045

   => Energetics <=

    Nuclear Repulsion Energy =           1463.3934607166124806
    One-Electron Energy =               -5502.4658241848055695
    Two-Electron Energy =                2228.3856534988026397
    Total Energy =                      -1810.6867099693904493
  Basis Set: (AUG-CC-PVTZ AUX)
    Blend: AUG-CC-PVTZ-RI
    Molecular point group: c1

    Geometry (in Angstrom), charge = -4, multiplicity = 1:

       Center              X                  Y                   Z               Mass
    ------------   -----------------  -----------------  -----------------  -----------------
         P            2.595551939494     0.110130778904    -0.335164646599    30.973761998420
         P           -0.170662060506    -1.116073221096     0.313538353401    30.973761998420
         P           -2.696168060506     0.502987778904    -0.179955646599    30.973761998420
         O            1.966138939494     1.634358778904    -0.163518646599    15.994914619570
         O            1.263624939494    -0.850703221096    -0.524265646599    15.994914619570
         O            3.280612939494     0.120315778904    -1.677106646599    15.994914619570
         O            3.341615939494    -0.265903221096     0.923021353401    15.994914619570
         O           -0.981856960506     0.163672578904    -0.257057946599    15.994914619570
         O            0.105967939494    -1.052296221096     1.802951353401    15.994914619570
         O           -0.702379060506    -2.403019221096    -0.279648646599    15.994914619570
         O           -3.220086060506    -0.241000221096     1.062157353401    15.994914619570
         O           -2.700167060506     2.036195778904    -0.075187646599    15.994914619570
         O           -3.148336360506    -0.062189421096    -1.538421446599    15.994914619570
         C            1.434350939494     1.995675778904     1.126041353401    12.000000000000
         H            1.029627939494     1.129198778904     1.648620353401     1.007825032230
         H            2.215398939494     2.466735778904     1.731071353401     1.007825032230
         H            0.628749939494     2.709430778904     0.947232353401     1.007825032230

  Basis Set: AUG-CC-PVTZ
    Blend: AUG-CC-PVTZ
  Basis Set: (AUG-CC-PVTZ AUX)
    Blend: AUG-CC-PVTZ-JKFIT
	 Reference Energy          =   -1810.6867099693904493 [Eh]
	 Singles Energy            =      -0.0000000000000000 [Eh]
	 Same-Spin Energy          =      -0.9132191475607125 [Eh]
	 Opposite-Spin Energy      =      -2.5261981430062739 [Eh]
	 Correlation Energy        =      -3.4394172905669862 [Eh]
	 Total Energy              =   -1814.1261272599574568 [Eh]

	 ================> DF-SCS-MP2 Energies <==================
	-----------------------------------------------------------
	 SCS Same-Spin Scale       =       0.3333333333333333 [-]
	 SCS Opposite-Spin Scale   =       1.2000000000000000 [-]
	 SCS Same-Spin Energy      =      -0.3044063825202375 [Eh]
	 SCS Opposite-Spin Energy  =      -3.0314377716075285 [Eh]
	 SCS Correlation Energy    =      -3.3358441541277659 [Eh]
	 SCS Total Energy          =   -1814.0225541235181481 [Eh]
	-----------------------------------------------------------

  Dipole Moment: [D]
     X:     9.1418      Y:     2.4313      Z:     1.7268     Total:     9.6159

*** Psi4 exiting successfully. Buy a developer a beer!
