                               Psi4 1.3.2 release

  ==> Input File <==

--------------------------------------------------------------------------
#psi4
#
memory 32 gb

molecule  {
-4 1
  P        2.5828670     0.0826120    -0.3559070
  P       -0.1833470    -1.1435920     0.2927960
  P       -2.7088530     0.4754690    -0.2006980
  O        1.9534540     1.6068400    -0.1842610
  O        1.2509400    -0.8782220    -0.5450080
  O        3.2679280     0.0927970    -1.6978490
  O        3.3289310    -0.2934220     0.9022790
  O       -0.9881700     0.1612780    -0.2225170
  O        0.0932830    -1.0798150     1.7822090
  O       -0.7150640    -2.4305380    -0.3003910
  O       -3.1902795    -0.2175879     1.0872281
  O       -2.7128520     2.0086770    -0.0959300
  O       -3.1682366    -0.0181186    -1.5844063
  C        1.4216660     1.9681570     1.1052990
  H        1.0169430     1.1016800     1.6278780
  H        2.2027140     2.4392170     1.7103290
  H        0.6160650     2.6819120     0.9264900
units angstrom
no_reorient  #important for SAPT in psi4, default
symmetry c1  #important for SAPT in psi4, default
}

set PROPERTIES_ORIGIN ["COM"]
properties('MP2/aug-cc-pvtz', properties = ['dipole'])
--------------------------------------------------------------------------

    Molecular point group: c1
  Charge       = -4
  Multiplicity = 1
  Basis Set: AUG-CC-PVTZ
    Blend: AUG-CC-PVTZ
  Basis Set: (AUG-CC-PVTZ AUX)
    Blend: AUG-CC-PVTZ-JKFIT

    Orbital Energies [Eh]
    ---------------------

    Doubly Occupied:

       1A    -79.571637     2A    -79.525853     3A    -79.480059
       4A    -20.084434     5A    -20.037281     6A    -20.001992
       7A    -20.001710     8A    -19.989738     9A    -19.948961
      10A    -19.945577    11A    -19.923800    12A    -19.922014
      13A    -19.917219    14A    -10.810298    15A     -7.085453
      16A     -7.038796    17A     -6.993605    18A     -4.984401
      19A     -4.983460    20A     -4.982644    21A     -4.938081
      22A     -4.936667    23A     -4.935775    24A     -4.893109
      25A     -4.891024    26A     -4.890546    27A     -0.900782
      28A     -0.844487    29A     -0.805489    30A     -0.777221
      31A     -0.756771    32A     -0.741719    33A     -0.712200
      34A     -0.699342    35A     -0.666012    36A     -0.658433
      37A     -0.465446    38A     -0.292678    39A     -0.233117
      40A     -0.182582    41A     -0.162661    42A     -0.147470
      43A     -0.125161    44A     -0.098485    45A     -0.082002
      46A     -0.064759    47A     -0.050822    48A     -0.042972
      49A     -0.031107    50A     -0.014926    51A     -0.005806
      52A     -0.000935    53A      0.010988    54A      0.015904
      55A      0.022050    56A      0.038150    57A      0.048148
      58A      0.054406    59A      0.067644    60A      0.071641
      61A      0.091768    62A      0.098512    63A      0.102821
      64A      0.105383    65A      0.114035    66A      0.125183
      67A      0.144836    68A      0.149797    69A      0.171471

  @DF-RHF Final Energy: -1810.68646282362351

   => Energetics <=

    Nuclear Repulsion Energy =           1463.6640835744190099
    One-Electron Energy =               -5503.0115256007429707
    Two-Electron Energy =                2228.6609792027002186
    Total Energy =                      -1810.6864628236235149
  Basis Set: (AUG-CC-PVTZ AUX)
    Blend: AUG-CC-PVTZ-RI
    Molecular point group: c1

    Geometry (in Angstrom), charge = -4, multiplicity = 1:

       Center              X                  Y                   Z               Mass
    ------------   -----------------  -----------------  -----------------  -----------------
         P            2.593065291662     0.101315469913    -0.339693591159    30.973761998420
         P           -0.173148708338    -1.124888530087     0.309009408841    30.973761998420
         P           -2.698654708338     0.494172469913    -0.184484591159    30.973761998420
         O            1.963652291662     1.625543469913    -0.168047591159    15.994914619570
         O            1.261138291662    -0.859518530087    -0.528794591159    15.994914619570
         O            3.278126291662     0.111500469913    -1.681635591159    15.994914619570
         O            3.339129291662    -0.274718530087     0.918492408841    15.994914619570
         O           -0.977971708338     0.179981469913    -0.206303591159    15.994914619570
         O            0.103481291662    -1.061111530087     1.798422408841    15.994914619570
         O           -0.704865708338    -2.411834530087    -0.284177591159    15.994914619570
         O           -3.180081208338    -0.198884430087     1.103441508841    15.994914619570
         O           -2.702653708338     2.027380469913    -0.079716591159    15.994914619570
         O           -3.158038308338     0.000584869913    -1.568192891159    15.994914619570
         C            1.431864291662     1.986860469913     1.121512408841    12.000000000000
         H            1.027141291662     1.120383469913     1.644091408841     1.007825032230
         H            2.212912291662     2.457920469913     1.726542408841     1.007825032230
         H            0.626263291662     2.700615469913     0.942703408841     1.007825032230

  Basis Set: AUG-CC-PVTZ
    Blend: AUG-CC-PVTZ
  Basis Set: (AUG-CC-PVTZ AUX)
    Blend: AUG-CC-PVTZ-JKFIT
	 Reference Energy          =   -1810.6864628236235149 [Eh]
	 Singles Energy            =      -0.0000000000000000 [Eh]
	 Same-Spin Energy          =      -0.9132155290064523 [Eh]
	 Opposite-Spin Energy      =      -2.5261526059717401 [Eh]
	 Correlation Energy        =      -3.4393681349781922 [Eh]
	 Total Energy              =   -1814.1258309586016821 [Eh]

	 ================> DF-SCS-MP2 Energies <==================
	-----------------------------------------------------------
	 SCS Same-Spin Scale       =       0.3333333333333333 [-]
	 SCS Opposite-Spin Scale   =       1.2000000000000000 [-]
	 SCS Same-Spin Energy      =      -0.3044051763354841 [Eh]
	 SCS Opposite-Spin Energy  =      -3.0313831271660878 [Eh]
	 SCS Correlation Energy    =      -3.3357883035015718 [Eh]
	 SCS Total Energy          =   -1814.0222511271251733 [Eh]
	-----------------------------------------------------------

  Dipole Moment: [D]
     X:     9.0193      Y:     2.0711      Z:     1.5825     Total:     9.3884

*** Psi4 exiting successfully. Buy a developer a beer!
