                               Psi4 1.3.2 release

  ==> Input File <==

--------------------------------------------------------------------------
#psi4
#
memory 32 gb

molecule  {
-4 1
  P        2.5828670     0.0826120    -0.3559070
  P       -0.1833470    -1.1435920     0.2927960
  P       -2.7088530     0.4754690    -0.2006980
  O        1.9534540     1.6068400    -0.1842610
  O        1.2330902    -0.8352208    -0.6179684
  O        3.2679280     0.0927970    -1.6978490
  O        3.3813326    -0.2365730     0.8857124
  O       -0.9881700     0.1612780    -0.2225170
  O        0.0932830    -1.0798150     1.7822090
  O       -0.7150640    -2.4305380    -0.3003910
  O       -3.2327710    -0.2685190     1.0414150
  O       -2.7128520     2.0086770    -0.0959300
  O       -3.2113930    -0.0752120    -1.5473660
  C        1.4216660     1.9681570     1.1052990
  H        1.0169430     1.1016800     1.6278780
  H        2.2027140     2.4392170     1.7103290
  H        0.6160650     2.6819120     0.9264900
units angstrom
no_reorient  #important for SAPT in psi4, default
symmetry c1  #important for SAPT in psi4, default
}

set PROPERTIES_ORIGIN ["COM"]
properties('MP2/aug-cc-pvtz', properties = ['dipole'])
--------------------------------------------------------------------------

    Molecular point group: c1
  Charge       = -4
  Multiplicity = 1
  Basis Set: AUG-CC-PVTZ
    Blend: AUG-CC-PVTZ
  Basis Set: (AUG-CC-PVTZ AUX)
    Blend: AUG-CC-PVTZ-JKFIT

    Orbital Energies [Eh]
    ---------------------

    Doubly Occupied:

       1A    -79.570096     2A    -79.531970     3A    -79.480347
       4A    -20.080923     5A    -20.042433     6A    -20.005911
       7A    -19.995435     8A    -19.993521     9A    -19.958365
      10A    -19.949614    11A    -19.924206    12A    -19.919695
      13A    -19.918290    14A    -10.810309    15A     -7.084120
      16A     -7.044726    17A     -6.993863    18A     -4.983063
      19A     -4.982026    20A     -4.981339    21A     -4.943953
      22A     -4.942534    23A     -4.941698    24A     -4.893320
      25A     -4.891137    26A     -4.890993    27A     -0.899233
      28A     -0.843024    29A     -0.806236    30A     -0.777879
      31A     -0.755324    32A     -0.745300    33A     -0.715434
      34A     -0.704633    35A     -0.663903    36A     -0.659790
      37A     -0.464864    38A     -0.290063    39A     -0.233510
      40A     -0.180801    41A     -0.161704    42A     -0.145657
      43A     -0.128269    44A     -0.101660    45A     -0.080042
      46A     -0.066002    47A     -0.051799    48A     -0.042723
      49A     -0.033799    50A     -0.016009    51A     -0.006659
      52A     -0.000935    53A      0.011432    54A      0.014635
      55A      0.020213    56A      0.040825    57A      0.046621
      58A      0.052062    59A      0.064609    60A      0.071529
      61A      0.088173    62A      0.098096    63A      0.101332
      64A      0.103170    65A      0.110028    66A      0.120878
      67A      0.143821    68A      0.149632    69A      0.171457

  @DF-RHF Final Energy: -1810.68604640528451

   => Energetics <=

    Nuclear Repulsion Energy =           1461.4678206601067814
    One-Electron Energy =               -5498.4664815150481445
    Two-Electron Energy =                2226.3126144496568486
    Total Energy =                      -1810.6860464052847419
  Basis Set: (AUG-CC-PVTZ AUX)
    Blend: AUG-CC-PVTZ-RI
    Molecular point group: c1

    Geometry (in Angstrom), charge = -4, multiplicity = 1:

       Center              X                  Y                   Z               Mass
    ------------   -----------------  -----------------  -----------------  -----------------
         P            2.596116043227     0.101803525919    -0.333824488259    30.973761998420
         P           -0.170097956773    -1.124400474081     0.314878511741    30.973761998420
         P           -2.695603956773     0.494660525919    -0.178615488259    30.973761998420
         O            1.966703043227     1.626031525919    -0.162178488259    15.994914619570
         O            1.246339243227    -0.816029274081    -0.595885888259    15.994914619570
         O            3.281177043227     0.111988525919    -1.675766488259    15.994914619570
         O            3.394581643227    -0.217381474081     0.907794911741    15.994914619570
         O           -0.974920956773     0.180469525919    -0.200434488259    15.994914619570
         O            0.106532043227    -1.060623474081     1.804291511741    15.994914619570
         O           -0.701814956773    -2.411346474081    -0.278308488259    15.994914619570
         O           -3.219521956773    -0.249327474081     1.063497511741    15.994914619570
         O           -2.699602956773     2.027868525919    -0.073847488259    15.994914619570
         O           -3.198143956773    -0.056020474081    -1.525283488259    15.994914619570
         C            1.434915043227     1.987348525919     1.127381511741    12.000000000000
         H            1.030192043227     1.120871525919     1.649960511741     1.007825032230
         H            2.215963043227     2.458408525919     1.732411511741     1.007825032230
         H            0.629314043227     2.701103525919     0.948572511741     1.007825032230

  Basis Set: AUG-CC-PVTZ
    Blend: AUG-CC-PVTZ
  Basis Set: (AUG-CC-PVTZ AUX)
    Blend: AUG-CC-PVTZ-JKFIT
	 Reference Energy          =   -1810.6860464052845145 [Eh]
	 Singles Energy            =      -0.0000000000000000 [Eh]
	 Same-Spin Energy          =      -0.9135019396318412 [Eh]
	 Opposite-Spin Energy      =      -2.5271014834829275 [Eh]
	 Correlation Energy        =      -3.4406034231147689 [Eh]
	 Total Energy              =   -1814.1266498283991950 [Eh]

	 ================> DF-SCS-MP2 Energies <==================
	-----------------------------------------------------------
	 SCS Same-Spin Scale       =       0.3333333333333333 [-]
	 SCS Opposite-Spin Scale   =       1.2000000000000000 [-]
	 SCS Same-Spin Energy      =      -0.3045006465439470 [Eh]
	 SCS Opposite-Spin Energy  =      -3.0325217801795130 [Eh]
	 SCS Correlation Energy    =      -3.3370224267234603 [Eh]
	 SCS Total Energy          =   -1814.0230688320079935 [Eh]
	-----------------------------------------------------------

  Dipole Moment: [D]
     X:     8.9618      Y:     2.0901      Z:     1.8160     Total:     9.3798

*** Psi4 exiting successfully. Buy a developer a beer!
