                               Psi4 1.3.2 release

  ==> Input File <==

--------------------------------------------------------------------------
#psi4
#
memory 32 gb

molecule  {
-4 1
  P        2.5828670     0.0826120    -0.3559070
  P       -0.1833470    -1.1435920     0.2927960
  P       -2.7088530     0.4754690    -0.2006980
  O        1.9534540     1.6068400    -0.1842610
  O        1.2509400    -0.8782220    -0.5450080
  O        3.2679280     0.0927970    -1.6978490
  O        3.3289310    -0.2934220     0.9022790
  O       -0.9881700     0.1612780    -0.2225170
  O        0.0932830    -1.0798150     1.7822090
  O       -0.7150640    -2.4305380    -0.3003910
  O       -3.2738265    -0.3174109     0.9921974
  O       -2.7128520     2.0086770    -0.0959300
  O       -3.2531720    -0.1307960    -1.5066346
  C        1.4216660     1.9681570     1.1052990
  H        1.0169430     1.1016800     1.6278780
  H        2.2027140     2.4392170     1.7103290
  H        0.6160650     2.6819120     0.9264900
units angstrom
no_reorient  #important for SAPT in psi4, default
symmetry c1  #important for SAPT in psi4, default
}

set PROPERTIES_ORIGIN ["COM"]
properties('MP2/aug-cc-pvtz', properties = ['dipole'])
--------------------------------------------------------------------------

    Molecular point group: c1
  Charge       = -4
  Multiplicity = 1
  Basis Set: AUG-CC-PVTZ
    Blend: AUG-CC-PVTZ
  Basis Set: (AUG-CC-PVTZ AUX)
    Blend: AUG-CC-PVTZ-JKFIT

    Orbital Energies [Eh]
    ---------------------

    Doubly Occupied:

       1A    -79.573461     2A    -79.527980     3A    -79.479683
       4A    -20.086844     5A    -20.039314     6A    -20.003675
       7A    -20.003372     8A    -19.996183     9A    -19.951258
      10A    -19.944964    11A    -19.930376    12A    -19.913979
      13A    -19.912110    14A    -10.813070    15A     -7.087290
      16A     -7.040908    17A     -6.993198    18A     -4.986243
      19A     -4.985293    20A     -4.984473    21A     -4.940179
      22A     -4.938813    23A     -4.937847    24A     -4.892605
      25A     -4.890502    26A     -4.890301    27A     -0.903058
      28A     -0.846834    29A     -0.807849    30A     -0.778940
      31A     -0.758442    32A     -0.742503    33A     -0.714942
      34A     -0.699891    35A     -0.668044    36A     -0.650805
      37A     -0.468155    38A     -0.294967    39A     -0.236128
      40A     -0.185556    41A     -0.165320    42A     -0.150076
      43A     -0.126813    44A     -0.099412    45A     -0.083650
      46A     -0.065258    47A     -0.053030    48A     -0.045126
      49A     -0.032695    50A     -0.017368    51A     -0.007566
      52A      0.001145    53A      0.008438    54A      0.013584
      55A      0.021642    56A      0.036675    57A      0.046872
      58A      0.052631    59A      0.066347    60A      0.070204
      61A      0.090058    62A      0.099202    63A      0.102437
      64A      0.105474    65A      0.113938    66A      0.125234
      67A      0.142033    68A      0.154893    69A      0.176131

  @DF-RHF Final Energy: -1810.68673788256342

   => Energetics <=

    Nuclear Repulsion Energy =           1462.3084179916938865
    One-Electron Energy =               -5500.1514811109718721
    Two-Electron Energy =                2227.1563252367141104
    Total Energy =                      -1810.6867378825636479
  Basis Set: (AUG-CC-PVTZ AUX)
    Blend: AUG-CC-PVTZ-RI
    Molecular point group: c1

    Geometry (in Angstrom), charge = -4, multiplicity = 1:

       Center              X                  Y                   Z               Mass
    ------------   -----------------  -----------------  -----------------  -----------------
         P            2.603124727617     0.114003051310    -0.338663122664    30.973761998420
         P           -0.163089272383    -1.112200948690     0.310039877336    30.973761998420
         P           -2.688595272383     0.506860051310    -0.183454122664    30.973761998420
         O            1.973711727617     1.638231051310    -0.167017122664    15.994914619570
         O            1.271197727617    -0.846830948690    -0.527764122664    15.994914619570
         O            3.288185727617     0.124188051310    -1.680605122664    15.994914619570
         O            3.349188727617    -0.262030948690     0.919522877336    15.994914619570
         O           -0.967912272383     0.192669051310    -0.205273122664    15.994914619570
         O            0.113540727617    -1.048423948690     1.799452877336    15.994914619570
         O           -0.694806272383    -2.399146948690    -0.283147122664    15.994914619570
         O           -3.253568772383    -0.286019848690     1.009441277336    15.994914619570
         O           -2.692594272383     2.040068051310    -0.078686122664    15.994914619570
         O           -3.232914272383    -0.099404948690    -1.489390722664    15.994914619570
         C            1.441923727617     1.999548051310     1.122542877336    12.000000000000
         H            1.037200727617     1.133071051310     1.645121877336     1.007825032230
         H            2.222971727617     2.470608051310     1.727572877336     1.007825032230
         H            0.636322727617     2.713303051310     0.943733877336     1.007825032230

  Basis Set: AUG-CC-PVTZ
    Blend: AUG-CC-PVTZ
  Basis Set: (AUG-CC-PVTZ AUX)
    Blend: AUG-CC-PVTZ-JKFIT
	 Reference Energy          =   -1810.6867378825634205 [Eh]
	 Singles Energy            =      -0.0000000000000000 [Eh]
	 Same-Spin Energy          =      -0.9130696160320347 [Eh]
	 Opposite-Spin Energy      =      -2.5258883390676359 [Eh]
	 Correlation Energy        =      -3.4389579550996707 [Eh]
	 Total Energy              =   -1814.1256958376629882 [Eh]

	 ================> DF-SCS-MP2 Energies <==================
	-----------------------------------------------------------
	 SCS Same-Spin Scale       =       0.3333333333333333 [-]
	 SCS Opposite-Spin Scale   =       1.2000000000000000 [-]
	 SCS Same-Spin Energy      =      -0.3043565386773449 [Eh]
	 SCS Opposite-Spin Energy  =      -3.0310660068811628 [Eh]
	 SCS Correlation Energy    =      -3.3354225455585076 [Eh]
	 SCS Total Energy          =   -1814.0221604281218788 [Eh]
	-----------------------------------------------------------

  Dipole Moment: [D]
     X:     9.5004      Y:     2.5974      Z:     1.6381     Total:     9.9844

*** Psi4 exiting successfully. Buy a developer a beer!
