                               Psi4 1.3.2 release

  ==> Input File <==

--------------------------------------------------------------------------
#psi4
#
memory 32 gb

molecule  {
-4 1
  P        2.5828670     0.0826120    -0.3559070
  P       -0.1833470    -1.1435920     0.2927960
  P       -2.7088530     0.4754690    -0.2006980
  O        1.9534540     1.6068400    -0.1842610
  O        1.2509400    -0.8782220    -0.5450080
  O        3.2679280     0.0927970    -1.6978490
  O        3.3289310    -0.2934220     0.9022790
  O       -0.9881700     0.1612780    -0.2225170
  O        0.0932830    -1.0798150     1.7822090
  O       -0.7150640    -2.4305380    -0.3003910
  O       -3.2045958    -0.2347830     1.0723433
  O       -2.7128520     2.0086770    -0.0959300
  O       -3.1827679    -0.0373079    -1.5724761
  C        1.4216660     1.9681570     1.1052990
  H        1.0169430     1.1016800     1.6278780
  H        2.2027140     2.4392170     1.7103290
  H        0.6160650     2.6819120     0.9264900
units angstrom
no_reorient  #important for SAPT in psi4, default
symmetry c1  #important for SAPT in psi4, default
}

set PROPERTIES_ORIGIN ["COM"]
properties('MP2/aug-cc-pvtz', properties = ['dipole'])
--------------------------------------------------------------------------

    Molecular point group: c1
  Charge       = -4
  Multiplicity = 1
  Basis Set: AUG-CC-PVTZ
    Blend: AUG-CC-PVTZ
  Basis Set: (AUG-CC-PVTZ AUX)
    Blend: AUG-CC-PVTZ-JKFIT

    Orbital Energies [Eh]
    ---------------------

    Doubly Occupied:

       1A    -79.571943     2A    -79.526206     3A    -79.479987
       4A    -20.084840     5A    -20.037619     6A    -20.002274
       7A    -20.001989     8A    -19.990811     9A    -19.949339
      10A    -19.945462    11A    -19.922333    12A    -19.920534
      13A    -19.919471    14A    -10.810767    15A     -7.085761
      16A     -7.039146    17A     -6.993514    18A     -4.984710
      19A     -4.983767    20A     -4.982950    21A     -4.938428
      22A     -4.937022    23A     -4.936118    24A     -4.893005
      25A     -4.890888    26A     -4.890517    27A     -0.901164
      28A     -0.844873    29A     -0.805867    30A     -0.777477
      31A     -0.757051    32A     -0.741817    33A     -0.712634
      34A     -0.699432    35A     -0.663828    36A     -0.660147
      37A     -0.465904    38A     -0.293058    39A     -0.233616
      40A     -0.183072    41A     -0.163105    42A     -0.147909
      43A     -0.125431    44A     -0.098628    45A     -0.082280
      46A     -0.064849    47A     -0.051185    48A     -0.043337
      49A     -0.031351    50A     -0.015337    51A     -0.006085
      52A     -0.000567    53A      0.010564    54A      0.015536
      55A      0.021843    56A      0.037896    57A      0.047881
      58A      0.054107    59A      0.067436    60A      0.071399
      61A      0.091564    62A      0.099234    63A      0.103115
      64A      0.104332    65A      0.113991    66A      0.125241
      67A      0.145257    68A      0.149323    69A      0.171338

  @DF-RHF Final Energy: -1810.68781040749650

   => Energetics <=

    Nuclear Repulsion Energy =           1463.4028905051652600
    One-Electron Energy =               -5502.4627076758188196
    Two-Electron Energy =                2228.3720067631566053
    Total Energy =                      -1810.6878104074967268
  Basis Set: (AUG-CC-PVTZ AUX)
    Blend: AUG-CC-PVTZ-RI
    Molecular point group: c1

    Geometry (in Angstrom), charge = -4, multiplicity = 1:

       Center              X                  Y                   Z               Mass
    ------------   -----------------  -----------------  -----------------  -----------------
         P            2.594787670882     0.103487842466    -0.339517183359    30.973761998420
         P           -0.171426329118    -1.122716157534     0.309185816641    30.973761998420
         P           -2.696932329118     0.496344842466    -0.184308183359    30.973761998420
         O            1.965374670882     1.627715842466    -0.167871183359    15.994914619570
         O            1.262860670882    -0.857346157534    -0.528618183359    15.994914619570
         O            3.279848670882     0.113672842466    -1.681459183359    15.994914619570
         O            3.340851670882    -0.272546157534     0.918668816641    15.994914619570
         O           -0.976249329118     0.182153842466    -0.206127183359    15.994914619570
         O            0.105203670882    -1.058939157534     1.798598816641    15.994914619570
         O           -0.703143329118    -2.409662157534    -0.284001183359    15.994914619570
         O           -3.192675129118    -0.213907157534     1.088733116641    15.994914619570
         O           -2.700931329118     2.029552842466    -0.079540183359    15.994914619570
         O           -3.170847229118    -0.016432057534    -1.556086283359    15.994914619570
         C            1.433586670882     1.989032842466     1.121688816641    12.000000000000
         H            1.028863670882     1.122555842466     1.644267816641     1.007825032230
         H            2.214634670882     2.460092842466     1.726718816641     1.007825032230
         H            0.627985670882     2.702787842466     0.942879816641     1.007825032230

  Basis Set: AUG-CC-PVTZ
    Blend: AUG-CC-PVTZ
  Basis Set: (AUG-CC-PVTZ AUX)
    Blend: AUG-CC-PVTZ-JKFIT
	 Reference Energy          =   -1810.6878104074964995 [Eh]
	 Singles Energy            =      -0.0000000000000000 [Eh]
	 Same-Spin Energy          =      -0.9131178737631026 [Eh]
	 Opposite-Spin Energy      =      -2.5259693450235017 [Eh]
	 Correlation Energy        =      -3.4390872187866042 [Eh]
	 Total Energy              =   -1814.1268976262831529 [Eh]

	 ================> DF-SCS-MP2 Energies <==================
	-----------------------------------------------------------
	 SCS Same-Spin Scale       =       0.3333333333333333 [-]
	 SCS Opposite-Spin Scale   =       1.2000000000000000 [-]
	 SCS Same-Spin Energy      =      -0.3043726245877009 [Eh]
	 SCS Opposite-Spin Energy  =      -3.0311632140282021 [Eh]
	 SCS Correlation Energy    =      -3.3355358386159031 [Eh]
	 SCS Total Energy          =   -1814.0233462461123963 [Eh]
	-----------------------------------------------------------

  Dipole Moment: [D]
     X:     9.0975      Y:     2.1608      Z:     1.5909     Total:     9.4850

*** Psi4 exiting successfully. Buy a developer a beer!
