                               Psi4 1.3.2 release

  ==> Input File <==

--------------------------------------------------------------------------
#psi4
#
memory 32 gb

molecule  {
-4 1
  P        2.5828670     0.0826120    -0.3559070
  P       -0.1833470    -1.1435920     0.2927960
  P       -2.7088530     0.4754690    -0.2006980
  O        1.9534540     1.6068400    -0.1842610
  O        1.2827219    -0.9522392    -0.5094148
  O        3.2679280     0.0927970    -1.6978490
  O        3.3289310    -0.2934220     0.9022790
  O       -1.0540612     0.1364677    -0.1754744
  O        0.0932830    -1.0798150     1.7822090
  O       -0.7150640    -2.4305380    -0.3003910
  O       -3.2327710    -0.2685190     1.0414150
  O       -2.7128520     2.0086770    -0.0959300
  O       -3.2113930    -0.0752120    -1.5473660
  C        1.4216660     1.9681570     1.1052990
  H        1.0169430     1.1016800     1.6278780
  H        2.2027140     2.4392170     1.7103290
  H        0.6160650     2.6819120     0.9264900
units angstrom
no_reorient  #important for SAPT in psi4, default
symmetry c1  #important for SAPT in psi4, default
}

set PROPERTIES_ORIGIN ["COM"]
properties('MP2/aug-cc-pvtz', properties = ['dipole'])
--------------------------------------------------------------------------

    Molecular point group: c1
  Charge       = -4
  Multiplicity = 1
  Basis Set: AUG-CC-PVTZ
    Blend: AUG-CC-PVTZ
  Basis Set: (AUG-CC-PVTZ AUX)
    Blend: AUG-CC-PVTZ-JKFIT

    Orbital Energies [Eh]
    ---------------------

    Doubly Occupied:

       1A    -79.577273     2A    -79.530561     3A    -79.474850
       4A    -20.092881     5A    -20.045121     6A    -20.006873
       7A    -20.003229     8A    -19.996506     9A    -19.948182
      10A    -19.942928    11A    -19.921392    12A    -19.915914
      13A    -19.909946    14A    -10.815462    15A     -7.090997
      16A     -7.043153    17A     -6.988791    18A     -4.989880
      19A     -4.989037    20A     -4.988105    21A     -4.942301
      22A     -4.941264    23A     -4.940047    24A     -4.888412
      25A     -4.886106    26A     -4.885925    27A     -0.906143
      28A     -0.849690    29A     -0.814215    30A     -0.784608
      31A     -0.759863    32A     -0.740490    33A     -0.712256
      34A     -0.698397    35A     -0.660740    36A     -0.654487
      37A     -0.471108    38A     -0.295414    39A     -0.244730
      40A     -0.195939    41A     -0.169686    42A     -0.154121
      43A     -0.125931    44A     -0.096898    45A     -0.085348
      46A     -0.064205    47A     -0.055641    48A     -0.049180
      49A     -0.037140    50A     -0.019963    51A     -0.010492
      52A     -0.000709    53A      0.006002    54A      0.014260
      55A      0.025664    56A      0.031840    57A      0.046260
      58A      0.052257    59A      0.066928    60A      0.069779
      61A      0.090607    62A      0.102524    63A      0.103797
      64A      0.106814    65A      0.115789    66A      0.126446
      67A      0.148770    68A      0.154960    69A      0.176037

  @DF-RHF Final Energy: -1810.68739219869963

   => Energetics <=

    Nuclear Repulsion Energy =           1462.7458087458740010
    One-Electron Energy =               -5500.9188040680937775
    Two-Electron Energy =                2227.4856031235203773
    Total Energy =                      -1810.6873921986993992
  Basis Set: (AUG-CC-PVTZ AUX)
    Blend: AUG-CC-PVTZ-RI
    Molecular point group: c1

    Geometry (in Angstrom), charge = -4, multiplicity = 1:

       Center              X                  Y                   Z               Mass
    ------------   -----------------  -----------------  -----------------  -----------------
         P            2.600215533370     0.113665807076    -0.344103666739    30.973761998420
         P           -0.165998466630    -1.112538192924     0.304599333261    30.973761998420
         P           -2.691504466630     0.506522807076    -0.188894666739    30.973761998420
         O            1.970802533370     1.637893807076    -0.172457666739    15.994914619570
         O            1.300070433370    -0.921185392924    -0.497611466739    15.994914619570
         O            3.285276533370     0.123850807076    -1.686045666739    15.994914619570
         O            3.346279533370    -0.262368192924     0.914082333261    15.994914619570
         O           -1.036712666630     0.167521507076    -0.163671066739    15.994914619570
         O            0.110631533370    -1.048761192924     1.794012333261    15.994914619570
         O           -0.697715466630    -2.399484192924    -0.288587666739    15.994914619570
         O           -3.215422466630    -0.237465192924     1.053218333261    15.994914619570
         O           -2.695503466630     2.039730807076    -0.084126666739    15.994914619570
         O           -3.194044466630    -0.044158192924    -1.535562666739    15.994914619570
         C            1.439014533370     1.999210807076     1.117102333261    12.000000000000
         H            1.034291533370     1.132733807076     1.639681333261     1.007825032230
         H            2.220062533370     2.470270807076     1.722132333261     1.007825032230
         H            0.633413533370     2.712965807076     0.938293333261     1.007825032230

  Basis Set: AUG-CC-PVTZ
    Blend: AUG-CC-PVTZ
  Basis Set: (AUG-CC-PVTZ AUX)
    Blend: AUG-CC-PVTZ-JKFIT
	 Reference Energy          =   -1810.6873921986996265 [Eh]
	 Singles Energy            =      -0.0000000000000000 [Eh]
	 Same-Spin Energy          =      -0.9125320448207159 [Eh]
	 Opposite-Spin Energy      =      -2.5244497238296133 [Eh]
	 Correlation Energy        =      -3.4369817686503294 [Eh]
	 Total Energy              =   -1814.1243739673500386 [Eh]

	 ================> DF-SCS-MP2 Energies <==================
	-----------------------------------------------------------
	 SCS Same-Spin Scale       =       0.3333333333333333 [-]
	 SCS Opposite-Spin Scale   =       1.2000000000000000 [-]
	 SCS Same-Spin Energy      =      -0.3041773482735720 [Eh]
	 SCS Opposite-Spin Energy  =      -3.0293396685955361 [Eh]
	 SCS Correlation Energy    =      -3.3335170168691080 [Eh]
	 SCS Total Energy          =   -1814.0209092155687358 [Eh]
	-----------------------------------------------------------

  Dipole Moment: [D]
     X:     9.7472      Y:     2.4428      Z:     1.5261     Total:    10.1638

*** Psi4 exiting successfully. Buy a developer a beer!
