                               Psi4 1.3.2 release

  ==> Input File <==

--------------------------------------------------------------------------
#psi4
#
memory 32 gb

molecule  {
-4 1
  P        2.5828670     0.0826120    -0.3559070
  P       -0.1833470    -1.1435920     0.2927960
  P       -2.7088530     0.4754690    -0.2006980
  O        1.9534540     1.6068400    -0.1842610
  O        1.2741818    -0.8903072    -0.6274986
  O        3.2110257     0.0453548    -1.7249392
  O        3.3289310    -0.2934220     0.9022790
  O       -0.9881700     0.1612780    -0.2225170
  O        0.0932830    -1.0798150     1.7822090
  O       -0.7150640    -2.4305380    -0.3003910
  O       -3.2327710    -0.2685190     1.0414150
  O       -2.7128520     2.0086770    -0.0959300
  O       -3.2113930    -0.0752120    -1.5473660
  C        1.4216660     1.9681570     1.1052990
  H        1.0169430     1.1016800     1.6278780
  H        2.2027140     2.4392170     1.7103290
  H        0.6160650     2.6819120     0.9264900
units angstrom
no_reorient  #important for SAPT in psi4, default
symmetry c1  #important for SAPT in psi4, default
}

set PROPERTIES_ORIGIN ["COM"]
properties('MP2/aug-cc-pvtz', properties = ['dipole'])
--------------------------------------------------------------------------

    Molecular point group: c1
  Charge       = -4
  Multiplicity = 1
  Basis Set: AUG-CC-PVTZ
    Blend: AUG-CC-PVTZ
  Basis Set: (AUG-CC-PVTZ AUX)
    Blend: AUG-CC-PVTZ-JKFIT

    Orbital Energies [Eh]
    ---------------------

    Doubly Occupied:

       1A    -79.567358     2A    -79.530613     3A    -79.480887
       4A    -20.087207     5A    -20.033513     6A    -20.005972
       7A    -19.995053     8A    -19.994289     9A    -19.956935
      10A    -19.946255    11A    -19.924744    12A    -19.919755
      13A    -19.918435    14A    -10.813166    15A     -7.081639
      16A     -7.043133    17A     -6.994396    18A     -4.980470
      19A     -4.979731    20A     -4.978734    21A     -4.942231
      22A     -4.940993    23A     -4.940095    24A     -4.893871
      25A     -4.891658    26A     -4.891506    27A     -0.900370
      28A     -0.837805    29A     -0.807050    30A     -0.772664
      31A     -0.756085    32A     -0.741496    33A     -0.715327
      34A     -0.701917    35A     -0.664258    36A     -0.659865
      37A     -0.467923    38A     -0.280251    39A     -0.235430
      40A     -0.181063    41A     -0.163770    42A     -0.148600
      43A     -0.125301    44A     -0.099307    45A     -0.076539
      46A     -0.063402    47A     -0.050602    48A     -0.043838
      49A     -0.034089    50A     -0.014109    51A     -0.004134
      52A      0.000201    53A      0.010508    54A      0.016141
      55A      0.022247    56A      0.040522    57A      0.047216
      58A      0.052943    59A      0.067040    60A      0.073426
      61A      0.091852    62A      0.098829    63A      0.101626
      64A      0.102952    65A      0.111556    66A      0.122697
      67A      0.143545    68A      0.149549    69A      0.171267

  @DF-RHF Final Energy: -1810.68019886519824

   => Energetics <=

    Nuclear Repulsion Energy =           1461.1317904876786997
    One-Electron Energy =               -5497.9165551280530053
    Two-Electron Energy =                2226.1045657751760700
    Total Energy =                      -1810.6801988651982356
  Basis Set: (AUG-CC-PVTZ AUX)
    Blend: AUG-CC-PVTZ-RI
    Molecular point group: c1

    Geometry (in Angstrom), charge = -4, multiplicity = 1:

       Center              X                  Y                   Z               Mass
    ------------   -----------------  -----------------  -----------------  -----------------
         P            2.600188737248     0.111319349292    -0.332627153007    30.973761998420
         P           -0.166025262752    -1.114884650708     0.316075846993    30.973761998420
         P           -2.691531262752     0.504176349292    -0.177418153007    30.973761998420
         O            1.970775737248     1.635547349292    -0.160981153007    15.994914619570
         O            1.291503537248    -0.861599850708    -0.604218753007    15.994914619570
         O            3.228347437248     0.074062149292    -1.701659353007    15.994914619570
         O            3.346252737248    -0.264714650708     0.925558846993    15.994914619570
         O           -0.970848262752     0.189985349292    -0.199237153007    15.994914619570
         O            0.110604737248    -1.051107650708     1.805488846993    15.994914619570
         O           -0.697742262752    -2.401830650708    -0.277111153007    15.994914619570
         O           -3.215449262752    -0.239811650708     1.064694846993    15.994914619570
         O           -2.695530262752     2.037384349292    -0.072650153007    15.994914619570
         O           -3.194071262752    -0.046504650708    -1.524086153007    15.994914619570
         C            1.438987737248     1.996864349292     1.128578846993    12.000000000000
         H            1.034264737248     1.130387349292     1.651157846993     1.007825032230
         H            2.220035737248     2.467924349292     1.733608846993     1.007825032230
         H            0.633386737248     2.710619349292     0.949769846993     1.007825032230

  Basis Set: AUG-CC-PVTZ
    Blend: AUG-CC-PVTZ
  Basis Set: (AUG-CC-PVTZ AUX)
    Blend: AUG-CC-PVTZ-JKFIT
	 Reference Energy          =   -1810.6801988651982356 [Eh]
	 Singles Energy            =      -0.0000000000000000 [Eh]
	 Same-Spin Energy          =      -0.9140449970677392 [Eh]
	 Opposite-Spin Energy      =      -2.5284377135155469 [Eh]
	 Correlation Energy        =      -3.4424827105832860 [Eh]
	 Total Energy              =   -1814.1226815757815984 [Eh]

	 ================> DF-SCS-MP2 Energies <==================
	-----------------------------------------------------------
	 SCS Same-Spin Scale       =       0.3333333333333333 [-]
	 SCS Opposite-Spin Scale   =       1.2000000000000000 [-]
	 SCS Same-Spin Energy      =      -0.3046816656892464 [Eh]
	 SCS Opposite-Spin Energy  =      -3.0341252562186560 [Eh]
	 SCS Correlation Energy    =      -3.3388069219079024 [Eh]
	 SCS Total Energy          =   -1814.0190057871061526 [Eh]
	-----------------------------------------------------------

  Dipole Moment: [D]
     X:     9.0705      Y:     2.3883      Z:     1.9163     Total:     9.5735

*** Psi4 exiting successfully. Buy a developer a beer!
