                               Psi4 1.3.2 release

  ==> Input File <==

--------------------------------------------------------------------------
#psi4
#
memory 32 gb

molecule  {
-4 1
  P        2.5828670     0.0826120    -0.3559070
  P       -0.1833470    -1.1435920     0.2927960
  P       -2.7088530     0.4754690    -0.2006980
  O        1.9534540     1.6068400    -0.1842610
  O        1.2509400    -0.8782220    -0.5450080
  O        3.2679280     0.0927970    -1.6978490
  O        3.3289310    -0.2934220     0.9022790
  O       -0.9881700     0.1612780    -0.2225170
  O        0.0932830    -1.0798150     1.7822090
  O       -0.7150640    -2.4305380    -0.3003910
  O       -3.2327710    -0.2685190     1.0414150
  O       -2.7225111     2.0101242    -0.1209102
  O       -3.2154022    -0.0500529    -1.5558900
  C        1.4216660     1.9681570     1.1052990
  H        1.0169430     1.1016800     1.6278780
  H        2.2027140     2.4392170     1.7103290
  H        0.6160650     2.6819120     0.9264900
units angstrom
no_reorient  #important for SAPT in psi4, default
symmetry c1  #important for SAPT in psi4, default
}

set PROPERTIES_ORIGIN ["COM"]
properties('MP2/aug-cc-pvtz', properties = ['dipole'])
--------------------------------------------------------------------------

    Molecular point group: c1
  Charge       = -4
  Multiplicity = 1
  Basis Set: AUG-CC-PVTZ
    Blend: AUG-CC-PVTZ
  Basis Set: (AUG-CC-PVTZ AUX)
    Blend: AUG-CC-PVTZ-JKFIT

    Orbital Energies [Eh]
    ---------------------

    Doubly Occupied:

       1A    -79.572864     2A    -79.527654     3A    -79.479844
       4A    -20.085943     5A    -20.038780     6A    -20.003135
       7A    -20.002773     8A    -19.994155     9A    -19.950776
      10A    -19.946013    11A    -19.922258    12A    -19.919593
      13A    -19.917527    14A    -10.812064    15A     -7.086687
      16A     -7.040592    17A     -6.993345    18A     -4.985637
      19A     -4.984693    20A     -4.983872    21A     -4.939867
      22A     -4.938484    23A     -4.937551    24A     -4.892791
      25A     -4.890656    26A     -4.890439    27A     -0.902251
      28A     -0.846182    29A     -0.807105    30A     -0.778360
      31A     -0.757876    32A     -0.742452    33A     -0.714113
      34A     -0.700347    35A     -0.662929    36A     -0.658750
      37A     -0.467169    38A     -0.294306    39A     -0.235080
      40A     -0.184479    41A     -0.164357    42A     -0.149114
      43A     -0.126345    44A     -0.099433    45A     -0.083217
      46A     -0.065284    47A     -0.052345    48A     -0.044510
      49A     -0.032333    50A     -0.016443    51A     -0.006990
      52A      0.000020    53A      0.009646    54A      0.014659
      55A      0.020886    56A      0.037091    57A      0.047312
      58A      0.053198    59A      0.066549    60A      0.070384
      61A      0.090482    62A      0.101038    63A      0.102492
      64A      0.103028    65A      0.113576    66A      0.124825
      67A      0.144101    68A      0.151001    69A      0.172558

  @DF-RHF Final Energy: -1810.68914987737003

   => Energetics <=

    Nuclear Repulsion Energy =           1462.5732692304006832
    One-Electron Energy =               -5500.7110034226625430
    Two-Electron Energy =                2227.4485843148913773
    Total Energy =                      -1810.6891498773702551
  Basis Set: (AUG-CC-PVTZ AUX)
    Blend: AUG-CC-PVTZ-RI
    Molecular point group: c1

    Geometry (in Angstrom), charge = -4, multiplicity = 1:

       Center              X                  Y                   Z               Mass
    ------------   -----------------  -----------------  -----------------  -----------------
         P            2.598995079896     0.106176637420    -0.337169394128    30.973761998420
         P           -0.167218920104    -1.120027362580     0.311533605872    30.973761998420
         P           -2.692724920104     0.499033637420    -0.181960394128    30.973761998420
         O            1.969582079896     1.630404637420    -0.165523394128    15.994914619570
         O            1.267068079896    -0.854657362580    -0.526270394128    15.994914619570
         O            3.284056079896     0.116361637420    -1.679111394128    15.994914619570
         O            3.345059079896    -0.269857362580     0.921016605872    15.994914619570
         O           -0.972041920104     0.184842637420    -0.203779394128    15.994914619570
         O            0.109411079896    -1.056250362580     1.800946605872    15.994914619570
         O           -0.698935920104    -2.406973362580    -0.281653394128    15.994914619570
         O           -3.216642920104    -0.244954362580     1.060152605872    15.994914619570
         O           -2.706383020104     2.033688837420    -0.102172594128    15.994914619570
         O           -3.199274120104    -0.026488262580    -1.537152394128    15.994914619570
         C            1.437794079896     1.991721637420     1.124036605872    12.000000000000
         H            1.033071079896     1.125244637420     1.646615605872     1.007825032230
         H            2.218842079896     2.462781637420     1.729066605872     1.007825032230
         H            0.632193079896     2.705476637420     0.945227605872     1.007825032230

  Basis Set: AUG-CC-PVTZ
    Blend: AUG-CC-PVTZ
  Basis Set: (AUG-CC-PVTZ AUX)
    Blend: AUG-CC-PVTZ-JKFIT
	 Reference Energy          =   -1810.6891498773700278 [Eh]
	 Singles Energy            =      -0.0000000000000000 [Eh]
	 Same-Spin Energy          =      -0.9129748922384717 [Eh]
	 Opposite-Spin Energy      =      -2.5257112608258505 [Eh]
	 Correlation Energy        =      -3.4386861530643222 [Eh]
	 Total Energy              =   -1814.1278360304343096 [Eh]

	 ================> DF-SCS-MP2 Energies <==================
	-----------------------------------------------------------
	 SCS Same-Spin Scale       =       0.3333333333333333 [-]
	 SCS Opposite-Spin Scale   =       1.2000000000000000 [-]
	 SCS Same-Spin Energy      =      -0.3043249640794906 [Eh]
	 SCS Opposite-Spin Energy  =      -3.0308535129910203 [Eh]
	 SCS Correlation Energy    =      -3.3351784770705111 [Eh]
	 SCS Total Energy          =   -1814.0243283544405131 [Eh]
	-----------------------------------------------------------

  Dipole Moment: [D]
     X:     9.3071      Y:     2.2613      Z:     1.7036     Total:     9.7282

*** Psi4 exiting successfully. Buy a developer a beer!
