                               Psi4 1.4a3.dev225

  ==> Input File <==

--------------------------------------------------------------------------
#psi4
#
memory 32 gb

molecule  {
-4 1
  P       -2.5202440    -0.2449420     0.3712220
  P        0.3565170    -0.5960480    -0.3589090
  P        3.1750170     0.3881900     0.1554910
  O       -2.7927880     1.3311510    -0.1150520
  O       -0.8973502    -0.0816343     0.6455977
  O       -3.1856250    -0.4605710     1.7148300
  O       -2.8507450    -1.1694890    -0.7786080
  O        1.4898640     0.0841660     0.5723090
  O        0.2127210     0.0849480    -1.7048820
  O        0.4027150    -2.1095660    -0.2874290
  O        3.5327910    -0.6840640    -0.8835370
  O        3.1643710     1.8286230    -0.3742880
  O        3.8338960     0.2099350     1.5311200
  C       -4.1398760     1.5889580    -0.5252390
  H       -4.4292020     0.9309370    -1.3496150
  H       -4.8386320     1.4471050     0.3059850
  H       -4.1840730     2.6280350    -0.8559160
units angstrom
no_reorient  #important for SAPT in psi4, default
symmetry c1  #important for SAPT in psi4, default
}

set PROPERTIES_ORIGIN ["COM"]
properties('MP2/aug-cc-pvtz', properties = ['dipole'])
--------------------------------------------------------------------------

    Molecular point group: c1
  Charge       = -4
  Multiplicity = 1
  Basis Set: AUG-CC-PVTZ
    Blend: AUG-CC-PVTZ
  Basis Set: (AUG-CC-PVTZ AUX)
    Blend: AUG-CC-PVTZ-JKFIT

    Orbital Energies [Eh]
    ---------------------

    Doubly Occupied:

       1A    -79.584108     2A    -79.514594     3A    -79.474318
       4A    -20.120845     5A    -20.042060     6A    -20.017352
       7A    -20.007119     8A    -19.982156     9A    -19.935391
      10A    -19.933917    11A    -19.921067    12A    -19.916172
      13A    -19.912273    14A    -10.884684    15A     -7.098047
      16A     -7.027871    17A     -6.988074    18A     -4.997188
      19A     -4.995845    20A     -4.994980    21A     -4.927284
      22A     -4.925703    23A     -4.924567    24A     -4.887457
      25A     -4.885373    26A     -4.885245    27A     -0.932256
      28A     -0.852470    29A     -0.807944    30A     -0.776639
      31A     -0.763121    32A     -0.734874    33A     -0.704599
      34A     -0.685692    35A     -0.661082    36A     -0.656358
      37A     -0.529509    38A     -0.308722    39A     -0.252189
      40A     -0.222004    41A     -0.196904    42A     -0.165257
      43A     -0.139578    44A     -0.108064    45A     -0.093840
      46A     -0.080121    47A     -0.063369    48A     -0.051767
      49A     -0.034473    50A     -0.026826    51A     -0.011296
      52A     -0.008923    53A      0.008379    54A      0.012250
      55A      0.023913    56A      0.034065    57A      0.046422
      58A      0.056075    59A      0.060527    60A      0.081911
      61A      0.098580    62A      0.104260    63A      0.108283
      64A      0.109382    65A      0.126189    66A      0.136544
      67A      0.149006    68A      0.155443    69A      0.175415

  @DF-RHF Final Energy: -1810.67348474702612

   => Energetics <=

    Nuclear Repulsion Energy =           1425.4888350390356209
    One-Electron Energy =               -5425.9948017700226046
    Two-Electron Energy =                2189.8324819839608608
    Total Energy =                      -1810.6734847470261229
  Basis Set: (AUG-CC-PVTZ AUX)
    Blend: AUG-CC-PVTZ-RI
    Molecular point group: c1

    Geometry (in Angstrom), charge = -4, multiplicity = 1:

       Center              X                  Y                   Z               Mass
    ------------   -----------------  -----------------  -----------------  -----------------
         P           -2.574857314728    -0.224891975173     0.363384618626    30.973761998420
         P            0.301903685272    -0.575997975173    -0.366746381374    30.973761998420
         P            3.120403685272     0.408240024827     0.147653618626    30.973761998420
         O           -2.847401314728     1.351201024827    -0.122889381374    15.994914619570
         O           -0.951963514728    -0.061584275173     0.637760318626    15.994914619570
         O           -3.240238314728    -0.440520975173     1.706992618626    15.994914619570
         O           -2.905358314728    -1.149438975173    -0.786445381374    15.994914619570
         O            1.435250685272     0.104216024827     0.564471618626    15.994914619570
         O            0.158107685272     0.104998024827    -1.712719381374    15.994914619570
         O            0.348101685272    -2.089515975173    -0.295266381374    15.994914619570
         O            3.478177685272    -0.664013975173    -0.891374381374    15.994914619570
         O            3.109757685272     1.848673024827    -0.382125381374    15.994914619570
         O            3.779282685272     0.229985024827     1.523282618626    15.994914619570
         C           -4.194489314728     1.609008024827    -0.533076381374    12.000000000000
         H           -4.483815314728     0.950987024827    -1.357452381374     1.007825032230
         H           -4.893245314728     1.467155024827     0.298147618626     1.007825032230
         H           -4.238686314728     2.648085024827    -0.863753381374     1.007825032230

  Basis Set: AUG-CC-PVTZ
    Blend: AUG-CC-PVTZ
  Basis Set: (AUG-CC-PVTZ AUX)
    Blend: AUG-CC-PVTZ-JKFIT
	 Reference Energy          =   -1810.6734847470261229 [Eh]
	 Singles Energy            =      -0.0000000000000000 [Eh]
	 Same-Spin Energy          =      -0.9125170558417036 [Eh]
	 Opposite-Spin Energy      =      -2.5256186628686930 [Eh]
	 Correlation Energy        =      -3.4381357187103965 [Eh]
	 Total Energy              =   -1814.1116204657364506 [Eh]

	 ================> DF-SCS-MP2 Energies <==================
	-----------------------------------------------------------
	 SCS Same-Spin Scale       =       0.3333333333333333 [-]
	 SCS Opposite-Spin Scale   =       1.2000000000000000 [-]
	 SCS Same-Spin Energy      =      -0.3041723519472345 [Eh]
	 SCS Opposite-Spin Energy  =      -3.0307423954424313 [Eh]
	 SCS Correlation Energy    =      -3.3349147473896656 [Eh]
	 SCS Total Energy          =   -1814.0083994944156984 [Eh]
	-----------------------------------------------------------

  Dipole Moment: [D]
     X:   -15.2040      Y:     2.7295      Z:     0.0328     Total:    15.4471

*** Psi4 exiting successfully. Buy a developer a beer!
