                               Psi4 1.3.2 release

  ==> Input File <==

--------------------------------------------------------------------------
#psi4
#
memory 32 gb

molecule  {
-4 1
  P        2.5828670     0.0826120    -0.3559070
  P       -0.1833470    -1.1435920     0.2927960
  P       -2.7088530     0.4754690    -0.2006980
  O        1.9534540     1.6068400    -0.1842610
  O        1.2363906    -0.8811720    -0.5703360
  O        3.2679280     0.0927970    -1.6978490
  O        3.3289310    -0.2934220     0.9022790
  O       -0.9881700     0.1612780    -0.2225170
  O        0.0676938    -1.0846275     1.7869327
  O       -0.7150640    -2.4305380    -0.3003910
  O       -3.2327710    -0.2685190     1.0414150
  O       -2.7128520     2.0086770    -0.0959300
  O       -3.2113930    -0.0752120    -1.5473660
  C        1.4216660     1.9681570     1.1052990
  H        1.0169430     1.1016800     1.6278780
  H        2.2027140     2.4392170     1.7103290
  H        0.6160650     2.6819120     0.9264900
units angstrom
no_reorient  #important for SAPT in psi4, default
symmetry c1  #important for SAPT in psi4, default
}

set PROPERTIES_ORIGIN ["COM"]
properties('MP2/aug-cc-pvtz', properties = ['dipole'])
--------------------------------------------------------------------------

    Molecular point group: c1
  Charge       = -4
  Multiplicity = 1
  Basis Set: AUG-CC-PVTZ
    Blend: AUG-CC-PVTZ
  Basis Set: (AUG-CC-PVTZ AUX)
    Blend: AUG-CC-PVTZ-JKFIT

    Orbital Energies [Eh]
    ---------------------

    Doubly Occupied:

       1A    -79.575154     2A    -79.525440     3A    -79.478838
       4A    -20.087339     5A    -20.039918     6A    -20.006219
       7A    -20.003642     8A    -19.991176     9A    -19.950870
      10A    -19.942741    11A    -19.923165    12A    -19.918321
      13A    -19.916285    14A    -10.812985    15A     -7.088817
      16A     -7.038488    17A     -6.992337    18A     -4.987734
      19A     -4.986793    20A     -4.986002    21A     -4.937723
      22A     -4.936364    23A     -4.935480    24A     -4.891792
      25A     -4.889620    26A     -4.889467    27A     -0.902527
      28A     -0.844507    29A     -0.806885    30A     -0.777710
      31A     -0.759630    32A     -0.741343    33A     -0.712515
      34A     -0.698150    35A     -0.662606    36A     -0.658048
      37A     -0.468081    38A     -0.291597    39A     -0.235086
      40A     -0.183482    41A     -0.164512    42A     -0.149726
      43A     -0.127322    44A     -0.098724    45A     -0.082092
      46A     -0.064480    47A     -0.052424    48A     -0.043953
      49A     -0.032127    50A     -0.015113    51A     -0.007328
      52A      0.000105    53A      0.009297    54A      0.014654
      55A      0.022126    56A      0.036695    57A      0.048408
      58A      0.051074    59A      0.065391    60A      0.070898
      61A      0.091999    62A      0.101310    63A      0.103102
      64A      0.104890    65A      0.115155    66A      0.126545
      67A      0.145520    68A      0.151516    69A      0.172976

  @DF-RHF Final Energy: -1810.68651701361887

   => Energetics <=

    Nuclear Repulsion Energy =           1462.2297213932502018
    One-Electron Energy =               -5500.0704441068137385
    Two-Electron Energy =                2227.1542056999446686
    Total Energy =                      -1810.6865170136188681
  Basis Set: (AUG-CC-PVTZ AUX)
    Blend: AUG-CC-PVTZ-RI
    Molecular point group: c1

    Geometry (in Angstrom), charge = -4, multiplicity = 1:

       Center              X                  Y                   Z               Mass
    ------------   -----------------  -----------------  -----------------  -----------------
         P            2.600575519678     0.108228666252    -0.337939597531    30.973761998420
         P           -0.165638480322    -1.117975333748     0.310763402469    30.973761998420
         P           -2.691144480322     0.501085666252    -0.182730597531    30.973761998420
         O            1.971162519678     1.632456666252    -0.166293597531    15.994914619570
         O            1.254099119678    -0.855555333748    -0.552368597531    15.994914619570
         O            3.285636519678     0.118413666252    -1.679881597531    15.994914619570
         O            3.346639519678    -0.267805333748     0.920246402469    15.994914619570
         O           -0.970461480322     0.186894666252    -0.204549597531    15.994914619570
         O            0.085402319678    -1.059010833748     1.804900102469    15.994914619570
         O           -0.697355480322    -2.404921333748    -0.282423597531    15.994914619570
         O           -3.215062480322    -0.242902333748     1.059382402469    15.994914619570
         O           -2.695143480322     2.034293666252    -0.077962597531    15.994914619570
         O           -3.193684480322    -0.049595333748    -1.529398597531    15.994914619570
         C            1.439374519678     1.993773666252     1.123266402469    12.000000000000
         H            1.034651519678     1.127296666252     1.645845402469     1.007825032230
         H            2.220422519678     2.464833666252     1.728296402469     1.007825032230
         H            0.633773519678     2.707528666252     0.944457402469     1.007825032230

  Basis Set: AUG-CC-PVTZ
    Blend: AUG-CC-PVTZ
  Basis Set: (AUG-CC-PVTZ AUX)
    Blend: AUG-CC-PVTZ-JKFIT
	 Reference Energy          =   -1810.6865170136188681 [Eh]
	 Singles Energy            =      -0.0000000000000000 [Eh]
	 Same-Spin Energy          =      -0.9132568726456791 [Eh]
	 Opposite-Spin Energy      =      -2.5264798027684567 [Eh]
	 Correlation Energy        =      -3.4397366754141361 [Eh]
	 Total Energy              =   -1814.1262536890330921 [Eh]

	 ================> DF-SCS-MP2 Energies <==================
	-----------------------------------------------------------
	 SCS Same-Spin Scale       =       0.3333333333333333 [-]
	 SCS Opposite-Spin Scale   =       1.2000000000000000 [-]
	 SCS Same-Spin Energy      =      -0.3044189575485597 [Eh]
	 SCS Opposite-Spin Energy  =      -3.0317757633221478 [Eh]
	 SCS Correlation Energy    =      -3.3361947208707075 [Eh]
	 SCS Total Energy          =   -1814.0227117344895760 [Eh]
	-----------------------------------------------------------

  Dipole Moment: [D]
     X:     9.4457      Y:     2.4071      Z:     1.6451     Total:     9.8854

*** Psi4 exiting successfully. Buy a developer a beer!
