                               Psi4 1.3.2 release

  ==> Input File <==

--------------------------------------------------------------------------
#psi4
#
memory 32 gb

molecule  {
-4 1
  P        2.5828670     0.0826120    -0.3559070
  P       -0.1833470    -1.1435920     0.2927960
  P       -2.7088530     0.4754690    -0.2006980
  O        1.9534540     1.6068400    -0.1842610
  O        1.2509400    -0.8782220    -0.5450080
  O        3.2679280     0.0927970    -1.6978490
  O        3.3289310    -0.2934220     0.9022790
  O       -0.9881700     0.1612780    -0.2225170
  O        0.0932830    -1.0798150     1.7822090
  O       -0.7150640    -2.4305380    -0.3003910
  O       -3.2327710    -0.2685190     1.0414150
  O       -2.7128520     2.0086770    -0.0959300
  O       -3.2113930    -0.0752120    -1.5473660
  C        1.4216660     1.9681570     1.1052990
  H        1.0169430     1.1016800     1.6278780
  H        2.2027140     2.4392170     1.7103290
  H        0.6160650     2.6819120     0.9264900
units angstrom
no_reorient  #important for SAPT in psi4, default
symmetry c1  #important for SAPT in psi4, default
}

set PROPERTIES_ORIGIN ["COM"]
properties('MP2/aug-cc-pvtz', properties = ['dipole'])
--------------------------------------------------------------------------

    Molecular point group: c1
  Charge       = -4
  Multiplicity = 1
  Basis Set: AUG-CC-PVTZ
    Blend: AUG-CC-PVTZ
  Basis Set: (AUG-CC-PVTZ AUX)
    Blend: AUG-CC-PVTZ-JKFIT

    Orbital Energies [Eh]
    ---------------------

    Doubly Occupied:

       1A    -79.572552     2A    -79.526913     3A    -79.479848
       4A    -20.085648     5A    -20.038296     6A    -20.002836
       7A    -20.002544     8A    -19.992960     9A    -19.950101
      10A    -19.945245    11A    -19.923907    12A    -19.919193
      13A    -19.917368    14A    -10.811697    15A     -7.086375
      16A     -7.039847    17A     -6.993353    18A     -4.985325
      19A     -4.984380    20A     -4.983561    21A     -4.939125
      22A     -4.937736    23A     -4.936807    24A     -4.892814
      25A     -4.890628    26A     -4.890478    27A     -0.901925
      28A     -0.845652    29A     -0.806641    30A     -0.778026
      31A     -0.757609    32A     -0.742047    33A     -0.713521
      34A     -0.699612    35A     -0.663438    36A     -0.659046
      37A     -0.466813    38A     -0.293819    39A     -0.234617
      40A     -0.184058    41A     -0.163993    42A     -0.148782
      43A     -0.125978    44A     -0.098925    45A     -0.082831
      46A     -0.065017    47A     -0.051916    48A     -0.044059
      49A     -0.031863    50A     -0.016155    51A     -0.006667
      52A      0.000168    53A      0.009711    54A      0.014767
      55A      0.021604    56A      0.037399    57A      0.047405
      58A      0.053511    59A      0.067010    60A      0.070918
      61A      0.091062    62A      0.100516    63A      0.102340
      64A      0.103916    65A      0.113940    66A      0.125293
      67A      0.144525    68A      0.150504    69A      0.172071

  @DF-RHF Final Energy: -1810.68899539887207

   => Energetics <=

    Nuclear Repulsion Energy =           1462.9219162753468026
    One-Electron Energy =               -5501.4500432394170275
    Two-Electron Energy =                2227.8391315651979312
    Total Energy =                      -1810.6889953988720663
  Basis Set: (AUG-CC-PVTZ AUX)
    Blend: AUG-CC-PVTZ-RI
    Molecular point group: c1

    Geometry (in Angstrom), charge = -4, multiplicity = 1:

       Center              X                  Y                   Z               Mass
    ------------   -----------------  -----------------  -----------------  -----------------
         P            2.598178998285     0.107765197239    -0.339169801019    30.973761998420
         P           -0.168035001715    -1.118438802761     0.309533198981    30.973761998420
         P           -2.693541001715     0.500622197239    -0.183960801019    30.973761998420
         O            1.968765998285     1.631993197239    -0.167523801019    15.994914619570
         O            1.266251998285    -0.853068802761    -0.528270801019    15.994914619570
         O            3.283239998285     0.117950197239    -1.681111801019    15.994914619570
         O            3.344242998285    -0.268268802761     0.919016198981    15.994914619570
         O           -0.972858001715     0.186431197239    -0.205779801019    15.994914619570
         O            0.108594998285    -1.054661802761     1.798946198981    15.994914619570
         O           -0.699752001715    -2.405384802761    -0.283653801019    15.994914619570
         O           -3.217459001715    -0.243365802761     1.058152198981    15.994914619570
         O           -2.697540001715     2.033830197239    -0.079192801019    15.994914619570
         O           -3.196081001715    -0.050058802761    -1.530628801019    15.994914619570
         C            1.436977998285     1.993310197239     1.122036198981    12.000000000000
         H            1.032254998285     1.126833197239     1.644615198981     1.007825032230
         H            2.218025998285     2.464370197239     1.727066198981     1.007825032230
         H            0.631376998285     2.707065197239     0.943227198981     1.007825032230

  Basis Set: AUG-CC-PVTZ
    Blend: AUG-CC-PVTZ
  Basis Set: (AUG-CC-PVTZ AUX)
    Blend: AUG-CC-PVTZ-JKFIT
	 Reference Energy          =   -1810.6889953988720663 [Eh]
	 Singles Energy            =      -0.0000000000000000 [Eh]
	 Same-Spin Energy          =      -0.9130071775170852 [Eh]
	 Opposite-Spin Energy      =      -2.5257645212761872 [Eh]
	 Correlation Energy        =      -3.4387716987932722 [Eh]
	 Total Energy              =   -1814.1277670976653553 [Eh]

	 ================> DF-SCS-MP2 Energies <==================
	-----------------------------------------------------------
	 SCS Same-Spin Scale       =       0.3333333333333333 [-]
	 SCS Opposite-Spin Scale   =       1.2000000000000000 [-]
	 SCS Same-Spin Energy      =      -0.3043357258390283 [Eh]
	 SCS Opposite-Spin Energy  =      -3.0309174255314244 [Eh]
	 SCS Correlation Energy    =      -3.3352531513704529 [Eh]
	 SCS Total Energy          =   -1814.0242485502424188 [Eh]
	-----------------------------------------------------------

  Dipole Moment: [D]
     X:     9.2565      Y:     2.3383      Z:     1.6087     Total:     9.6819

*** Psi4 exiting successfully. Buy a developer a beer!
