                               Psi4 1.4a3.dev225

  ==> Input File <==

--------------------------------------------------------------------------
#psi4
#
memory 32 gb

molecule  {
-4 1
  P       -2.5202440    -0.2449420     0.3712220
  P        0.3565170    -0.5960480    -0.3589090
  P        3.1750170     0.3881900     0.1554910
  O       -2.7927880     1.3311510    -0.1150520
  O       -0.9169740    -0.0836090     0.6422800
  O       -3.1856250    -0.4605710     1.7148300
  O       -2.8507450    -1.1694890    -0.7786080
  O        1.4898640     0.0841660     0.5723090
  O        0.2127210     0.0849480    -1.7048820
  O        0.4021055    -2.0895975    -0.2883721
  O        3.5327910    -0.6840640    -0.8835370
  O        3.1643710     1.8286230    -0.3742880
  O        3.8338960     0.2099350     1.5311200
  C       -4.1398760     1.5889580    -0.5252390
  H       -4.4292020     0.9309370    -1.3496150
  H       -4.8386320     1.4471050     0.3059850
  H       -4.1840730     2.6280350    -0.8559160
units angstrom
no_reorient  #important for SAPT in psi4, default
symmetry c1  #important for SAPT in psi4, default
}

set PROPERTIES_ORIGIN ["COM"]
properties('MP2/aug-cc-pvtz', properties = ['dipole'])
--------------------------------------------------------------------------

    Molecular point group: c1
  Charge       = -4
  Multiplicity = 1
  Basis Set: AUG-CC-PVTZ
    Blend: AUG-CC-PVTZ
  Basis Set: (AUG-CC-PVTZ AUX)
    Blend: AUG-CC-PVTZ-JKFIT

    Orbital Energies [Eh]
    ---------------------

    Doubly Occupied:

       1A    -79.580234     2A    -79.513263     3A    -79.474912
       4A    -20.118712     5A    -20.040460     6A    -20.014730
       7A    -20.004757     8A    -19.982719     9A    -19.936045
      10A    -19.933357    11A    -19.921583    12A    -19.916524
      13A    -19.912892    14A    -10.883088    15A     -7.094509
      16A     -7.027105    17A     -6.988660    18A     -4.993658
      19A     -4.992340    20A     -4.991447    21A     -4.926431
      22A     -4.924887    23A     -4.923871    24A     -4.888048
      25A     -4.885956    26A     -4.885827    27A     -0.930859
      28A     -0.853073    29A     -0.807000    30A     -0.777033
      31A     -0.760967    32A     -0.738523    33A     -0.706821
      34A     -0.688897    35A     -0.661554    36A     -0.656878
      37A     -0.527877    38A     -0.307765    39A     -0.251367
      40A     -0.220388    41A     -0.195814    42A     -0.164679
      43A     -0.139444    44A     -0.107609    45A     -0.093816
      46A     -0.079004    47A     -0.062779    48A     -0.051325
      49A     -0.035105    50A     -0.025111    51A     -0.012090
      52A     -0.009700    53A      0.009809    54A      0.011550
      55A      0.022975    56A      0.034445    57A      0.048290
      58A      0.054166    59A      0.062093    60A      0.080253
      61A      0.097404    62A      0.103642    63A      0.106904
      64A      0.108218    65A      0.124736    66A      0.135153
      67A      0.148432    68A      0.154866    69A      0.174918

  @DF-RHF Final Energy: -1810.67663371514345

   => Energetics <=

    Nuclear Repulsion Energy =           1426.6974344953628133
    One-Electron Energy =               -5428.4608564919926721
    Two-Electron Energy =                2191.0867882814864060
    Total Energy =                      -1810.6766337151434527
  Basis Set: (AUG-CC-PVTZ AUX)
    Blend: AUG-CC-PVTZ-RI
    Molecular point group: c1

    Geometry (in Angstrom), charge = -4, multiplicity = 1:

       Center              X                  Y                   Z               Mass
    ------------   -----------------  -----------------  -----------------  -----------------
         P           -2.573649262222    -0.225966315749     0.363639014602    30.973761998420
         P            0.303111737778    -0.577072315749    -0.366491985398    30.973761998420
         P            3.121611737778     0.407165684251     0.147908014602    30.973761998420
         O           -2.846193262222     1.350126684251    -0.122634985398    15.994914619570
         O           -0.970379262222    -0.064633315749     0.634697014602    15.994914619570
         O           -3.239030262222    -0.441595315749     1.707247014602    15.994914619570
         O           -2.904150262222    -1.150513315749    -0.786190985398    15.994914619570
         O            1.436458737778     0.103141684251     0.564726014602    15.994914619570
         O            0.159315737778     0.103923684251    -1.712464985398    15.994914619570
         O            0.348700237778    -2.070621815749    -0.295955085398    15.994914619570
         O            3.479385737778    -0.665088315749    -0.891119985398    15.994914619570
         O            3.110965737778     1.847598684251    -0.381870985398    15.994914619570
         O            3.780490737778     0.228910684251     1.523537014602    15.994914619570
         C           -4.193281262222     1.607933684251    -0.532821985398    12.000000000000
         H           -4.482607262222     0.949912684251    -1.357197985398     1.007825032230
         H           -4.892037262222     1.466080684251     0.298402014602     1.007825032230
         H           -4.237478262222     2.647010684251    -0.863498985398     1.007825032230

  Basis Set: AUG-CC-PVTZ
    Blend: AUG-CC-PVTZ
  Basis Set: (AUG-CC-PVTZ AUX)
    Blend: AUG-CC-PVTZ-JKFIT
	 Reference Energy          =   -1810.6766337151434527 [Eh]
	 Singles Energy            =      -0.0000000000000000 [Eh]
	 Same-Spin Energy          =      -0.9120132557183545 [Eh]
	 Opposite-Spin Energy      =      -2.5242858139171607 [Eh]
	 Correlation Energy        =      -3.4362990696355151 [Eh]
	 Total Energy              =   -1814.1129327847788772 [Eh]

	 ================> DF-SCS-MP2 Energies <==================
	-----------------------------------------------------------
	 SCS Same-Spin Scale       =       0.3333333333333333 [-]
	 SCS Opposite-Spin Scale   =       1.2000000000000000 [-]
	 SCS Same-Spin Energy      =      -0.3040044185727848 [Eh]
	 SCS Opposite-Spin Energy  =      -3.0291429767005926 [Eh]
	 SCS Correlation Energy    =      -3.3331473952733774 [Eh]
	 SCS Total Energy          =   -1814.0097811104167249 [Eh]
	-----------------------------------------------------------

  Dipole Moment: [D]
     X:   -14.9809      Y:     2.5860      Z:     0.0125     Total:    15.2025

*** Psi4 exiting successfully. Buy a developer a beer!
