                               Psi4 1.3.2 release

  ==> Input File <==

--------------------------------------------------------------------------
#psi4
#
memory 32 gb

molecule  {
-4 1
  P        2.5828670     0.0826120    -0.3559070
  P       -0.2325540    -1.1667189     0.3079940
  P       -2.7174386     0.4207347    -0.1750365
  O        1.9534540     1.6068400    -0.1842610
  O        1.2509400    -0.8782220    -0.5450080
  O        3.2679280     0.0927970    -1.6978490
  O        3.3289310    -0.2934220     0.9022790
  O       -0.9881700     0.1612780    -0.2225170
  O        0.0932830    -1.0798150     1.7822090
  O       -0.7150640    -2.4305380    -0.3003910
  O       -3.2327710    -0.2685190     1.0414150
  O       -2.7128520     2.0086770    -0.0959300
  O       -3.2113930    -0.0752120    -1.5473660
  C        1.4216660     1.9681570     1.1052990
  H        1.0169430     1.1016800     1.6278780
  H        2.2027140     2.4392170     1.7103290
  H        0.6160650     2.6819120     0.9264900
units angstrom
no_reorient  #important for SAPT in psi4, default
symmetry c1  #important for SAPT in psi4, default
}

set PROPERTIES_ORIGIN ["COM"]
properties('MP2/aug-cc-pvtz', properties = ['dipole'])
--------------------------------------------------------------------------

    Molecular point group: c1
  Charge       = -4
  Multiplicity = 1
  Basis Set: AUG-CC-PVTZ
    Blend: AUG-CC-PVTZ
  Basis Set: (AUG-CC-PVTZ AUX)
    Blend: AUG-CC-PVTZ-JKFIT

    Orbital Energies [Eh]
    ---------------------

    Doubly Occupied:

       1A    -79.564474     2A    -79.528125     3A    -79.481512
       4A    -20.080012     5A    -20.024558     6A    -19.998913
       7A    -19.997052     8A    -19.996476     9A    -19.956363
      10A    -19.954973    11A    -19.930401    12A    -19.921363
      13A    -19.915510    14A    -10.807925    15A     -7.078310
      16A     -7.042053    17A     -6.995535    18A     -4.977279
      19A     -4.976248    20A     -4.975568    21A     -4.941231
      22A     -4.939801    23A     -4.939024    24A     -4.894909
      25A     -4.893007    26A     -4.892457    27A     -0.894568
      28A     -0.838666    29A     -0.805860    30A     -0.773924
      31A     -0.751884    32A     -0.746645    33A     -0.724911
      34A     -0.713444    35A     -0.674903    36A     -0.645139
      37A     -0.462476    38A     -0.280702    39A     -0.230028
      40A     -0.177142    41A     -0.158863    42A     -0.143406
      43A     -0.123406    44A     -0.102158    45A     -0.075998
      46A     -0.066776    47A     -0.051900    48A     -0.041170
      49A     -0.032664    50A     -0.015099    51A     -0.003734
      52A     -0.000157    53A      0.010611    54A      0.018460
      55A      0.019819    56A      0.038895    57A      0.044780
      58A      0.059094    59A      0.062874    60A      0.073104
      61A      0.083550    62A      0.095133    63A      0.098204
      64A      0.105970    65A      0.109258    66A      0.115605
      67A      0.137944    68A      0.153598    69A      0.172328

  @DF-RHF Final Energy: -1810.68306573444761

   => Energetics <=

    Nuclear Repulsion Energy =           1462.4199129039352556
    One-Electron Energy =               -5500.5270084952517209
    Two-Electron Energy =                2227.4240298568688559
    Total Energy =                      -1810.6830657344476094
  Basis Set: (AUG-CC-PVTZ AUX)
    Blend: AUG-CC-PVTZ-RI
    Molecular point group: c1

    Geometry (in Angstrom), charge = -4, multiplicity = 1:

       Center              X                  Y                   Z               Mass
    ------------   -----------------  -----------------  -----------------  -----------------
         P            2.604860950315     0.116767470945    -0.343893956343    30.973761998420
         P           -0.210560049685    -1.132563429055     0.320007043657    30.973761998420
         P           -2.695444649685     0.454890170945    -0.163023456343    30.973761998420
         O            1.975447950315     1.640995470945    -0.172247956343    15.994914619570
         O            1.272933950315    -0.844066529055    -0.532994956343    15.994914619570
         O            3.289921950315     0.126952470945    -1.685835956343    15.994914619570
         O            3.350924950315    -0.259266529055     0.914292043657    15.994914619570
         O           -0.966176049685     0.195433470945    -0.210503956343    15.994914619570
         O            0.115276950315    -1.045659529055     1.794222043657    15.994914619570
         O           -0.693070049685    -2.396382529055    -0.288377956343    15.994914619570
         O           -3.210777049685    -0.234363529055     1.053428043657    15.994914619570
         O           -2.690858049685     2.042832470945    -0.083916956343    15.994914619570
         O           -3.189399049685    -0.041056529055    -1.535352956343    15.994914619570
         C            1.443659950315     2.002312470945     1.117312043657    12.000000000000
         H            1.038936950315     1.135835470945     1.639891043657     1.007825032230
         H            2.224707950315     2.473372470945     1.722342043657     1.007825032230
         H            0.638058950315     2.716067470945     0.938503043657     1.007825032230

  Basis Set: AUG-CC-PVTZ
    Blend: AUG-CC-PVTZ
  Basis Set: (AUG-CC-PVTZ AUX)
    Blend: AUG-CC-PVTZ-JKFIT
	 Reference Energy          =   -1810.6830657344476094 [Eh]
	 Singles Energy            =      -0.0000000000000000 [Eh]
	 Same-Spin Energy          =      -0.9131779675835734 [Eh]
	 Opposite-Spin Energy      =      -2.5262839312352554 [Eh]
	 Correlation Energy        =      -3.4394618988188288 [Eh]
	 Total Energy              =   -1814.1225276332663725 [Eh]

	 ================> DF-SCS-MP2 Energies <==================
	-----------------------------------------------------------
	 SCS Same-Spin Scale       =       0.3333333333333333 [-]
	 SCS Opposite-Spin Scale   =       1.2000000000000000 [-]
	 SCS Same-Spin Energy      =      -0.3043926558611911 [Eh]
	 SCS Opposite-Spin Energy  =      -3.0315407174823066 [Eh]
	 SCS Correlation Energy    =      -3.3359333733434977 [Eh]
	 SCS Total Energy          =   -1814.0189991077911600 [Eh]
	-----------------------------------------------------------

  Dipole Moment: [D]
     X:     8.3840      Y:     1.1758      Z:     2.0721     Total:     8.7160

*** Psi4 exiting successfully. Buy a developer a beer!
