                               Psi4 1.3.2 release

  ==> Input File <==

--------------------------------------------------------------------------
#psi4
#
memory 32 gb

molecule  {
-4 1
  P        2.5828670     0.0826120    -0.3559070
  P       -0.1833470    -1.1435920     0.2927960
  P       -2.7088530     0.4754690    -0.2006980
  O        1.9534540     1.6068400    -0.1842610
  O        1.2509400    -0.8782220    -0.5450080
  O        3.2679280     0.0927970    -1.6978490
  O        3.3289310    -0.2934220     0.9022790
  O       -0.9875838     0.1398010    -0.2747239
  O        0.1176119    -1.1266882     1.7787572
  O       -0.7150640    -2.4305380    -0.3003910
  O       -3.2327710    -0.2685190     1.0414150
  O       -2.7128520     2.0086770    -0.0959300
  O       -3.2113930    -0.0752120    -1.5473660
  C        1.4216660     1.9681570     1.1052990
  H        1.0169430     1.1016800     1.6278780
  H        2.2027140     2.4392170     1.7103290
  H        0.6160650     2.6819120     0.9264900
units angstrom
no_reorient  #important for SAPT in psi4, default
symmetry c1  #important for SAPT in psi4, default
}

set PROPERTIES_ORIGIN ["COM"]
properties('MP2/aug-cc-pvtz', properties = ['dipole'])
--------------------------------------------------------------------------

    Molecular point group: c1
  Charge       = -4
  Multiplicity = 1
  Basis Set: AUG-CC-PVTZ
    Blend: AUG-CC-PVTZ
  Basis Set: (AUG-CC-PVTZ AUX)
    Blend: AUG-CC-PVTZ-JKFIT

    Orbital Energies [Eh]
    ---------------------

    Doubly Occupied:

       1A    -79.571945     2A    -79.526286     3A    -79.481500
       4A    -20.086219     5A    -20.036306     6A    -20.002354
       7A    -20.002005     8A    -19.995523     9A    -19.952415
      10A    -19.940480    11A    -19.926338    12A    -19.920354
      13A    -19.918248    14A    -10.813587    15A     -7.085775
      16A     -7.039256    17A     -6.995003    18A     -4.984734
      19A     -4.983770    20A     -4.982964    21A     -4.938576
      22A     -4.937066    23A     -4.936227    24A     -4.894459
      25A     -4.892266    26A     -4.892108    27A     -0.902091
      28A     -0.845234    29A     -0.806448    30A     -0.777613
      31A     -0.757112    32A     -0.742079    33A     -0.715800
      34A     -0.696788    35A     -0.665269    36A     -0.659970
      37A     -0.468288    38A     -0.293120    39A     -0.235016
      40A     -0.183610    41A     -0.164798    42A     -0.149557
      43A     -0.126017    44A     -0.099516    45A     -0.082369
      46A     -0.065463    47A     -0.051975    48A     -0.044023
      49A     -0.031426    50A     -0.016864    51A     -0.006591
      52A     -0.000384    53A      0.009884    54A      0.014796
      55A      0.020957    56A      0.037704    57A      0.046679
      58A      0.053827    59A      0.067689    60A      0.071355
      61A      0.091631    62A      0.098847    63A      0.100925
      64A      0.102664    65A      0.115450    66A      0.127067
      67A      0.142373    68A      0.149941    69A      0.170751

  @DF-RHF Final Energy: -1810.68763915536238

   => Energetics <=

    Nuclear Repulsion Energy =           1462.1951616755345640
    One-Electron Energy =               -5499.9643099197501215
    Two-Electron Energy =                2227.0815090888531813
    Total Energy =                      -1810.6876391553623762
  Basis Set: (AUG-CC-PVTZ AUX)
    Blend: AUG-CC-PVTZ-RI
    Molecular point group: c1

    Geometry (in Angstrom), charge = -4, multiplicity = 1:

       Center              X                  Y                   Z               Mass
    ------------   -----------------  -----------------  -----------------  -----------------
         P            2.596691413512     0.111846124738    -0.335846634161    30.973761998420
         P           -0.169522586488    -1.114357875262     0.312856365839    30.973761998420
         P           -2.695028586488     0.504703124738    -0.180637634161    30.973761998420
         O            1.967278413512     1.636074124738    -0.164200634161    15.994914619570
         O            1.264764413512    -0.848987875262    -0.524947634161    15.994914619570
         O            3.281752413512     0.122031124738    -1.677788634161    15.994914619570
         O            3.342755413512    -0.264187875262     0.922339365839    15.994914619570
         O           -0.973759386488     0.169035124738    -0.254663534161    15.994914619570
         O            0.131436313512    -1.097454075262     1.798817565839    15.994914619570
         O           -0.701239586488    -2.401303875262    -0.280330634161    15.994914619570
         O           -3.218946586488    -0.239284875262     1.061475365839    15.994914619570
         O           -2.699027586488     2.037911124738    -0.075869634161    15.994914619570
         O           -3.197568586488    -0.045977875262    -1.527305634161    15.994914619570
         C            1.435490413512     1.997391124738     1.125359365839    12.000000000000
         H            1.030767413512     1.130914124738     1.647938365839     1.007825032230
         H            2.216538413512     2.468451124738     1.730389365839     1.007825032230
         H            0.629889413512     2.711146124738     0.946550365839     1.007825032230

  Basis Set: AUG-CC-PVTZ
    Blend: AUG-CC-PVTZ
  Basis Set: (AUG-CC-PVTZ AUX)
    Blend: AUG-CC-PVTZ-JKFIT
	 Reference Energy          =   -1810.6876391553623762 [Eh]
	 Singles Energy            =      -0.0000000000000000 [Eh]
	 Same-Spin Energy          =      -0.9130637353472685 [Eh]
	 Opposite-Spin Energy      =      -2.5259742120274380 [Eh]
	 Correlation Energy        =      -3.4390379473747066 [Eh]
	 Total Energy              =   -1814.1266771027371760 [Eh]

	 ================> DF-SCS-MP2 Energies <==================
	-----------------------------------------------------------
	 SCS Same-Spin Scale       =       0.3333333333333333 [-]
	 SCS Opposite-Spin Scale   =       1.2000000000000000 [-]
	 SCS Same-Spin Energy      =      -0.3043545784490895 [Eh]
	 SCS Opposite-Spin Energy  =      -3.0311690544329255 [Eh]
	 SCS Correlation Energy    =      -3.3355236328820150 [Eh]
	 SCS Total Energy          =   -1814.0231627882444627 [Eh]
	-----------------------------------------------------------

  Dipole Moment: [D]
     X:     9.1566      Y:     2.5166      Z:     1.6906     Total:     9.6454

*** Psi4 exiting successfully. Buy a developer a beer!
