                               Psi4 1.3.2 release

  ==> Input File <==

--------------------------------------------------------------------------
#psi4
#
memory 32 gb

molecule  {
-4 1
  P        2.5828670     0.0826120    -0.3559070
  P       -0.1833470    -1.1435920     0.2927960
  P       -2.7088530     0.4754690    -0.2006980
  O        1.9534540     1.6068400    -0.1842610
  O        1.2509400    -0.8782220    -0.5450080
  O        3.2679280     0.0927970    -1.6978490
  O        3.3289310    -0.2934220     0.9022790
  O       -0.9881700     0.1612780    -0.2225170
  O        0.1090174    -1.0296433     1.7761980
  O       -0.7154719    -2.4073958    -0.3478809
  O       -3.2327710    -0.2685190     1.0414150
  O       -2.7128520     2.0086770    -0.0959300
  O       -3.2113930    -0.0752120    -1.5473660
  C        1.4216660     1.9681570     1.1052990
  H        1.0169430     1.1016800     1.6278780
  H        2.2027140     2.4392170     1.7103290
  H        0.6160650     2.6819120     0.9264900
units angstrom
no_reorient  #important for SAPT in psi4, default
symmetry c1  #important for SAPT in psi4, default
}

set PROPERTIES_ORIGIN ["COM"]
properties('MP2/aug-cc-pvtz', properties = ['dipole'])
--------------------------------------------------------------------------

    Molecular point group: c1
  Charge       = -4
  Multiplicity = 1
  Basis Set: AUG-CC-PVTZ
    Blend: AUG-CC-PVTZ
  Basis Set: (AUG-CC-PVTZ AUX)
    Blend: AUG-CC-PVTZ-JKFIT

    Orbital Energies [Eh]
    ---------------------

    Doubly Occupied:

       1A    -79.570916     2A    -79.527526     3A    -79.478728
       4A    -20.083930     5A    -20.035577     6A    -20.001620
       7A    -20.001260     8A    -19.989199     9A    -19.953596
      10A    -19.948581    11A    -19.922803    12A    -19.918063
      13A    -19.917083    14A    -10.809505    15A     -7.084745
      16A     -7.040457    17A     -6.992208    18A     -4.983694
      19A     -4.982742    20A     -4.981945    21A     -4.939764
      22A     -4.938469    23A     -4.937313    24A     -4.891651
      25A     -4.889501    26A     -4.889354    27A     -0.900233
      28A     -0.844466    29A     -0.805320    30A     -0.776241
      31A     -0.756387    32A     -0.741837    33A     -0.711877
      34A     -0.704580    35A     -0.662487    36A     -0.658353
      37A     -0.464896    38A     -0.291984    39A     -0.232610
      40A     -0.182337    41A     -0.162358    42A     -0.147024
      43A     -0.125260    44A     -0.098723    45A     -0.081715
      46A     -0.064058    47A     -0.051418    48A     -0.042790
      49A     -0.031452    50A     -0.014826    51A     -0.005110
      52A      0.000729    53A      0.010382    54A      0.015514
      55A      0.022765    56A      0.038427    57A      0.047328
      58A      0.054684    59A      0.067252    60A      0.071211
      61A      0.091509    62A      0.100192    63A      0.103435
      64A      0.104776    65A      0.111997    66A      0.121966
      67A      0.145361    68A      0.151549    69A      0.172834

  @DF-RHF Final Energy: -1810.68766976896086

   => Energetics <=

    Nuclear Repulsion Energy =           1464.0366726668723913
    One-Electron Energy =               -5503.7753652259480077
    Two-Electron Energy =                2229.0510227901145299
    Total Energy =                      -1810.6876697689608591
  Basis Set: (AUG-CC-PVTZ AUX)
    Blend: AUG-CC-PVTZ-RI
    Molecular point group: c1

    Geometry (in Angstrom), charge = -4, multiplicity = 1:

       Center              X                  Y                   Z               Mass
    ------------   -----------------  -----------------  -----------------  -----------------
         P            2.597263911931     0.103387906307    -0.335975468098    30.973761998420
         P           -0.168950088069    -1.122816093693     0.312727531902    30.973761998420
         P           -2.694456088069     0.496244906307    -0.180766468098    30.973761998420
         O            1.967850911931     1.627615906307    -0.164329468098    15.994914619570
         O            1.265336911931    -0.857446093693    -0.525076468098    15.994914619570
         O            3.282324911931     0.113572906307    -1.677917468098    15.994914619570
         O            3.343327911931    -0.272646093693     0.922210531902    15.994914619570
         O           -0.973773088069     0.182053906307    -0.202585468098    15.994914619570
         O            0.123414311931    -1.008867393693     1.796129531902    15.994914619570
         O           -0.701074988069    -2.386619893693    -0.327949368098    15.994914619570
         O           -3.218374088069    -0.247743093693     1.061346531902    15.994914619570
         O           -2.698455088069     2.029452906307    -0.075998468098    15.994914619570
         O           -3.196996088069    -0.054436093693    -1.527434468098    15.994914619570
         C            1.436062911931     1.988932906307     1.125230531902    12.000000000000
         H            1.031339911931     1.122455906307     1.647809531902     1.007825032230
         H            2.217110911931     2.459992906307     1.730260531902     1.007825032230
         H            0.630461911931     2.702687906307     0.946421531902     1.007825032230

  Basis Set: AUG-CC-PVTZ
    Blend: AUG-CC-PVTZ
  Basis Set: (AUG-CC-PVTZ AUX)
    Blend: AUG-CC-PVTZ-JKFIT
	 Reference Energy          =   -1810.6876697689608591 [Eh]
	 Singles Energy            =      -0.0000000000000000 [Eh]
	 Same-Spin Energy          =      -0.9132445442895708 [Eh]
	 Opposite-Spin Energy      =      -2.5261471218466731 [Eh]
	 Correlation Energy        =      -3.4393916661362440 [Eh]
	 Total Energy              =   -1814.1270614350971755 [Eh]

	 ================> DF-SCS-MP2 Energies <==================
	-----------------------------------------------------------
	 SCS Same-Spin Scale       =       0.3333333333333333 [-]
	 SCS Opposite-Spin Scale   =       1.2000000000000000 [-]
	 SCS Same-Spin Energy      =      -0.3044148480965236 [Eh]
	 SCS Opposite-Spin Energy  =      -3.0313765462160078 [Eh]
	 SCS Correlation Energy    =      -3.3357913943125315 [Eh]
	 SCS Total Energy          =   -1814.0234611632733959 [Eh]
	-----------------------------------------------------------

  Dipole Moment: [D]
     X:     9.2189      Y:     2.1165      Z:     1.7325     Total:     9.6161

*** Psi4 exiting successfully. Buy a developer a beer!
