                               Psi4 1.3.2 release

  ==> Input File <==

--------------------------------------------------------------------------
#psi4
#
memory 32 gb

molecule  {
-4 1
  P        2.5828670     0.0826120    -0.3559070
  P       -0.1833470    -1.1435920     0.2927960
  P       -2.7088530     0.4754690    -0.2006980
  O        2.0073012     1.6273879    -0.1790300
  O        1.2858225    -0.9239772    -0.5494124
  O        3.2679280     0.0927970    -1.6978490
  O        3.3289310    -0.2934220     0.9022790
  O       -0.9881700     0.1612780    -0.2225170
  O        0.0932830    -1.0798150     1.7822090
  O       -0.7150640    -2.4305380    -0.3003910
  O       -3.2327710    -0.2685190     1.0414150
  O       -2.7128520     2.0086770    -0.0959300
  O       -3.2113930    -0.0752120    -1.5473660
  C        1.4216660     1.9681570     1.1052990
  H        1.0169430     1.1016800     1.6278780
  H        2.2027140     2.4392170     1.7103290
  H        0.6160650     2.6819120     0.9264900
units angstrom
no_reorient  #important for SAPT in psi4, default
symmetry c1  #important for SAPT in psi4, default
}

set PROPERTIES_ORIGIN ["COM"]
properties('MP2/aug-cc-pvtz', properties = ['dipole'])
--------------------------------------------------------------------------

    Molecular point group: c1
  Charge       = -4
  Multiplicity = 1
  Basis Set: AUG-CC-PVTZ
    Blend: AUG-CC-PVTZ
  Basis Set: (AUG-CC-PVTZ AUX)
    Blend: AUG-CC-PVTZ-JKFIT

    Orbital Energies [Eh]
    ---------------------

    Doubly Occupied:

       1A    -79.569704     2A    -79.530599     3A    -79.482306
       4A    -20.088425     5A    -20.040874     6A    -19.998402
       7A    -19.998288     8A    -19.997649     9A    -19.952755
      10A    -19.946509    11A    -19.925968    12A    -19.921091
      13A    -19.919385    14A    -10.813678    15A     -7.083727
      16A     -7.043304    17A     -6.995818    18A     -4.982591
      19A     -4.981796    20A     -4.980843    21A     -4.942506
      22A     -4.941199    23A     -4.940220    24A     -4.895307
      25A     -4.893067    26A     -4.892916    27A     -0.899719
      28A     -0.844133    29A     -0.807049    30A     -0.776546
      31A     -0.754055    32A     -0.743385    33A     -0.716107
      34A     -0.701328    35A     -0.665453    36A     -0.660995
      37A     -0.467899    38A     -0.288387    39A     -0.235957
      40A     -0.184547    41A     -0.163651    42A     -0.149291
      43A     -0.122967    44A     -0.099034    45A     -0.080951
      46A     -0.065527    47A     -0.052159    48A     -0.047889
      49A     -0.033932    50A     -0.017387    51A     -0.004920
      52A     -0.000885    53A      0.008161    54A      0.016257
      55A      0.020085    56A      0.037400    57A      0.045012
      58A      0.057351    59A      0.068259    60A      0.072521
      61A      0.089724    62A      0.098579    63A      0.100159
      64A      0.101592    65A      0.111925    66A      0.123312
      67A      0.142358    68A      0.148319    69A      0.170136

  @DF-RHF Final Energy: -1810.68676745879498

   => Energetics <=

    Nuclear Repulsion Energy =           1460.3446394518603029
    One-Electron Energy =               -5496.1989549335066840
    Two-Electron Energy =                2225.1675480228509514
    Total Energy =                      -1810.6867674587952024
  Basis Set: (AUG-CC-PVTZ AUX)
    Blend: AUG-CC-PVTZ-RI
    Molecular point group: c1

    Geometry (in Angstrom), charge = -4, multiplicity = 1:

       Center              X                  Y                   Z               Mass
    ------------   -----------------  -----------------  -----------------  -----------------
         P            2.592881289240     0.109270228150    -0.339219154126    30.973761998420
         P           -0.173332710760    -1.116933771850     0.309483845874    30.973761998420
         P           -2.698838710760     0.502127228150    -0.184010154126    30.973761998420
         O            2.017315489240     1.654046128150    -0.162342154126    15.994914619570
         O            1.295836789240    -0.897318971850    -0.532724554126    15.994914619570
         O            3.277942289240     0.119455228150    -1.681161154126    15.994914619570
         O            3.338945289240    -0.266763771850     0.918966845874    15.994914619570
         O           -0.978155710760     0.187936228150    -0.205829154126    15.994914619570
         O            0.103297289240    -1.053156771850     1.798896845874    15.994914619570
         O           -0.705049710760    -2.403879771850    -0.283703154126    15.994914619570
         O           -3.222756710760    -0.241860771850     1.058102845874    15.994914619570
         O           -2.702837710760     2.035335228150    -0.079242154126    15.994914619570
         O           -3.201378710760    -0.048553771850    -1.530678154126    15.994914619570
         C            1.431680289240     1.994815228150     1.121986845874    12.000000000000
         H            1.026957289240     1.128338228150     1.644565845874     1.007825032230
         H            2.212728289240     2.465875228150     1.727016845874     1.007825032230
         H            0.626079289240     2.708570228150     0.943177845874     1.007825032230

  Basis Set: AUG-CC-PVTZ
    Blend: AUG-CC-PVTZ
  Basis Set: (AUG-CC-PVTZ AUX)
    Blend: AUG-CC-PVTZ-JKFIT
	 Reference Energy          =   -1810.6867674587949750 [Eh]
	 Singles Energy            =      -0.0000000000000000 [Eh]
	 Same-Spin Energy          =      -0.9132603107534598 [Eh]
	 Opposite-Spin Energy      =      -2.5267052087887798 [Eh]
	 Correlation Energy        =      -3.4399655195422394 [Eh]
	 Total Energy              =   -1814.1267329783372588 [Eh]

	 ================> DF-SCS-MP2 Energies <==================
	-----------------------------------------------------------
	 SCS Same-Spin Scale       =       0.3333333333333333 [-]
	 SCS Opposite-Spin Scale   =       1.2000000000000000 [-]
	 SCS Same-Spin Energy      =      -0.3044201035844866 [Eh]
	 SCS Opposite-Spin Energy  =      -3.0320462505465358 [Eh]
	 SCS Correlation Energy    =      -3.3364663541310224 [Eh]
	 SCS Total Energy          =   -1814.0232338129260370 [Eh]
	-----------------------------------------------------------

  Dipole Moment: [D]
     X:     8.9110      Y:     2.3530      Z:     1.6913     Total:     9.3703

*** Psi4 exiting successfully. Buy a developer a beer!
