                               Psi4 1.3.2 release

  ==> Input File <==

--------------------------------------------------------------------------
#psi4
#
memory 32 gb

molecule  {
-4 1
  P        2.5828670     0.0826120    -0.3559070
  P       -0.1833470    -1.1435920     0.2927960
  P       -2.7088530     0.4754690    -0.2006980
  O        1.9534540     1.6068400    -0.1842610
  O        1.0804064    -0.9097739    -0.4453949
  O        3.2679280     0.0927970    -1.6978490
  O        3.3289310    -0.2934220     0.9022790
  O       -0.9881700     0.1612780    -0.2225170
  O        0.0932830    -1.0798150     1.7822090
  O       -0.7150640    -2.4305380    -0.3003910
  O       -3.2327710    -0.2685190     1.0414150
  O       -2.7128520     2.0086770    -0.0959300
  O       -3.2113930    -0.0752120    -1.5473660
  C        1.4216660     1.9681570     1.1052990
  H        1.0169430     1.1016800     1.6278780
  H        2.2027140     2.4392170     1.7103290
  H        0.6160650     2.6819120     0.9264900
units angstrom
no_reorient  #important for SAPT in psi4, default
symmetry c1  #important for SAPT in psi4, default
}

set PROPERTIES_ORIGIN ["COM"]
properties('MP2/aug-cc-pvtz', properties = ['dipole'])
--------------------------------------------------------------------------

    Molecular point group: c1
  Charge       = -4
  Multiplicity = 1
  Basis Set: AUG-CC-PVTZ
    Blend: AUG-CC-PVTZ
  Basis Set: (AUG-CC-PVTZ AUX)
    Blend: AUG-CC-PVTZ-JKFIT

    Orbital Energies [Eh]
    ---------------------

    Doubly Occupied:

       1A    -79.605944     2A    -79.488711     3A    -79.469507
       4A    -20.100226     5A    -20.032431     6A    -20.031166
       7A    -20.023670     8A    -19.973519     9A    -19.926241
      10A    -19.919994    11A    -19.916261    12A    -19.910890
      13A    -19.907994    14A    -10.817045    15A     -7.117697
      16A     -7.006800    17A     -6.982992    18A     -5.016582
      19A     -5.015544    20A     -5.014700    21A     -4.906970
      22A     -4.904310    23A     -4.903376    24A     -4.882347
      25A     -4.880377    26A     -4.880211    27A     -0.913828
      28A     -0.869311    29A     -0.820768    30A     -0.779558
      31A     -0.774575    32A     -0.723252    33A     -0.698335
      34A     -0.678856    35A     -0.655367    36A     -0.650088
      37A     -0.474309    38A     -0.306128    39A     -0.236149
      40A     -0.187207    41A     -0.168655    42A     -0.157926
      43A     -0.139420    44A     -0.096754    45A     -0.084580
      46A     -0.068999    47A     -0.063780    48A     -0.044593
      49A     -0.029652    50A     -0.014653    51A     -0.009240
      52A     -0.000557    53A      0.001898    54A      0.015649
      55A      0.022210    56A      0.033508    57A      0.036905
      58A      0.048059    59A      0.062895    60A      0.084422
      61A      0.106808    62A      0.109983    63A      0.114087
      64A      0.117136    65A      0.135271    66A      0.145369
      67A      0.154350    68A      0.161253    69A      0.180449

  @DF-RHF Final Energy: -1810.65143788703745

   => Energetics <=

    Nuclear Repulsion Energy =           1467.0528703673724067
    One-Electron Energy =               -5509.9050302950299738
    Two-Electron Energy =                2232.2007220406198940
    Total Energy =                      -1810.6514378870374458
  Basis Set: (AUG-CC-PVTZ AUX)
    Blend: AUG-CC-PVTZ-RI
    Molecular point group: c1

    Geometry (in Angstrom), charge = -4, multiplicity = 1:

       Center              X                  Y                   Z               Mass
    ------------   -----------------  -----------------  -----------------  -----------------
         P            2.608360903500     0.109649039808    -0.345117316010    30.973761998420
         P           -0.157853096500    -1.116554960192     0.303585683990    30.973761998420
         P           -2.683359096500     0.502506039808    -0.189908316010    30.973761998420
         O            1.978947903500     1.633877039808    -0.173471316010    15.994914619570
         O            1.105900303500    -0.882736860192    -0.434605216010    15.994914619570
         O            3.293421903500     0.119834039808    -1.687059316010    15.994914619570
         O            3.354424903500    -0.266384960192     0.913068683990    15.994914619570
         O           -0.962676096500     0.188315039808    -0.211727316010    15.994914619570
         O            0.118776903500    -1.052777960192     1.792998683990    15.994914619570
         O           -0.689570096500    -2.403500960192    -0.289601316010    15.994914619570
         O           -3.207277096500    -0.241481960192     1.052204683990    15.994914619570
         O           -2.687358096500     2.035714039808    -0.085140316010    15.994914619570
         O           -3.185899096500    -0.048174960192    -1.536576316010    15.994914619570
         C            1.447159903500     1.995194039808     1.116088683990    12.000000000000
         H            1.042436903500     1.128717039808     1.638667683990     1.007825032230
         H            2.228207903500     2.466254039808     1.721118683990     1.007825032230
         H            0.641558903500     2.708949039808     0.937279683990     1.007825032230

  Basis Set: AUG-CC-PVTZ
    Blend: AUG-CC-PVTZ
  Basis Set: (AUG-CC-PVTZ AUX)
    Blend: AUG-CC-PVTZ-JKFIT
	 Reference Energy          =   -1810.6514378870374458 [Eh]
	 Singles Energy            =      -0.0000000000000000 [Eh]
	 Same-Spin Energy          =      -0.9129758304951396 [Eh]
	 Opposite-Spin Energy      =      -2.5250497932988814 [Eh]
	 Correlation Energy        =      -3.4380256237940210 [Eh]
	 Total Energy              =   -1814.0894635108313651 [Eh]

	 ================> DF-SCS-MP2 Energies <==================
	-----------------------------------------------------------
	 SCS Same-Spin Scale       =       0.3333333333333333 [-]
	 SCS Opposite-Spin Scale   =       1.2000000000000000 [-]
	 SCS Same-Spin Energy      =      -0.3043252768317132 [Eh]
	 SCS Opposite-Spin Energy  =      -3.0300597519586576 [Eh]
	 SCS Correlation Energy    =      -3.3343850287903707 [Eh]
	 SCS Total Energy          =   -1813.9858229158278391 [Eh]
	-----------------------------------------------------------

  Dipole Moment: [D]
     X:    11.4870      Y:     3.0619      Z:     1.0612     Total:    11.9353

*** Psi4 exiting successfully. Buy a developer a beer!
