                               Psi4 1.3.2 release

  ==> Input File <==

--------------------------------------------------------------------------
#psi4
#
memory 32 gb

molecule  {
-4 1
  P        2.5828670     0.0826120    -0.3559070
  P       -0.1833470    -1.1435920     0.2927960
  P       -2.7088530     0.4754690    -0.2006980
  O        1.9534540     1.6068400    -0.1842610
  O        1.2509400    -0.8782220    -0.5450080
  O        3.2679280     0.0927970    -1.6978490
  O        3.3289310    -0.2934220     0.9022790
  O       -0.9881700     0.1612780    -0.2225170
  O        0.0932830    -1.0798150     1.7822090
  O       -0.7150640    -2.4305380    -0.3003910
  O       -3.2327710    -0.2685190     1.0414150
  O       -2.7125918     1.9089100    -0.1027473
  O       -3.2113930    -0.0752120    -1.5473660
  C        1.4216660     1.9681570     1.1052990
  H        1.0169430     1.1016800     1.6278780
  H        2.2027140     2.4392170     1.7103290
  H        0.6160650     2.6819120     0.9264900
units angstrom
no_reorient  #important for SAPT in psi4, default
symmetry c1  #important for SAPT in psi4, default
}

set PROPERTIES_ORIGIN ["COM"]
properties('MP2/aug-cc-pvtz', properties = ['dipole'])
--------------------------------------------------------------------------

    Molecular point group: c1
  Charge       = -4
  Multiplicity = 1
  Basis Set: AUG-CC-PVTZ
    Blend: AUG-CC-PVTZ
  Basis Set: (AUG-CC-PVTZ AUX)
    Blend: AUG-CC-PVTZ-JKFIT

    Orbital Energies [Eh]
    ---------------------

    Doubly Occupied:

       1A    -79.571528     2A    -79.522930     3A    -79.458331
       4A    -20.085397     5A    -20.035987     6A    -20.001954
       7A    -20.001705     8A    -19.985993     9A    -19.947245
      10A    -19.941838    11A    -19.916980    12A    -19.909547
      13A    -19.907726    14A    -10.812142    15A     -7.085347
      16A     -7.035912    17A     -6.976279    18A     -4.984304
      19A     -4.983341    20A     -4.982539    21A     -4.935211
      22A     -4.933754    23A     -4.932891    24A     -4.875371
      25A     -4.874216    26A     -4.872816    27A     -0.901259
      28A     -0.843504    29A     -0.806377    30A     -0.781991
      31A     -0.756786    32A     -0.747920    33A     -0.717154
      34A     -0.696426    35A     -0.672168    36A     -0.650659
      37A     -0.467051    38A     -0.291577    39A     -0.232280
      40A     -0.181002    41A     -0.162915    42A     -0.148676
      43A     -0.124285    44A     -0.095988    45A     -0.081297
      46A     -0.064298    47A     -0.049920    48A     -0.043150
      49A     -0.030182    50A     -0.015471    51A     -0.006562
      52A     -0.001275    53A      0.009389    54A      0.014926
      55A      0.021149    56A      0.037976    57A      0.048678
      58A      0.054411    59A      0.068598    60A      0.072607
      61A      0.090094    62A      0.097052    63A      0.100443
      64A      0.107603    65A      0.116975    66A      0.128049
      67A      0.144983    68A      0.157077    69A      0.177739

  @DF-RHF Final Energy: -1810.68365729186257

   => Energetics <=

    Nuclear Repulsion Energy =           1467.8081893311109525
    One-Electron Energy =               -5511.5962797550000687
    Two-Electron Energy =                2233.1044331320263154
    Total Energy =                      -1810.6836572918628008
  Basis Set: (AUG-CC-PVTZ AUX)
    Blend: AUG-CC-PVTZ-RI
    Molecular point group: c1

    Geometry (in Angstrom), charge = -4, multiplicity = 1:

       Center              X                  Y                   Z               Mass
    ------------   -----------------  -----------------  -----------------  -----------------
         P            2.598163462744     0.113721901006    -0.338762766262    30.973761998420
         P           -0.168050537256    -1.112482098994     0.309940233738    30.973761998420
         P           -2.693556537256     0.506578901006    -0.183553766262    30.973761998420
         O            1.968750462744     1.637949901006    -0.167116766262    15.994914619570
         O            1.266236462744    -0.847112098994    -0.527863766262    15.994914619570
         O            3.283224462744     0.123906901006    -1.680704766262    15.994914619570
         O            3.344227462744    -0.262312098994     0.919423233738    15.994914619570
         O           -0.972873537256     0.192387901006    -0.205372766262    15.994914619570
         O            0.108579462744    -1.048705098994     1.799353233738    15.994914619570
         O           -0.699767537256    -2.399428098994    -0.283246766262    15.994914619570
         O           -3.217474537256    -0.237409098994     1.058559233738    15.994914619570
         O           -2.697295337256     1.940019901006    -0.085603066262    15.994914619570
         O           -3.196096537256    -0.044102098994    -1.530221766262    15.994914619570
         C            1.436962462744     1.999266901006     1.122443233738    12.000000000000
         H            1.032239462744     1.132789901006     1.645022233738     1.007825032230
         H            2.218010462744     2.470326901006     1.727473233738     1.007825032230
         H            0.631361462744     2.713021901006     0.943634233738     1.007825032230

  Basis Set: AUG-CC-PVTZ
    Blend: AUG-CC-PVTZ
  Basis Set: (AUG-CC-PVTZ AUX)
    Blend: AUG-CC-PVTZ-JKFIT
	 Reference Energy          =   -1810.6836572918625734 [Eh]
	 Singles Energy            =      -0.0000000000000000 [Eh]
	 Same-Spin Energy          =      -0.9113221595291301 [Eh]
	 Opposite-Spin Energy      =      -2.5213173422996604 [Eh]
	 Correlation Energy        =      -3.4326395018287905 [Eh]
	 Total Energy              =   -1814.1162967936913901 [Eh]

	 ================> DF-SCS-MP2 Energies <==================
	-----------------------------------------------------------
	 SCS Same-Spin Scale       =       0.3333333333333333 [-]
	 SCS Opposite-Spin Scale   =       1.2000000000000000 [-]
	 SCS Same-Spin Energy      =      -0.3037740531763767 [Eh]
	 SCS Opposite-Spin Energy  =      -3.0255808107595925 [Eh]
	 SCS Correlation Energy    =      -3.3293548639359694 [Eh]
	 SCS Total Energy          =   -1814.0130121557986058 [Eh]
	-----------------------------------------------------------

  Dipole Moment: [D]
     X:     9.1728      Y:     3.1308      Z:     1.6493     Total:     9.8317

*** Psi4 exiting successfully. Buy a developer a beer!
