                               Psi4 1.3.2 release

  ==> Input File <==

--------------------------------------------------------------------------
#psi4
#
memory 32 gb

molecule  {
-4 1
  P        2.5828670     0.0826120    -0.3559070
  P       -0.1833470    -1.1435920     0.2927960
  P       -2.7088530     0.4754690    -0.2006980
  O        1.9534540     1.6068400    -0.1842610
  O        1.2580511    -0.8767773    -0.5322478
  O        3.2679280     0.0927970    -1.6978490
  O        3.3289310    -0.2934220     0.9022790
  O       -0.9881700     0.1612780    -0.2225170
  O        0.1060465    -1.0774160     1.7796769
  O       -0.7150640    -2.4305380    -0.3003910
  O       -3.2327710    -0.2685190     1.0414150
  O       -2.7128520     2.0086770    -0.0959300
  O       -3.2113930    -0.0752120    -1.5473660
  C        1.4216660     1.9681570     1.1052990
  H        1.0169430     1.1016800     1.6278780
  H        2.2027140     2.4392170     1.7103290
  H        0.6160650     2.6819120     0.9264900
units angstrom
no_reorient  #important for SAPT in psi4, default
symmetry c1  #important for SAPT in psi4, default
}

set PROPERTIES_ORIGIN ["COM"]
properties('MP2/aug-cc-pvtz', properties = ['dipole'])
--------------------------------------------------------------------------

    Molecular point group: c1
  Charge       = -4
  Multiplicity = 1
  Basis Set: AUG-CC-PVTZ
    Blend: AUG-CC-PVTZ
  Basis Set: (AUG-CC-PVTZ AUX)
    Blend: AUG-CC-PVTZ-JKFIT

    Orbital Energies [Eh]
    ---------------------

    Doubly Occupied:

       1A    -79.571244     2A    -79.527644     3A    -79.480350
       4A    -20.084807     5A    -20.037443     6A    -20.002010
       7A    -20.001136     8A    -19.993847     9A    -19.949697
      10A    -19.946487    11A    -19.924276    12A    -19.919627
      13A    -19.917905    14A    -10.811055    15A     -7.085151
      16A     -7.040524    17A     -6.993858    18A     -4.984118
      19A     -4.983171    20A     -4.982336    21A     -4.939824
      22A     -4.938417    23A     -4.937466    24A     -4.893322
      25A     -4.891128    26A     -4.890981    27A     -0.901662
      28A     -0.846186    29A     -0.806601    30A     -0.778116
      31A     -0.756567    32A     -0.742394    33A     -0.714027
      34A     -0.700291    35A     -0.663852    36A     -0.659541
      37A     -0.466180    38A     -0.294922    39A     -0.234358
      40A     -0.184385    41A     -0.163705    42A     -0.148305
      43A     -0.125291    44A     -0.099029    45A     -0.083198
      46A     -0.065294    47A     -0.051656    48A     -0.044136
      49A     -0.031731    50A     -0.016678    51A     -0.006311
      52A      0.000222    53A      0.009736    54A      0.015050
      55A      0.021355    56A      0.037735    57A      0.046936
      58A      0.054748    59A      0.067519    60A      0.071258
      61A      0.090539    62A      0.100129    63A      0.101962
      64A      0.103476    65A      0.113437    66A      0.124701
      67A      0.144032    68A      0.150003    69A      0.171622

  @DF-RHF Final Energy: -1810.68992082365799

   => Energetics <=

    Nuclear Repulsion Energy =           1463.2706571748990427
    One-Electron Energy =               -5502.1455934130544847
    Two-Electron Energy =                2228.1850154144976841
    Total Energy =                      -1810.6899208236577579
  Basis Set: (AUG-CC-PVTZ AUX)
    Blend: AUG-CC-PVTZ-RI
    Molecular point group: c1

    Geometry (in Angstrom), charge = -4, multiplicity = 1:

       Center              X                  Y                   Z               Mass
    ------------   -----------------  -----------------  -----------------  -----------------
         P            2.596992362376     0.107535704698    -0.339780481523    30.973761998420
         P           -0.169221637624    -1.118668295302     0.308922518477    30.973761998420
         P           -2.694727637624     0.500392704698    -0.184571481523    30.973761998420
         O            1.967579362376     1.631763704698    -0.168134481523    15.994914619570
         O            1.272176462376    -0.851853595302    -0.516121281523    15.994914619570
         O            3.282053362376     0.117720704698    -1.681722481523    15.994914619570
         O            3.343056362376    -0.268498295302     0.918405518477    15.994914619570
         O           -0.974044637624     0.186201704698    -0.206390481523    15.994914619570
         O            0.120171862376    -1.052492295302     1.795803418477    15.994914619570
         O           -0.700938637624    -2.405614295302    -0.284264481523    15.994914619570
         O           -3.218645637624    -0.243595295302     1.057541518477    15.994914619570
         O           -2.698726637624     2.033600704698    -0.079803481523    15.994914619570
         O           -3.197267637624    -0.050288295302    -1.531239481523    15.994914619570
         C            1.435791362376     1.993080704698     1.121425518477    12.000000000000
         H            1.031068362376     1.126603704698     1.644004518477     1.007825032230
         H            2.216839362376     2.464140704698     1.726455518477     1.007825032230
         H            0.630190362376     2.706835704698     0.942616518477     1.007825032230

  Basis Set: AUG-CC-PVTZ
    Blend: AUG-CC-PVTZ
  Basis Set: (AUG-CC-PVTZ AUX)
    Blend: AUG-CC-PVTZ-JKFIT
	 Reference Energy          =   -1810.6899208236579852 [Eh]
	 Singles Energy            =      -0.0000000000000000 [Eh]
	 Same-Spin Energy          =      -0.9128996567769144 [Eh]
	 Opposite-Spin Energy      =      -2.5254424196959113 [Eh]
	 Correlation Energy        =      -3.4383420764728259 [Eh]
	 Total Energy              =   -1814.1282629001307214 [Eh]

	 ================> DF-SCS-MP2 Energies <==================
	-----------------------------------------------------------
	 SCS Same-Spin Scale       =       0.3333333333333333 [-]
	 SCS Opposite-Spin Scale   =       1.2000000000000000 [-]
	 SCS Same-Spin Energy      =      -0.3042998855923048 [Eh]
	 SCS Opposite-Spin Energy  =      -3.0305309036350936 [Eh]
	 SCS Correlation Energy    =      -3.3348307892273983 [Eh]
	 SCS Total Energy          =   -1814.0247516128854386 [Eh]
	-----------------------------------------------------------

  Dipole Moment: [D]
     X:     9.1617      Y:     2.3039      Z:     1.5905     Total:     9.5799

*** Psi4 exiting successfully. Buy a developer a beer!
