                               Psi4 1.3.2 release

  ==> Input File <==

--------------------------------------------------------------------------
#psi4
#
memory 32 gb

molecule  {
-4 1
  P        2.5828670     0.0826120    -0.3559070
  P       -0.1833470    -1.1435920     0.2927960
  P       -2.7088530     0.4754690    -0.2006980
  O        1.9534540     1.6068400    -0.1842610
  O        1.2355621    -0.9522541    -0.5901552
  O        3.2679280     0.0927970    -1.6978490
  O        3.3289310    -0.2934220     0.9022790
  O       -0.9881700     0.1612780    -0.2225170
  O        0.0932830    -1.0798150     1.7822090
  O       -0.6516200    -2.4324466    -0.3478273
  O       -3.2327710    -0.2685190     1.0414150
  O       -2.7128520     2.0086770    -0.0959300
  O       -3.2113930    -0.0752120    -1.5473660
  C        1.4216660     1.9681570     1.1052990
  H        1.0169430     1.1016800     1.6278780
  H        2.2027140     2.4392170     1.7103290
  H        0.6160650     2.6819120     0.9264900
units angstrom
no_reorient  #important for SAPT in psi4, default
symmetry c1  #important for SAPT in psi4, default
}

set PROPERTIES_ORIGIN ["COM"]
properties('MP2/aug-cc-pvtz', properties = ['dipole'])
--------------------------------------------------------------------------

    Molecular point group: c1
  Charge       = -4
  Multiplicity = 1
  Basis Set: AUG-CC-PVTZ
    Blend: AUG-CC-PVTZ
  Basis Set: (AUG-CC-PVTZ AUX)
    Blend: AUG-CC-PVTZ-JKFIT

    Orbital Energies [Eh]
    ---------------------

    Doubly Occupied:

       1A    -79.576158     2A    -79.522828     3A    -79.480715
       4A    -20.090980     5A    -20.034836     6A    -20.006604
       7A    -20.003178     8A    -19.994153     9A    -19.953468
      10A    -19.937925    11A    -19.924662    12A    -19.919628
      13A    -19.918625    14A    -10.814477    15A     -7.089544
      16A     -7.036111    17A     -6.994222    18A     -4.988365
      19A     -4.987455    20A     -4.986687    21A     -4.935339
      22A     -4.934040    23A     -4.933043    24A     -4.893687
      25A     -4.891495    26A     -4.891341    27A     -0.901808
      28A     -0.839431    29A     -0.806870    30A     -0.775853
      31A     -0.759283    32A     -0.737785    33A     -0.713966
      34A     -0.697175    35A     -0.664245    36A     -0.659887
      37A     -0.469732    38A     -0.280984    39A     -0.235886
      40A     -0.183508    41A     -0.164932    42A     -0.150977
      43A     -0.125798    44A     -0.098060    45A     -0.078119
      46A     -0.063009    47A     -0.052349    48A     -0.043818
      49A     -0.033531    50A     -0.013674    51A     -0.005641
      52A     -0.000280    53A      0.008520    54A      0.016514
      55A      0.022950    56A      0.035776    57A      0.047159
      58A      0.051470    59A      0.066534    60A      0.072573
      61A      0.094158    62A      0.099993    63A      0.102013
      64A      0.103226    65A      0.117295    66A      0.126464
      67A      0.143696    68A      0.149889    69A      0.171260

  @DF-RHF Final Energy: -1810.67891177348906

   => Energetics <=

    Nuclear Repulsion Energy =           1460.4593129031122771
    One-Electron Energy =               -5496.5430960415542359
    Two-Electron Energy =                2225.4048713649531237
    Total Energy =                      -1810.6789117734888350
  Basis Set: (AUG-CC-PVTZ AUX)
    Blend: AUG-CC-PVTZ-RI
    Molecular point group: c1

    Geometry (in Angstrom), charge = -4, multiplicity = 1:

       Center              X                  Y                   Z               Mass
    ------------   -----------------  -----------------  -----------------  -----------------
         P            2.595309156364     0.112299324293    -0.333641996402    30.973761998420
         P           -0.170904843636    -1.113904675707     0.315061003598    30.973761998420
         P           -2.696410843636     0.505156324293    -0.178432996402    30.973761998420
         O            1.965896156364     1.636527324293    -0.161995996402    15.994914619570
         O            1.248004256364    -0.922566775707    -0.567890196402    15.994914619570
         O            3.280370156364     0.122484324293    -1.675583996402    15.994914619570
         O            3.341373156364    -0.263734675707     0.924544003598    15.994914619570
         O           -0.975727843636     0.190965324293    -0.200251996402    15.994914619570
         O            0.105725156364    -1.050127675707     1.804474003598    15.994914619570
         O           -0.639177843636    -2.402759275707    -0.325562296402    15.994914619570
         O           -3.220328843636    -0.238831675707     1.063680003598    15.994914619570
         O           -2.700409843636     2.038364324293    -0.073664996402    15.994914619570
         O           -3.198950843636    -0.045524675707    -1.525100996402    15.994914619570
         C            1.434108156364     1.997844324293     1.127564003598    12.000000000000
         H            1.029385156364     1.131367324293     1.650143003598     1.007825032230
         H            2.215156156364     2.468904324293     1.732594003598     1.007825032230
         H            0.628507156364     2.711599324293     0.948755003598     1.007825032230

  Basis Set: AUG-CC-PVTZ
    Blend: AUG-CC-PVTZ
  Basis Set: (AUG-CC-PVTZ AUX)
    Blend: AUG-CC-PVTZ-JKFIT
	 Reference Energy          =   -1810.6789117734890624 [Eh]
	 Singles Energy            =      -0.0000000000000000 [Eh]
	 Same-Spin Energy          =      -0.9140119795724275 [Eh]
	 Opposite-Spin Energy      =      -2.5284435066620707 [Eh]
	 Correlation Energy        =      -3.4424554862344983 [Eh]
	 Total Energy              =   -1814.1213672597234563 [Eh]

	 ================> DF-SCS-MP2 Energies <==================
	-----------------------------------------------------------
	 SCS Same-Spin Scale       =       0.3333333333333333 [-]
	 SCS Opposite-Spin Scale   =       1.2000000000000000 [-]
	 SCS Same-Spin Energy      =      -0.3046706598574758 [Eh]
	 SCS Opposite-Spin Energy  =      -3.0341322079944848 [Eh]
	 SCS Correlation Energy    =      -3.3388028678519608 [Eh]
	 SCS Total Energy          =   -1814.0177146413409446 [Eh]
	-----------------------------------------------------------

  Dipole Moment: [D]
     X:     9.3262      Y:     2.6038      Z:     1.8019     Total:     9.8491

*** Psi4 exiting successfully. Buy a developer a beer!
