                               Psi4 1.3.2 release

  ==> Input File <==

--------------------------------------------------------------------------
#psi4
#
memory 32 gb

molecule  {
-4 1
  P        2.5828670     0.0826120    -0.3559070
  P       -0.1833470    -1.1435920     0.2927960
  P       -2.7088530     0.4754690    -0.2006980
  O        1.9268139     1.5958680    -0.1869553
  O        1.2341047    -0.8549019    -0.5427191
  O        3.2679280     0.0927970    -1.6978490
  O        3.3289310    -0.2934220     0.9022790
  O       -0.9881700     0.1612780    -0.2225170
  O        0.0932830    -1.0798150     1.7822090
  O       -0.7150640    -2.4305380    -0.3003910
  O       -3.2327710    -0.2685190     1.0414150
  O       -2.7128520     2.0086770    -0.0959300
  O       -3.2113930    -0.0752120    -1.5473660
  C        1.4216660     1.9681570     1.1052990
  H        1.0169430     1.1016800     1.6278780
  H        2.2027140     2.4392170     1.7103290
  H        0.6160650     2.6819120     0.9264900
units angstrom
no_reorient  #important for SAPT in psi4, default
symmetry c1  #important for SAPT in psi4, default
}

set PROPERTIES_ORIGIN ["COM"]
properties('MP2/aug-cc-pvtz', properties = ['dipole'])
--------------------------------------------------------------------------

    Molecular point group: c1
  Charge       = -4
  Multiplicity = 1
  Basis Set: AUG-CC-PVTZ
    Blend: AUG-CC-PVTZ
  Basis Set: (AUG-CC-PVTZ AUX)
    Blend: AUG-CC-PVTZ-JKFIT

    Orbital Energies [Eh]
    ---------------------

    Doubly Occupied:

       1A    -79.573874     2A    -79.525140     3A    -79.478624
       4A    -20.084173     5A    -20.036816     6A    -20.004984
       7A    -20.004574     8A    -19.990624     9A    -19.948859
      10A    -19.944712    11A    -19.922892    12A    -19.918258
      13A    -19.916377    14A    -10.810781    15A     -7.087611
      16A     -7.038191    17A     -6.992127    18A     -4.986607
      19A     -4.985578    20A     -4.984830    21A     -4.937508
      22A     -4.936073    23A     -4.935168    24A     -4.891574
      25A     -4.889415    26A     -4.889266    27A     -0.902840
      28A     -0.846175    29A     -0.806704    30A     -0.778335
      31A     -0.759320    32A     -0.741341    33A     -0.712247
      34A     -0.698816    35A     -0.662445    36A     -0.658086
      37A     -0.466273    38A     -0.296334    39A     -0.233851
      40A     -0.183598    41A     -0.164132    42A     -0.148037
      43A     -0.127582    44A     -0.098777    45A     -0.083552
      46A     -0.064792    47A     -0.051897    48A     -0.042176
      49A     -0.030899    50A     -0.015527    51A     -0.007875
      52A      0.000894    53A      0.010427    54A      0.014258
      55A      0.022419    56A      0.037804    57A      0.048638
      58A      0.051691    59A      0.065791    60A      0.070766
      61A      0.091809    62A      0.101466    63A      0.103410
      64A      0.105135    65A      0.114923    66A      0.126229
      67A      0.145596    68A      0.151583    69A      0.173023

  @DF-RHF Final Energy: -1810.68882434095644

   => Energetics <=

    Nuclear Repulsion Energy =           1464.1954838084391213
    One-Electron Energy =               -5504.0478479397052070
    Two-Electron Energy =                2229.1635397903096418
    Total Energy =                      -1810.6888243409562165
  Basis Set: (AUG-CC-PVTZ AUX)
    Blend: AUG-CC-PVTZ-RI
    Molecular point group: c1

    Geometry (in Angstrom), charge = -4, multiplicity = 1:

       Center              X                  Y                   Z               Mass
    ------------   -----------------  -----------------  -----------------  -----------------
         P            2.600774747170     0.107027939691    -0.339145596145    30.973761998420
         P           -0.165439252830    -1.119176060309     0.309557403855    30.973761998420
         P           -2.690945252830     0.499884939691    -0.183936596145    30.973761998420
         O            1.944721647170     1.620283939691    -0.170193896145    15.994914619570
         O            1.252012447170    -0.830485960309    -0.525957696145    15.994914619570
         O            3.285835747170     0.117212939691    -1.681087596145    15.994914619570
         O            3.346838747170    -0.269006060309     0.919040403855    15.994914619570
         O           -0.970262252830     0.185693939691    -0.205755596145    15.994914619570
         O            0.111190747170    -1.055399060309     1.798970403855    15.994914619570
         O           -0.697156252830    -2.406122060309    -0.283629596145    15.994914619570
         O           -3.214863252830    -0.244103060309     1.058176403855    15.994914619570
         O           -2.694944252830     2.033092939691    -0.079168596145    15.994914619570
         O           -3.193485252830    -0.050796060309    -1.530604596145    15.994914619570
         C            1.439573747170     1.992572939691     1.122060403855    12.000000000000
         H            1.034850747170     1.126095939691     1.644639403855     1.007825032230
         H            2.220621747170     2.463632939691     1.727090403855     1.007825032230
         H            0.633972747170     2.706327939691     0.943251403855     1.007825032230

  Basis Set: AUG-CC-PVTZ
    Blend: AUG-CC-PVTZ
  Basis Set: (AUG-CC-PVTZ AUX)
    Blend: AUG-CC-PVTZ-JKFIT
	 Reference Energy          =   -1810.6888243409564438 [Eh]
	 Singles Energy            =      -0.0000000000000000 [Eh]
	 Same-Spin Energy          =      -0.9129607730600207 [Eh]
	 Opposite-Spin Energy      =      -2.5254655670363428 [Eh]
	 Correlation Energy        =      -3.4384263400963633 [Eh]
	 Total Energy              =   -1814.1272506810528284 [Eh]

	 ================> DF-SCS-MP2 Energies <==================
	-----------------------------------------------------------
	 SCS Same-Spin Scale       =       0.3333333333333333 [-]
	 SCS Opposite-Spin Scale   =       1.2000000000000000 [-]
	 SCS Same-Spin Energy      =      -0.3043202576866735 [Eh]
	 SCS Opposite-Spin Energy  =      -3.0305586804436113 [Eh]
	 SCS Correlation Energy    =      -3.3348789381302848 [Eh]
	 SCS Total Energy          =   -1814.0237032790867033 [Eh]
	-----------------------------------------------------------

  Dipole Moment: [D]
     X:     9.4238      Y:     2.3294      Z:     1.5696     Total:     9.8335

*** Psi4 exiting successfully. Buy a developer a beer!
