                               Psi4 1.3.2 release

  ==> Input File <==

--------------------------------------------------------------------------
#psi4
#
memory 32 gb

molecule  {
-4 1
  P        2.5828670     0.0826120    -0.3559070
  P       -0.1833470    -1.1435920     0.2927960
  P       -2.7088530     0.4754690    -0.2006980
  O        1.9534540     1.6068400    -0.1842610
  O        1.2509400    -0.8782220    -0.5450080
  O        3.2679280     0.0927970    -1.6978490
  O        3.3289310    -0.2934220     0.9022790
  O       -0.9881700     0.1612780    -0.2225170
  O        0.0932830    -1.0798150     1.7822090
  O       -0.7150640    -2.4305380    -0.3003910
  O       -3.2327710    -0.2685190     1.0414150
  O       -2.7128520     2.0086770    -0.0959300
  O       -3.1787448    -0.0394362    -1.4598778
  C        1.4216660     1.9681570     1.1052990
  H        1.0169430     1.1016800     1.6278780
  H        2.2027140     2.4392170     1.7103290
  H        0.6160650     2.6819120     0.9264900
units angstrom
no_reorient  #important for SAPT in psi4, default
symmetry c1  #important for SAPT in psi4, default
}

set PROPERTIES_ORIGIN ["COM"]
properties('MP2/aug-cc-pvtz', properties = ['dipole'])
--------------------------------------------------------------------------

    Molecular point group: c1
  Charge       = -4
  Multiplicity = 1
  Basis Set: AUG-CC-PVTZ
    Blend: AUG-CC-PVTZ
  Basis Set: (AUG-CC-PVTZ AUX)
    Blend: AUG-CC-PVTZ-JKFIT

    Orbital Energies [Eh]
    ---------------------

    Doubly Occupied:

       1A    -79.571045     2A    -79.523773     3A    -79.458701
       4A    -20.083867     5A    -20.036178     6A    -20.001414
       7A    -20.001396     8A    -19.985809     9A    -19.947212
      10A    -19.943585    11A    -19.914621    12A    -19.912796
      13A    -19.907800    14A    -10.809611    15A     -7.084860
      16A     -7.036703    17A     -6.976578    18A     -4.983808
      19A     -4.982864    20A     -4.982056    21A     -4.935999
      22A     -4.934556    23A     -4.933693    24A     -4.875641
      25A     -4.874430    26A     -4.873248    27A     -0.900132
      28A     -0.843310    29A     -0.805733    30A     -0.780910
      31A     -0.756349    32A     -0.747173    33A     -0.717260
      34A     -0.697460    35A     -0.672539    36A     -0.653666
      37A     -0.464780    38A     -0.291387    39A     -0.231397
      40A     -0.180146    41A     -0.161481    42A     -0.146771
      43A     -0.123824    44A     -0.095815    45A     -0.080838
      46A     -0.063842    47A     -0.049931    48A     -0.042193
      49A     -0.029316    50A     -0.016426    51A     -0.005622
      52A     -0.000497    53A      0.009281    54A      0.015399
      55A      0.021067    56A      0.038132    57A      0.048380
      58A      0.054986    59A      0.068671    60A      0.072642
      61A      0.091481    62A      0.093516    63A      0.102950
      64A      0.107616    65A      0.114763    66A      0.126192
      67A      0.148194    68A      0.152446    69A      0.176564

  @DF-RHF Final Energy: -1810.68536724712089

   => Energetics <=

    Nuclear Repulsion Energy =           1467.8972733870693901
    One-Electron Energy =               -5511.7877625034398079
    Two-Electron Energy =                2233.2051218692490693
    Total Energy =                      -1810.6853672471211212
  Basis Set: (AUG-CC-PVTZ AUX)
    Blend: AUG-CC-PVTZ-RI
    Molecular point group: c1

    Geometry (in Angstrom), charge = -4, multiplicity = 1:

       Center              X                  Y                   Z               Mass
    ------------   -----------------  -----------------  -----------------  -----------------
         P            2.596229699860     0.105629161850    -0.344393384875    30.973761998420
         P           -0.169984300140    -1.120574838150     0.304309615125    30.973761998420
         P           -2.695490300140     0.498486161850    -0.189184384875    30.973761998420
         O            1.966816699860     1.629857161850    -0.172747384875    15.994914619570
         O            1.264302699860    -0.855204838150    -0.533494384875    15.994914619570
         O            3.281290699860     0.115814161850    -1.686335384875    15.994914619570
         O            3.342293699860    -0.270404838150     0.913792615125    15.994914619570
         O           -0.974807300140     0.184295161850    -0.211003384875    15.994914619570
         O            0.106645699860    -1.056797838150     1.793722615125    15.994914619570
         O           -0.701701300140    -2.407520838150    -0.288877384875    15.994914619570
         O           -3.219408300140    -0.245501838150     1.052928615125    15.994914619570
         O           -2.699489300140     2.031694161850    -0.084416384875    15.994914619570
         O           -3.165382100140    -0.016419038150    -1.448364184875    15.994914619570
         C            1.435028699860     1.991174161850     1.116812615125    12.000000000000
         H            1.030305699860     1.124697161850     1.639391615125     1.007825032230
         H            2.216076699860     2.462234161850     1.721842615125     1.007825032230
         H            0.629427699860     2.704929161850     0.938003615125     1.007825032230

  Basis Set: AUG-CC-PVTZ
    Blend: AUG-CC-PVTZ
  Basis Set: (AUG-CC-PVTZ AUX)
    Blend: AUG-CC-PVTZ-JKFIT
	 Reference Energy          =   -1810.6853672471208938 [Eh]
	 Singles Energy            =      -0.0000000000000000 [Eh]
	 Same-Spin Energy          =      -0.9112632435110446 [Eh]
	 Opposite-Spin Energy      =      -2.5211983802654210 [Eh]
	 Correlation Energy        =      -3.4324616237764656 [Eh]
	 Total Energy              =   -1814.1178288708972559 [Eh]

	 ================> DF-SCS-MP2 Energies <==================
	-----------------------------------------------------------
	 SCS Same-Spin Scale       =       0.3333333333333333 [-]
	 SCS Opposite-Spin Scale   =       1.2000000000000000 [-]
	 SCS Same-Spin Energy      =      -0.3037544145036815 [Eh]
	 SCS Opposite-Spin Energy  =      -3.0254380563185053 [Eh]
	 SCS Correlation Energy    =      -3.3291924708221869 [Eh]
	 SCS Total Energy          =   -1814.0145597179430297 [Eh]
	-----------------------------------------------------------

  Dipole Moment: [D]
     X:     8.8916      Y:     2.1301      Z:     0.9307     Total:     9.1904

*** Psi4 exiting successfully. Buy a developer a beer!
