                               Psi4 1.3.2 release

  ==> Input File <==

--------------------------------------------------------------------------
#psi4
#
memory 32 gb

molecule  {
-4 1
  P        2.5828670     0.0826120    -0.3559070
  P       -0.1833470    -1.1435920     0.2927960
  P       -2.7088530     0.4754690    -0.2006980
  O        1.9534540     1.6068400    -0.1842610
  O        1.2486490    -0.8905156    -0.5526954
  O        3.2679280     0.0927970    -1.6978490
  O        3.3289310    -0.2934220     0.9022790
  O       -0.9881700     0.1612780    -0.2225170
  O        0.0932830    -1.0798150     1.7822090
  O       -0.7045866    -2.4311013    -0.3084135
  O       -3.2327710    -0.2685190     1.0414150
  O       -2.7128520     2.0086770    -0.0959300
  O       -3.2113930    -0.0752120    -1.5473660
  C        1.4216660     1.9681570     1.1052990
  H        1.0169430     1.1016800     1.6278780
  H        2.2027140     2.4392170     1.7103290
  H        0.6160650     2.6819120     0.9264900
units angstrom
no_reorient  #important for SAPT in psi4, default
symmetry c1  #important for SAPT in psi4, default
}

set PROPERTIES_ORIGIN ["COM"]
properties('MP2/aug-cc-pvtz', properties = ['dipole'])
--------------------------------------------------------------------------

    Molecular point group: c1
  Charge       = -4
  Multiplicity = 1
  Basis Set: AUG-CC-PVTZ
    Blend: AUG-CC-PVTZ
  Basis Set: (AUG-CC-PVTZ AUX)
    Blend: AUG-CC-PVTZ-JKFIT

    Orbital Energies [Eh]
    ---------------------

    Doubly Occupied:

       1A    -79.573231     2A    -79.526199     3A    -79.479985
       4A    -20.086591     5A    -20.037760     6A    -20.003493
       7A    -20.002658     8A    -19.993141     9A    -19.950649
      10A    -19.944046    11A    -19.924027    12A    -19.919257
      13A    -19.917572    14A    -10.812184    15A     -7.086963
      16A     -7.039189    17A     -6.993490    18A     -4.985892
      19A     -4.984952    20A     -4.984147    21A     -4.938457
      22A     -4.937087    23A     -4.936147    24A     -4.892952
      25A     -4.890764    26A     -4.890614    27A     -0.901774
      28A     -0.844623    29A     -0.806663    30A     -0.777687
      31A     -0.757917    32A     -0.741373    33A     -0.713562
      34A     -0.699338    35A     -0.663564    36A     -0.659181
      37A     -0.467323    38A     -0.291515    39A     -0.234920
      40A     -0.184007    41A     -0.164189    42A     -0.149175
      43A     -0.125945    44A     -0.098772    45A     -0.081995
      46A     -0.064632    47A     -0.052030    48A     -0.043965
      49A     -0.032155    50A     -0.015770    51A     -0.006491
      52A      0.000013    53A      0.009526    54A      0.015016
      55A      0.021771    56A      0.037088    57A      0.047347
      58A      0.053135    59A      0.067129    60A      0.070970
      61A      0.091680    62A      0.100446    63A      0.102264
      64A      0.103795    65A      0.114251    66A      0.125420
      67A      0.144391    68A      0.150406    69A      0.171942

  @DF-RHF Final Energy: -1810.68792555985988

   => Energetics <=

    Nuclear Repulsion Energy =           1462.5013981437193706
    One-Electron Energy =               -5500.6118014356425192
    Two-Electron Energy =                2227.4224777320632711
    Total Energy =                      -1810.6879255598596501
  Basis Set: (AUG-CC-PVTZ AUX)
    Blend: AUG-CC-PVTZ-RI
    Molecular point group: c1

    Geometry (in Angstrom), charge = -4, multiplicity = 1:

       Center              X                  Y                   Z               Mass
    ------------   -----------------  -----------------  -----------------  -----------------
         P            2.597690219834     0.108532833277    -0.338231823326    30.973761998420
         P           -0.168523780166    -1.117671166723     0.310471176674    30.973761998420
         P           -2.694029780166     0.501389833277    -0.183022823326    30.973761998420
         O            1.968277219834     1.632760833277    -0.166585823326    15.994914619570
         O            1.263472219834    -0.864594766723    -0.535020223326    15.994914619570
         O            3.282751219834     0.118717833277    -1.680173823326    15.994914619570
         O            3.343754219834    -0.267501166723     0.919954176674    15.994914619570
         O           -0.973346780166     0.187198833277    -0.204841823326    15.994914619570
         O            0.108106219834    -1.053894166723     1.799884176674    15.994914619570
         O           -0.689763380166    -2.405180466723    -0.290738323326    15.994914619570
         O           -3.217947780166    -0.242598166723     1.059090176674    15.994914619570
         O           -2.698028780166     2.034597833277    -0.078254823326    15.994914619570
         O           -3.196569780166    -0.049291166723    -1.529690823326    15.994914619570
         C            1.436489219834     1.994077833277     1.122974176674    12.000000000000
         H            1.031766219834     1.127600833277     1.645553176674     1.007825032230
         H            2.217537219834     2.465137833277     1.728004176674     1.007825032230
         H            0.630888219834     2.707832833277     0.944165176674     1.007825032230

  Basis Set: AUG-CC-PVTZ
    Blend: AUG-CC-PVTZ
  Basis Set: (AUG-CC-PVTZ AUX)
    Blend: AUG-CC-PVTZ-JKFIT
	 Reference Energy          =   -1810.6879255598598775 [Eh]
	 Singles Energy            =      -0.0000000000000000 [Eh]
	 Same-Spin Energy          =      -0.9131421966412732 [Eh]
	 Opposite-Spin Energy      =      -2.5261446087878574 [Eh]
	 Correlation Energy        =      -3.4392868054291306 [Eh]
	 Total Energy              =   -1814.1272123652890969 [Eh]

	 ================> DF-SCS-MP2 Energies <==================
	-----------------------------------------------------------
	 SCS Same-Spin Scale       =       0.3333333333333333 [-]
	 SCS Opposite-Spin Scale   =       1.2000000000000000 [-]
	 SCS Same-Spin Energy      =      -0.3043807322137577 [Eh]
	 SCS Opposite-Spin Energy  =      -3.0313735305454288 [Eh]
	 SCS Correlation Energy    =      -3.3357542627591865 [Eh]
	 SCS Total Energy          =   -1814.0236798226189876 [Eh]
	-----------------------------------------------------------

  Dipole Moment: [D]
     X:     9.2714      Y:     2.3847      Z:     1.6412     Total:     9.7128

*** Psi4 exiting successfully. Buy a developer a beer!
