                               Psi4 1.3.2 release

  ==> Input File <==

--------------------------------------------------------------------------
#psi4
#
memory 32 gb

molecule  {
-4 1
  P        2.5828670     0.0826120    -0.3559070
  P       -0.1833470    -1.1435920     0.2927960
  P       -2.7088530     0.4754690    -0.2006980
  O        1.9534540     1.6068400    -0.1842610
  O        1.2509400    -0.8782220    -0.5450080
  O        3.2679280     0.0927970    -1.6978490
  O        3.4277270    -0.3432175     1.0688916
  O       -0.9881700     0.1612780    -0.2225170
  O        0.0932830    -1.0798150     1.7822090
  O       -0.7150640    -2.4305380    -0.3003910
  O       -3.2327710    -0.2685190     1.0414150
  O       -2.7128520     2.0086770    -0.0959300
  O       -3.2113930    -0.0752120    -1.5473660
  C        1.4216660     1.9681570     1.1052990
  H        1.0169430     1.1016800     1.6278780
  H        2.2027140     2.4392170     1.7103290
  H        0.6160650     2.6819120     0.9264900
units angstrom
no_reorient  #important for SAPT in psi4, default
symmetry c1  #important for SAPT in psi4, default
}

set PROPERTIES_ORIGIN ["COM"]
properties('MP2/aug-cc-pvtz', properties = ['dipole'])
--------------------------------------------------------------------------

    Molecular point group: c1
  Charge       = -4
  Multiplicity = 1
  Basis Set: AUG-CC-PVTZ
    Blend: AUG-CC-PVTZ
  Basis Set: (AUG-CC-PVTZ AUX)
    Blend: AUG-CC-PVTZ-JKFIT

    Orbital Energies [Eh]
    ---------------------

    Doubly Occupied:

       1A    -79.601725     2A    -79.531860     3A    -79.482729
       4A    -20.099479     5A    -20.052732     6A    -20.018852
       7A    -20.010719     8A    -19.997349     9A    -19.952810
      10A    -19.949559    11A    -19.926614    12A    -19.921895
      13A    -19.919825    14A    -10.816534    15A     -7.111676
      16A     -7.044880    17A     -6.996247    18A     -5.010733
      19A     -5.009757    20A     -5.008128    21A     -4.944220
      22A     -4.942709    23A     -4.941757    24A     -4.895724
      25A     -4.893507    26A     -4.893356    27A     -0.908292
      28A     -0.854650    29A     -0.807921    30A     -0.783922
      31A     -0.746916    32A     -0.716921    33A     -0.705926
      34A     -0.702671    35A     -0.666118    36A     -0.661627
      37A     -0.473256    38A     -0.306330    39A     -0.241906
      40A     -0.189328    41A     -0.170216    42A     -0.157027
      43A     -0.125228    44A     -0.100256    45A     -0.086881
      46A     -0.069155    47A     -0.051306    48A     -0.049118
      49A     -0.031136    50A     -0.020335    51A     -0.004199
      52A     -0.001192    53A      0.005407    54A      0.017941
      55A      0.023117    56A      0.032851    57A      0.043734
      58A      0.065235    59A      0.070579    60A      0.078162
      61A      0.086406    62A      0.097721    63A      0.099285
      64A      0.100990    65A      0.110383    66A      0.121927
      67A      0.141740    68A      0.147649    69A      0.169482

  @DF-RHF Final Energy: -1810.65206400557599

   => Energetics <=

    Nuclear Repulsion Energy =           1453.7583109177726328
    One-Electron Energy =               -5482.4315503020816323
    Two-Electron Energy =                2218.0211753787330053
    Total Energy =                      -1810.6520640055759941
  Basis Set: (AUG-CC-PVTZ AUX)
    Blend: AUG-CC-PVTZ-RI
    Molecular point group: c1

    Geometry (in Angstrom), charge = -4, multiplicity = 1:

       Center              X                  Y                   Z               Mass
    ------------   -----------------  -----------------  -----------------  -----------------
         P            2.592280269192     0.110738294981    -0.349117598409    30.973761998420
         P           -0.173933730808    -1.115465705019     0.299585401591    30.973761998420
         P           -2.699439730808     0.503595294981    -0.193908598409    30.973761998420
         O            1.962867269192     1.634966294981    -0.177471598409    15.994914619570
         O            1.260353269192    -0.850095705019    -0.538218598409    15.994914619570
         O            3.277341269192     0.120923294981    -1.691059598409    15.994914619570
         O            3.437140269192    -0.315091205019     1.075681001591    15.994914619570
         O           -0.978756730808     0.189404294981    -0.215727598409    15.994914619570
         O            0.102696269192    -1.051688705019     1.788998401591    15.994914619570
         O           -0.705650730808    -2.402411705019    -0.293601598409    15.994914619570
         O           -3.223357730808    -0.240392705019     1.048204401591    15.994914619570
         O           -2.703438730808     2.036803294981    -0.089140598409    15.994914619570
         O           -3.201979730808    -0.047085705019    -1.540576598409    15.994914619570
         C            1.431079269192     1.996283294981     1.112088401591    12.000000000000
         H            1.026356269192     1.129806294981     1.634667401591     1.007825032230
         H            2.212127269192     2.467343294981     1.717118401591     1.007825032230
         H            0.625478269192     2.710038294981     0.933279401591     1.007825032230

  Basis Set: AUG-CC-PVTZ
    Blend: AUG-CC-PVTZ
  Basis Set: (AUG-CC-PVTZ AUX)
    Blend: AUG-CC-PVTZ-JKFIT
	 Reference Energy          =   -1810.6520640055759941 [Eh]
	 Singles Energy            =      -0.0000000000000000 [Eh]
	 Same-Spin Energy          =      -0.9165660881155813 [Eh]
	 Opposite-Spin Energy      =      -2.5354361680267368 [Eh]
	 Correlation Energy        =      -3.4520022561423183 [Eh]
	 Total Energy              =   -1814.1040662617183443 [Eh]

	 ================> DF-SCS-MP2 Energies <==================
	-----------------------------------------------------------
	 SCS Same-Spin Scale       =       0.3333333333333333 [-]
	 SCS Opposite-Spin Scale   =       1.2000000000000000 [-]
	 SCS Same-Spin Energy      =      -0.3055220293718604 [Eh]
	 SCS Opposite-Spin Energy  =      -3.0425234016320841 [Eh]
	 SCS Correlation Energy    =      -3.3480454310039445 [Eh]
	 SCS Total Energy          =   -1814.0001094365800327 [Eh]
	-----------------------------------------------------------

  Dipole Moment: [D]
     X:     8.2983      Y:     2.6189      Z:     0.7521     Total:     8.7342

*** Psi4 exiting successfully. Buy a developer a beer!
