                               Psi4 1.3.2 release

  ==> Input File <==

--------------------------------------------------------------------------
#psi4
#
memory 32 gb

molecule  {
-4 1
  P        2.5828670     0.0826120    -0.3559070
  P       -0.1833470    -1.1435920     0.2927960
  P       -2.7088530     0.4754690    -0.2006980
  O        1.9534540     1.6068400    -0.1842610
  O        1.2509400    -0.8782220    -0.5450080
  O        3.2679280     0.0927970    -1.6978490
  O        3.3289310    -0.2934220     0.9022790
  O       -0.9544171     0.1934453    -0.1906867
  O        0.0932830    -1.0798150     1.7822090
  O       -0.6784716    -2.4571452    -0.2731134
  O       -3.2327710    -0.2685190     1.0414150
  O       -2.7128520     2.0086770    -0.0959300
  O       -3.2113930    -0.0752120    -1.5473660
  C        1.4216660     1.9681570     1.1052990
  H        1.0169430     1.1016800     1.6278780
  H        2.2027140     2.4392170     1.7103290
  H        0.6160650     2.6819120     0.9264900
units angstrom
no_reorient  #important for SAPT in psi4, default
symmetry c1  #important for SAPT in psi4, default
}

set PROPERTIES_ORIGIN ["COM"]
properties('MP2/aug-cc-pvtz', properties = ['dipole'])
--------------------------------------------------------------------------

    Molecular point group: c1
  Charge       = -4
  Multiplicity = 1
  Basis Set: AUG-CC-PVTZ
    Blend: AUG-CC-PVTZ
  Basis Set: (AUG-CC-PVTZ AUX)
    Blend: AUG-CC-PVTZ-JKFIT

    Orbital Energies [Eh]
    ---------------------

    Doubly Occupied:

       1A    -79.570601     2A    -79.524861     3A    -79.484087
       4A    -20.083708     5A    -20.034969     6A    -20.001014
       7A    -20.000997     8A    -19.995538     9A    -19.947337
      10A    -19.944746    11A    -19.925791    12A    -19.924935
      13A    -19.920871    14A    -10.809728    15A     -7.084409
      16A     -7.037988    17A     -6.997464    18A     -4.983362
      19A     -4.982409    20A     -4.981608    21A     -4.937294
      22A     -4.935740    23A     -4.935000    24A     -4.896897
      25A     -4.894682    26A     -4.894551    27A     -0.899926
      28A     -0.843551    29A     -0.804609    30A     -0.776041
      31A     -0.755909    32A     -0.741946    33A     -0.715527
      34A     -0.697432    35A     -0.666273    36A     -0.662927
      37A     -0.464837    38A     -0.291125    39A     -0.231570
      40A     -0.181026    41A     -0.161507    42A     -0.146888
      43A     -0.124473    44A     -0.099364    45A     -0.081233
      46A     -0.065729    47A     -0.050151    48A     -0.042457
      49A     -0.030479    50A     -0.015387    51A     -0.005080
      52A      0.000066    53A      0.009773    54A      0.016106
      55A      0.019574    56A      0.038864    57A      0.047561
      58A      0.055401    59A      0.068351    60A      0.072239
      61A      0.090079    62A      0.098191    63A      0.101578
      64A      0.102051    65A      0.114495    66A      0.126550
      67A      0.141220    68A      0.146503    69A      0.168586

  @DF-RHF Final Energy: -1810.68698885836830

   => Energetics <=

    Nuclear Repulsion Energy =           1462.2766864292568698
    One-Electron Energy =               -5500.1896628015183524
    Two-Electron Energy =                2227.2259875138929601
    Total Energy =                      -1810.6869888583682950
  Basis Set: (AUG-CC-PVTZ AUX)
    Blend: AUG-CC-PVTZ-RI
    Molecular point group: c1

    Geometry (in Angstrom), charge = -4, multiplicity = 1:

       Center              X                  Y                   Z               Mass
    ------------   -----------------  -----------------  -----------------  -----------------
         P            2.593978951039     0.107433225057    -0.342698906341    30.973761998420
         P           -0.172235048961    -1.118770774943     0.306004093659    30.973761998420
         P           -2.697741048961     0.500290225057    -0.187489906341    30.973761998420
         O            1.964565951039     1.631661225057    -0.171052906341    15.994914619570
         O            1.262051951039    -0.853400774943    -0.531799906341    15.994914619570
         O            3.279039951039     0.117618225057    -1.684640906341    15.994914619570
         O            3.340042951039    -0.268600774943     0.915487093659    15.994914619570
         O           -0.943305148961     0.218266525057    -0.177478606341    15.994914619570
         O            0.104394951039    -1.054993774943     1.795417093659    15.994914619570
         O           -0.667359648961    -2.432323974943    -0.259905306341    15.994914619570
         O           -3.221659048961    -0.243697774943     1.054623093659    15.994914619570
         O           -2.701740048961     2.033498225057    -0.082721906341    15.994914619570
         O           -3.200281048961    -0.050390774943    -1.534157906341    15.994914619570
         C            1.432777951039     1.992978225057     1.118507093659    12.000000000000
         H            1.028054951039     1.126501225057     1.641086093659     1.007825032230
         H            2.213825951039     2.464038225057     1.723537093659     1.007825032230
         H            0.627176951039     2.706733225057     0.939698093659     1.007825032230

  Basis Set: AUG-CC-PVTZ
    Blend: AUG-CC-PVTZ
  Basis Set: (AUG-CC-PVTZ AUX)
    Blend: AUG-CC-PVTZ-JKFIT
	 Reference Energy          =   -1810.6869888583682950 [Eh]
	 Singles Energy            =      -0.0000000000000000 [Eh]
	 Same-Spin Energy          =      -0.9133438619566058 [Eh]
	 Opposite-Spin Energy      =      -2.5266219961988270 [Eh]
	 Correlation Energy        =      -3.4399658581554329 [Eh]
	 Total Energy              =   -1814.1269547165236418 [Eh]

	 ================> DF-SCS-MP2 Energies <==================
	-----------------------------------------------------------
	 SCS Same-Spin Scale       =       0.3333333333333333 [-]
	 SCS Opposite-Spin Scale   =       1.2000000000000000 [-]
	 SCS Same-Spin Energy      =      -0.3044479539855353 [Eh]
	 SCS Opposite-Spin Energy  =      -3.0319463954385921 [Eh]
	 SCS Correlation Energy    =      -3.3363943494241273 [Eh]
	 SCS Total Energy          =   -1814.0233832077924490 [Eh]
	-----------------------------------------------------------

  Dipole Moment: [D]
     X:     8.8839      Y:     2.3982      Z:     1.4696     Total:     9.3185

*** Psi4 exiting successfully. Buy a developer a beer!
