                               Psi4 1.3.2 release

  ==> Input File <==

--------------------------------------------------------------------------
#psi4
#
memory 32 gb

molecule  {
-4 1
  P        2.5828670     0.0826120    -0.3559070
  P       -0.1833470    -1.1435920     0.2927960
  P       -2.7088530     0.4754690    -0.2006980
  O        1.9534540     1.6068400    -0.1842610
  O        1.2509400    -0.8782220    -0.5450080
  O        3.2679280     0.0927970    -1.6978490
  O        3.3289310    -0.2934220     0.9022790
  O       -0.9881700     0.1612780    -0.2225170
  O        0.0932830    -1.0798150     1.7822090
  O       -0.7853251    -2.6005950    -0.3787747
  O       -3.2327710    -0.2685190     1.0414150
  O       -2.7128520     2.0086770    -0.0959300
  O       -3.2113930    -0.0752120    -1.5473660
  C        1.4216660     1.9681570     1.1052990
  H        1.0169430     1.1016800     1.6278780
  H        2.2027140     2.4392170     1.7103290
  H        0.6160650     2.6819120     0.9264900
units angstrom
no_reorient  #important for SAPT in psi4, default
symmetry c1  #important for SAPT in psi4, default
}

set PROPERTIES_ORIGIN ["COM"]
properties('MP2/aug-cc-pvtz', properties = ['dipole'])
--------------------------------------------------------------------------

    Molecular point group: c1
  Charge       = -4
  Multiplicity = 1
  Basis Set: AUG-CC-PVTZ
    Blend: AUG-CC-PVTZ
  Basis Set: (AUG-CC-PVTZ AUX)
    Blend: AUG-CC-PVTZ-JKFIT

    Orbital Energies [Eh]
    ---------------------

    Doubly Occupied:

       1A    -79.579430     2A    -79.556805     3A    -79.484128
       4A    -20.091512     5A    -20.050039     6A    -20.008324
       7A    -20.007511     8A    -20.007506     9A    -19.966811
      10A    -19.954299    11A    -19.928119    12A    -19.921221
      13A    -19.920707    14A    -10.817356    15A     -7.093199
      16A     -7.065820    17A     -6.997723    18A     -4.992143
      19A     -4.991240    20A     -4.990331    21A     -4.965171
      22A     -4.963719    23A     -4.962188    24A     -4.897254
      25A     -4.894937    26A     -4.894762    27A     -0.908214
      28A     -0.851465    29A     -0.812621    30A     -0.785542
      31A     -0.762815    32A     -0.744005    33A     -0.721418
      34A     -0.667123    35A     -0.661742    36A     -0.647796
      37A     -0.472499    38A     -0.305452    39A     -0.242963
      40A     -0.190940    41A     -0.170105    42A     -0.154494
      43A     -0.132448    44A     -0.103745    45A     -0.089153
      46A     -0.069630    47A     -0.056956    48A     -0.049523
      49A     -0.037091    50A     -0.019084    51A     -0.013089
      52A     -0.003074    53A      0.006592    54A      0.013372
      55A      0.021243    56A      0.032294    57A      0.047272
      58A      0.052285    59A      0.063387    60A      0.081861
      61A      0.086602    62A      0.097285    63A      0.099380
      64A      0.101148    65A      0.128004    66A      0.133314
      67A      0.140748    68A      0.146642    69A      0.169151

  @DF-RHF Final Energy: -1810.65171376957232

   => Energetics <=

    Nuclear Repulsion Energy =           1453.1111326035861566
    One-Electron Energy =               -5481.0163609281735262
    Two-Electron Energy =                2217.2535145550150446
    Total Energy =                      -1810.6517137695723250
  Basis Set: (AUG-CC-PVTZ AUX)
    Blend: AUG-CC-PVTZ-RI
    Molecular point group: c1

    Geometry (in Angstrom), charge = -4, multiplicity = 1:

       Center              X                  Y                   Z               Mass
    ------------   -----------------  -----------------  -----------------  -----------------
         P            2.602374018272     0.117918646502    -0.334489811834    30.973761998420
         P           -0.163839981728    -1.108285353498     0.314213188166    30.973761998420
         P           -2.689345981728     0.510775646502    -0.179280811834    30.973761998420
         O            1.972961018272     1.642146646502    -0.162843811834    15.994914619570
         O            1.270447018272    -0.842915353498    -0.523590811834    15.994914619570
         O            3.287435018272     0.128103646502    -1.676431811834    15.994914619570
         O            3.348438018272    -0.258115353498     0.923696188166    15.994914619570
         O           -0.968662981728     0.196584646502    -0.201099811834    15.994914619570
         O            0.112790018272    -1.044508353498     1.803626188166    15.994914619570
         O           -0.765818081728    -2.565288353498    -0.357357511834    15.994914619570
         O           -3.213263981728    -0.233212353498     1.062832188166    15.994914619570
         O           -2.693344981728     2.043983646502    -0.074512811834    15.994914619570
         O           -3.191885981728    -0.039905353498    -1.525948811834    15.994914619570
         C            1.441173018272     2.003463646502     1.126716188166    12.000000000000
         H            1.036450018272     1.136986646502     1.649295188166     1.007825032230
         H            2.222221018272     2.474523646502     1.731746188166     1.007825032230
         H            0.635572018272     2.717218646502     0.947907188166     1.007825032230

  Basis Set: AUG-CC-PVTZ
    Blend: AUG-CC-PVTZ
  Basis Set: (AUG-CC-PVTZ AUX)
    Blend: AUG-CC-PVTZ-JKFIT
	 Reference Energy          =   -1810.6517137695723250 [Eh]
	 Singles Energy            =      -0.0000000000000000 [Eh]
	 Same-Spin Energy          =      -0.9162686839070339 [Eh]
	 Opposite-Spin Energy      =      -2.5348905848420467 [Eh]
	 Correlation Energy        =      -3.4511592687490804 [Eh]
	 Total Energy              =   -1814.1028730383213770 [Eh]

	 ================> DF-SCS-MP2 Energies <==================
	-----------------------------------------------------------
	 SCS Same-Spin Scale       =       0.3333333333333333 [-]
	 SCS Opposite-Spin Scale   =       1.2000000000000000 [-]
	 SCS Same-Spin Energy      =      -0.3054228946356780 [Eh]
	 SCS Opposite-Spin Energy  =      -3.0418687018104560 [Eh]
	 SCS Correlation Energy    =      -3.3472915964461341 [Eh]
	 SCS Total Energy          =   -1813.9990053660185367 [Eh]
	-----------------------------------------------------------

  Dipole Moment: [D]
     X:     9.6090      Y:     3.6467      Z:     2.0449     Total:    10.4792

*** Psi4 exiting successfully. Buy a developer a beer!
