                               Psi4 1.3.2 release

  ==> Input File <==

--------------------------------------------------------------------------
#psi4
#
memory 32 gb

molecule  {
-4 1
  P        2.5828670     0.0826120    -0.3559070
  P       -0.1591075    -1.1314305     0.2849604
  P       -2.7037733     0.5026967    -0.2135407
  O        1.9534540     1.6068400    -0.1842610
  O        1.2509400    -0.8782220    -0.5450080
  O        3.2679280     0.0927970    -1.6978490
  O        3.3289310    -0.2934220     0.9022790
  O       -0.9881700     0.1612780    -0.2225170
  O        0.0932830    -1.0798150     1.7822090
  O       -0.7150640    -2.4305380    -0.3003910
  O       -3.2327710    -0.2685190     1.0414150
  O       -2.7128520     2.0086770    -0.0959300
  O       -3.2113930    -0.0752120    -1.5473660
  C        1.4216660     1.9681570     1.1052990
  H        1.0169430     1.1016800     1.6278780
  H        2.2027140     2.4392170     1.7103290
  H        0.6160650     2.6819120     0.9264900
units angstrom
no_reorient  #important for SAPT in psi4, default
symmetry c1  #important for SAPT in psi4, default
}

set PROPERTIES_ORIGIN ["COM"]
properties('MP2/aug-cc-pvtz', properties = ['dipole'])
--------------------------------------------------------------------------

    Molecular point group: c1
  Charge       = -4
  Multiplicity = 1
  Basis Set: AUG-CC-PVTZ
    Blend: AUG-CC-PVTZ
  Basis Set: (AUG-CC-PVTZ AUX)
    Blend: AUG-CC-PVTZ-JKFIT

    Orbital Energies [Eh]
    ---------------------

    Doubly Occupied:

       1A    -79.576621     2A    -79.526587     3A    -79.478933
       4A    -20.088556     5A    -20.045115     6A    -20.005788
       7A    -20.005597     8A    -19.990470     9A    -19.947899
      10A    -19.939868    11A    -19.928268    12A    -19.918383
      13A    -19.911093    14A    -10.813649    15A     -7.090445
      16A     -7.039152    17A     -6.992513    18A     -4.989387
      19A     -4.988479    20A     -4.987593    21A     -4.938488
      22A     -4.937100    23A     -4.936076    24A     -4.891967
      25A     -4.889933    26A     -4.889484    27A     -0.906038
      28A     -0.851650    29A     -0.806925    30A     -0.781627
      31A     -0.760579    32A     -0.740855    33A     -0.712499
      34A     -0.690906    35A     -0.669137    36A     -0.648201
      37A     -0.469063    38A     -0.301064    39A     -0.237243
      40A     -0.187570    41A     -0.166632    42A     -0.151552
      43A     -0.128691    44A     -0.097760    45A     -0.086388
      46A     -0.066706    47A     -0.053371    48A     -0.045780
      49A     -0.031126    50A     -0.016629    51A     -0.009922
      52A     -0.000046    53A      0.007896    54A      0.013231
      55A      0.024291    56A      0.034576    57A      0.049247
      58A      0.050946    59A      0.065556    60A      0.072817
      61A      0.091901    62A      0.100205    63A      0.102028
      64A      0.108551    65A      0.118859    66A      0.129980
      67A      0.144801    68A      0.155664    69A      0.174651

  @DF-RHF Final Energy: -1810.68586403935137

   => Energetics <=

    Nuclear Repulsion Energy =           1463.2403884784830552
    One-Electron Energy =               -5502.0120964976704272
    Two-Electron Energy =                2228.0858439798362269
    Total Energy =                      -1810.6858640393511450
  Basis Set: (AUG-CC-PVTZ AUX)
    Blend: AUG-CC-PVTZ-RI
    Molecular point group: c1

    Geometry (in Angstrom), charge = -4, multiplicity = 1:

       Center              X                  Y                   Z               Mass
    ------------   -----------------  -----------------  -----------------  -----------------
         P            2.594789126779     0.103211037279    -0.336778986128    30.973761998420
         P           -0.147185373221    -1.110831462721     0.304088413872    30.973761998420
         P           -2.691851173221     0.523295737279    -0.194412686128    30.973761998420
         O            1.965376126779     1.627439037279    -0.165132986128    15.994914619570
         O            1.262862126779    -0.857622962721    -0.525879986128    15.994914619570
         O            3.279850126779     0.113396037279    -1.678720986128    15.994914619570
         O            3.340853126779    -0.272822962721     0.921407013872    15.994914619570
         O           -0.976247873221     0.181877037279    -0.203388986128    15.994914619570
         O            0.105205126779    -1.059215962721     1.801337013872    15.994914619570
         O           -0.703141873221    -2.409938962721    -0.281262986128    15.994914619570
         O           -3.220848873221    -0.247919962721     1.060543013872    15.994914619570
         O           -2.700929873221     2.029276037279    -0.076801986128    15.994914619570
         O           -3.199470873221    -0.054612962721    -1.528237986128    15.994914619570
         C            1.433588126779     1.988756037279     1.124427013872    12.000000000000
         H            1.028865126779     1.122279037279     1.647006013872     1.007825032230
         H            2.214636126779     2.459816037279     1.729457013872     1.007825032230
         H            0.627987126779     2.702511037279     0.945618013872     1.007825032230

  Basis Set: AUG-CC-PVTZ
    Blend: AUG-CC-PVTZ
  Basis Set: (AUG-CC-PVTZ AUX)
    Blend: AUG-CC-PVTZ-JKFIT
	 Reference Energy          =   -1810.6858640393513724 [Eh]
	 Singles Energy            =      -0.0000000000000000 [Eh]
	 Same-Spin Energy          =      -0.9130975598165927 [Eh]
	 Opposite-Spin Energy      =      -2.5259010271589344 [Eh]
	 Correlation Energy        =      -3.4389985869755271 [Eh]
	 Total Energy              =   -1814.1248626263268307 [Eh]

	 ================> DF-SCS-MP2 Energies <==================
	-----------------------------------------------------------
	 SCS Same-Spin Scale       =       0.3333333333333333 [-]
	 SCS Opposite-Spin Scale   =       1.2000000000000000 [-]
	 SCS Same-Spin Energy      =      -0.3043658532721976 [Eh]
	 SCS Opposite-Spin Energy  =      -3.0310812325907213 [Eh]
	 SCS Correlation Energy    =      -3.3354470858629188 [Eh]
	 SCS Total Energy          =   -1814.0213111252141971 [Eh]
	-----------------------------------------------------------

  Dipole Moment: [D]
     X:     9.7132      Y:     2.9160      Z:     1.3678     Total:    10.2333

*** Psi4 exiting successfully. Buy a developer a beer!
