                               Psi4 1.4a3.dev225

  ==> Input File <==

--------------------------------------------------------------------------
#psi4
#
memory 32 gb

molecule  {
-4 1
  P       -2.5202440    -0.2449420     0.3712220
  P        0.3565170    -0.5960480    -0.3589090
  P        3.1750170     0.3881900     0.1554910
  O       -2.7927880     1.3311510    -0.1150520
  O       -0.9169740    -0.0836090     0.6422800
  O       -3.1856250    -0.4605710     1.7148300
  O       -2.8507450    -1.1694890    -0.7786080
  O        1.4898640     0.0841660     0.5723090
  O        0.2127210     0.0849480    -1.7048820
  O        0.4027150    -2.1095660    -0.2874290
  O        3.5327910    -0.6840640    -0.8835370
  O        3.1643710     1.8286230    -0.3742880
  O        3.8338960     0.2099350     1.5311200
  C       -4.1398760     1.5889580    -0.5252390
  H       -4.4424283     0.9008561    -1.3873006
  H       -4.8386320     1.4471050     0.3059850
  H       -4.1840730     2.6280350    -0.8559160
units angstrom
no_reorient  #important for SAPT in psi4, default
symmetry c1  #important for SAPT in psi4, default
}

set PROPERTIES_ORIGIN ["COM"]
properties('MP2/aug-cc-pvtz', properties = ['dipole'])
--------------------------------------------------------------------------

    Molecular point group: c1
  Charge       = -4
  Multiplicity = 1
  Basis Set: AUG-CC-PVTZ
    Blend: AUG-CC-PVTZ
  Basis Set: (AUG-CC-PVTZ AUX)
    Blend: AUG-CC-PVTZ-JKFIT

    Orbital Energies [Eh]
    ---------------------

    Doubly Occupied:

       1A    -79.581084     2A    -79.517364     3A    -79.475533
       4A    -20.120551     5A    -20.042096     6A    -20.015361
       7A    -20.005075     8A    -19.984409     9A    -19.937064
      10A    -19.935377    11A    -19.922062    12A    -19.917137
      13A    -19.913292    14A    -10.889539    15A     -7.095365
      16A     -7.030430    17A     -6.989291    18A     -4.994519
      19A     -4.993196    20A     -4.992288    21A     -4.929833
      22A     -4.928249    23A     -4.927107    24A     -4.888686
      25A     -4.886578    26A     -4.886449    27A     -0.932062
      28A     -0.853809    29A     -0.807216    30A     -0.778033
      31A     -0.761411    32A     -0.736627    33A     -0.706046
      34A     -0.687104    35A     -0.662071    36A     -0.657358
      37A     -0.523549    38A     -0.308066    39A     -0.251722
      40A     -0.215449    41A     -0.196866    42A     -0.165392
      43A     -0.139615    44A     -0.108624    45A     -0.093699
      46A     -0.078632    47A     -0.063047    48A     -0.051937
      49A     -0.035045    50A     -0.024779    51A     -0.012758
      52A     -0.009874    53A      0.009219    54A      0.011454
      55A      0.022878    56A      0.034066    57A      0.047822
      58A      0.054645    59A      0.061925    60A      0.081064
      61A      0.097317    62A      0.103272    63A      0.106980
      64A      0.108046    65A      0.124705    66A      0.135168
      67A      0.147897    68A      0.154256    69A      0.174441

  @DF-RHF Final Energy: -1810.67364349496052

   => Energetics <=

    Nuclear Repulsion Energy =           1425.4310887480153269
    One-Electron Energy =               -5425.8423236895814625
    Two-Electron Energy =                2189.7375914466056201
    Total Energy =                      -1810.6736434949607428
  Basis Set: (AUG-CC-PVTZ AUX)
    Blend: AUG-CC-PVTZ-RI
    Molecular point group: c1

    Geometry (in Angstrom), charge = -4, multiplicity = 1:

       Center              X                  Y                   Z               Mass
    ------------   -----------------  -----------------  -----------------  -----------------
         P           -2.573635895379    -0.224660908171     0.363724480104    30.973761998420
         P            0.303125104621    -0.575766908171    -0.366406519896    30.973761998420
         P            3.121625104621     0.408471091829     0.147993480104    30.973761998420
         O           -2.846179895379     1.351432091829    -0.122549519896    15.994914619570
         O           -0.970365895379    -0.063327908171     0.634782480104    15.994914619570
         O           -3.239016895379    -0.440289908171     1.707332480104    15.994914619570
         O           -2.904136895379    -1.149207908171    -0.786105519896    15.994914619570
         O            1.436472104621     0.104447091829     0.564811480104    15.994914619570
         O            0.159329104621     0.105229091829    -1.712379519896    15.994914619570
         O            0.349323104621    -2.089284908171    -0.294926519896    15.994914619570
         O            3.479399104621    -0.663782908171    -0.891034519896    15.994914619570
         O            3.110979104621     1.848904091829    -0.381785519896    15.994914619570
         O            3.780504104621     0.230216091829     1.523622480104    15.994914619570
         C           -4.193267895379     1.609239091829    -0.532736519896    12.000000000000
         H           -4.495820195379     0.921137191829    -1.394798119896     1.007825032230
         H           -4.892023895379     1.467386091829     0.298487480104     1.007825032230
         H           -4.237464895379     2.648316091829    -0.863413519896     1.007825032230

  Basis Set: AUG-CC-PVTZ
    Blend: AUG-CC-PVTZ
  Basis Set: (AUG-CC-PVTZ AUX)
    Blend: AUG-CC-PVTZ-JKFIT
	 Reference Energy          =   -1810.6736434949605155 [Eh]
	 Singles Energy            =      -0.0000000000000000 [Eh]
	 Same-Spin Energy          =      -0.9124800059489792 [Eh]
	 Opposite-Spin Energy      =      -2.5256703153667135 [Eh]
	 Correlation Energy        =      -3.4381503213156925 [Eh]
	 Total Energy              =   -1814.1117938162763039 [Eh]

	 ================> DF-SCS-MP2 Energies <==================
	-----------------------------------------------------------
	 SCS Same-Spin Scale       =       0.3333333333333333 [-]
	 SCS Opposite-Spin Scale   =       1.2000000000000000 [-]
	 SCS Same-Spin Energy      =      -0.3041600019829930 [Eh]
	 SCS Opposite-Spin Energy  =      -3.0308043784400560 [Eh]
	 SCS Correlation Energy    =      -3.3349643804230489 [Eh]
	 SCS Total Energy          =   -1814.0086078753836318 [Eh]
	-----------------------------------------------------------

  Dipole Moment: [D]
     X:   -14.9362      Y:     2.7119      Z:     0.0502     Total:    15.1805

*** Psi4 exiting successfully. Buy a developer a beer!
