                               Psi4 1.3.2 release

  ==> Input File <==

--------------------------------------------------------------------------
#psi4
#
memory 32 gb

molecule  {
-4 1
  P        2.5828670     0.0826120    -0.3559070
  P       -0.1833470    -1.1435920     0.2927960
  P       -2.7088530     0.4754690    -0.2006980
  O        1.9534540     1.6068400    -0.1842610
  O        1.2509400    -0.8782220    -0.5450080
  O        3.2679280     0.0927970    -1.6978490
  O        3.3289310    -0.2934220     0.9022790
  O       -0.9877756     0.1811652    -0.1696823
  O        0.0686171    -1.0330195     1.7838462
  O       -0.7150640    -2.4305380    -0.3003910
  O       -3.2327710    -0.2685190     1.0414150
  O       -2.7128520     2.0086770    -0.0959300
  O       -3.2113930    -0.0752120    -1.5473660
  C        1.4216660     1.9681570     1.1052990
  H        1.0169430     1.1016800     1.6278780
  H        2.2027140     2.4392170     1.7103290
  H        0.6160650     2.6819120     0.9264900
units angstrom
no_reorient  #important for SAPT in psi4, default
symmetry c1  #important for SAPT in psi4, default
}

set PROPERTIES_ORIGIN ["COM"]
properties('MP2/aug-cc-pvtz', properties = ['dipole'])
--------------------------------------------------------------------------

    Molecular point group: c1
  Charge       = -4
  Multiplicity = 1
  Basis Set: AUG-CC-PVTZ
    Blend: AUG-CC-PVTZ
  Basis Set: (AUG-CC-PVTZ AUX)
    Blend: AUG-CC-PVTZ-JKFIT

    Orbital Energies [Eh]
    ---------------------

    Doubly Occupied:

       1A    -79.573074     2A    -79.527270     3A    -79.478401
       4A    -20.085023     5A    -20.040110     6A    -20.003254
       7A    -20.003014     8A    -19.990028     9A    -19.949817
      10A    -19.947423    11A    -19.921703    12A    -19.920320
      13A    -19.914566    14A    -10.809761    15A     -7.086887
      16A     -7.040214    17A     -6.991897    18A     -4.985830
      19A     -4.984901    20A     -4.984073    21A     -4.939448
      22A     -4.938175    23A     -4.937144    24A     -4.891357
      25A     -4.889185    26A     -4.889033    27A     -0.901708
      28A     -0.845927    29A     -0.806593    30A     -0.778204
      31A     -0.758040    32A     -0.742029    33A     -0.711853
      34A     -0.701147    35A     -0.662163    36A     -0.657799
      37A     -0.465295    38A     -0.294291    39A     -0.233804
      40A     -0.184110    41A     -0.163068    42A     -0.147940
      43A     -0.125913    44A     -0.098363    45A     -0.083218
      46A     -0.064659    47A     -0.051670    48A     -0.044015
      49A     -0.031932    50A     -0.015265    51A     -0.006634
      52A      0.000872    53A      0.009517    54A      0.014684
      55A      0.022436    56A      0.037182    57A      0.048175
      58A      0.053289    59A      0.066446    60A      0.070598
      61A      0.090042    62A      0.101048    63A      0.104841
      64A      0.105537    65A      0.113117    66A      0.124430
      67A      0.146185    68A      0.151639    69A      0.173279

  @DF-RHF Final Energy: -1810.68794806658047

   => Energetics <=

    Nuclear Repulsion Energy =           1463.6205927077867273
    One-Electron Energy =               -5502.8886162474336743
    Two-Electron Energy =                2228.5800754730662447
    Total Energy =                      -1810.6879480665807023
  Basis Set: (AUG-CC-PVTZ AUX)
    Blend: AUG-CC-PVTZ-RI
    Molecular point group: c1

    Geometry (in Angstrom), charge = -4, multiplicity = 1:

       Center              X                  Y                   Z               Mass
    ------------   -----------------  -----------------  -----------------  -----------------
         P            2.599628156178     0.103783829749    -0.342422108616    30.973761998420
         P           -0.166585843822    -1.122420170251     0.306280891384    30.973761998420
         P           -2.692091843822     0.496640829749    -0.187213108616    30.973761998420
         O            1.970215156178     1.628011829749    -0.170776108616    15.994914619570
         O            1.267701156178    -0.857050170251    -0.531523108616    15.994914619570
         O            3.284689156178     0.113968829749    -1.684364108616    15.994914619570
         O            3.345692156178    -0.272250170251     0.915763891384    15.994914619570
         O           -0.971014443822     0.202337029749    -0.156197408616    15.994914619570
         O            0.085378256178    -1.011847670251     1.797331091384    15.994914619570
         O           -0.698302843822    -2.409366170251    -0.286906108616    15.994914619570
         O           -3.216009843822    -0.247347170251     1.054899891384    15.994914619570
         O           -2.696090843822     2.029848829749    -0.082445108616    15.994914619570
         O           -3.194631843822    -0.054040170251    -1.533881108616    15.994914619570
         C            1.438427156178     1.989328829749     1.118783891384    12.000000000000
         H            1.033704156178     1.122851829749     1.641362891384     1.007825032230
         H            2.219475156178     2.460388829749     1.723813891384     1.007825032230
         H            0.632826156178     2.703083829749     0.939974891384     1.007825032230

  Basis Set: AUG-CC-PVTZ
    Blend: AUG-CC-PVTZ
  Basis Set: (AUG-CC-PVTZ AUX)
    Blend: AUG-CC-PVTZ-JKFIT
	 Reference Energy          =   -1810.6879480665804749 [Eh]
	 Singles Energy            =      -0.0000000000000000 [Eh]
	 Same-Spin Energy          =      -0.9131201141098744 [Eh]
	 Opposite-Spin Energy      =      -2.5259006688175121 [Eh]
	 Correlation Energy        =      -3.4390207829273862 [Eh]
	 Total Energy              =   -1814.1269688495078753 [Eh]

	 ================> DF-SCS-MP2 Energies <==================
	-----------------------------------------------------------
	 SCS Same-Spin Scale       =       0.3333333333333333 [-]
	 SCS Opposite-Spin Scale   =       1.2000000000000000 [-]
	 SCS Same-Spin Energy      =      -0.3043733713699581 [Eh]
	 SCS Opposite-Spin Energy  =      -3.0310808025810143 [Eh]
	 SCS Correlation Energy    =      -3.3354541739509722 [Eh]
	 SCS Total Energy          =   -1814.0234022405313681 [Eh]
	-----------------------------------------------------------

  Dipole Moment: [D]
     X:     9.3401      Y:     2.1675      Z:     1.5249     Total:     9.7088

*** Psi4 exiting successfully. Buy a developer a beer!
