                               Psi4 1.3.2 release

  ==> Input File <==

--------------------------------------------------------------------------
#psi4
#
memory 32 gb

molecule  {
-4 1
  P        2.5771638     0.0880294    -0.3438135
  P       -0.1792566    -1.1336713     0.3028123
  P       -2.7088530     0.4754690    -0.2006980
  O        1.9534540     1.6068400    -0.1842610
  O        1.2509400    -0.8782220    -0.5450080
  O        3.2679280     0.0927970    -1.6978490
  O        3.3289310    -0.2934220     0.9022790
  O       -0.9881700     0.1612780    -0.2225170
  O        0.0932830    -1.0798150     1.7822090
  O       -0.7150640    -2.4305380    -0.3003910
  O       -3.2327710    -0.2685190     1.0414150
  O       -2.7128520     2.0086770    -0.0959300
  O       -3.2113930    -0.0752120    -1.5473660
  C        1.4216660     1.9681570     1.1052990
  H        1.0169430     1.1016800     1.6278780
  H        2.2027140     2.4392170     1.7103290
  H        0.6160650     2.6819120     0.9264900
units angstrom
no_reorient  #important for SAPT in psi4, default
symmetry c1  #important for SAPT in psi4, default
}

set PROPERTIES_ORIGIN ["COM"]
properties('MP2/aug-cc-pvtz', properties = ['dipole'])
--------------------------------------------------------------------------

    Molecular point group: c1
  Charge       = -4
  Multiplicity = 1
  Basis Set: AUG-CC-PVTZ
    Blend: AUG-CC-PVTZ
  Basis Set: (AUG-CC-PVTZ AUX)
    Blend: AUG-CC-PVTZ-JKFIT

    Orbital Energies [Eh]
    ---------------------

    Doubly Occupied:

       1A    -79.572752     2A    -79.527029     3A    -79.480340
       4A    -20.088682     5A    -20.039092     6A    -20.004138
       7A    -19.999779     8A    -19.993749     9A    -19.952723
      10A    -19.942494    11A    -19.924395    12A    -19.919310
      13A    -19.917771    14A    -10.814202    15A     -7.086565
      16A     -7.040001    17A     -6.993838    18A     -4.985528
      19A     -4.984563    20A     -4.983724    21A     -4.939268
      22A     -4.937894    23A     -4.936957    24A     -4.893308
      25A     -4.891106    26A     -4.890956    27A     -0.905346
      28A     -0.847089    29A     -0.806653    30A     -0.778336
      31A     -0.755123    32A     -0.742829    33A     -0.715336
      34A     -0.696191    35A     -0.663835    36A     -0.659299
      37A     -0.469822    38A     -0.294077    39A     -0.237214
      40A     -0.185856    41A     -0.166407    42A     -0.151364
      43A     -0.126530    44A     -0.099256    45A     -0.082269
      46A     -0.065511    47A     -0.051725    48A     -0.045578
      49A     -0.033335    50A     -0.015909    51A     -0.008133
      52A     -0.000678    53A      0.009099    54A      0.015246
      55A      0.021506    56A      0.038806    57A      0.047121
      58A      0.052786    59A      0.067785    60A      0.071661
      61A      0.091380    62A      0.099953    63A      0.101635
      64A      0.103412    65A      0.115259    66A      0.126201
      67A      0.144184    68A      0.150130    69A      0.171766

  @DF-RHF Final Energy: -1810.68811031181212

   => Energetics <=

    Nuclear Repulsion Energy =           1463.4694831205692935
    One-Electron Energy =               -5502.4833202561048893
    Two-Electron Energy =                2228.3257268237234712
    Total Energy =                      -1810.6881103118121246
  Basis Set: (AUG-CC-PVTZ AUX)
    Blend: AUG-CC-PVTZ-RI
    Molecular point group: c1

    Geometry (in Angstrom), charge = -4, multiplicity = 1:

       Center              X                  Y                   Z               Mass
    ------------   -----------------  -----------------  -----------------  -----------------
         P            2.592662269429     0.111409213649    -0.329632625237    30.973761998420
         P           -0.163758130571    -1.110291486351     0.316993174763    30.973761998420
         P           -2.693354530571     0.498848813649    -0.186517125237    30.973761998420
         O            1.968952469429     1.630219813649    -0.170080125237    15.994914619570
         O            1.266438469429    -0.854842186351    -0.530827125237    15.994914619570
         O            3.283426469429     0.116176813649    -1.683668125237    15.994914619570
         O            3.344429469429    -0.270042186351     0.916459874763    15.994914619570
         O           -0.972671530571     0.184657813649    -0.208336125237    15.994914619570
         O            0.108781469429    -1.056435186351     1.796389874763    15.994914619570
         O           -0.699565530571    -2.407158186351    -0.286210125237    15.994914619570
         O           -3.217272530571    -0.245139186351     1.055595874763    15.994914619570
         O           -2.697353530571     2.032056813649    -0.081749125237    15.994914619570
         O           -3.195894530571    -0.051832186351    -1.533185125237    15.994914619570
         C            1.437164469429     1.991536813649     1.119479874763    12.000000000000
         H            1.032441469429     1.125059813649     1.642058874763     1.007825032230
         H            2.218212469429     2.462596813649     1.724509874763     1.007825032230
         H            0.631563469429     2.705291813649     0.940670874763     1.007825032230

  Basis Set: AUG-CC-PVTZ
    Blend: AUG-CC-PVTZ
  Basis Set: (AUG-CC-PVTZ AUX)
    Blend: AUG-CC-PVTZ-JKFIT
	 Reference Energy          =   -1810.6881103118121246 [Eh]
	 Singles Energy            =      -0.0000000000000000 [Eh]
	 Same-Spin Energy          =      -0.9131502115951544 [Eh]
	 Opposite-Spin Energy      =      -2.5260401104706522 [Eh]
	 Correlation Energy        =      -3.4391903220658069 [Eh]
	 Total Energy              =   -1814.1273006338778941 [Eh]

	 ================> DF-SCS-MP2 Energies <==================
	-----------------------------------------------------------
	 SCS Same-Spin Scale       =       0.3333333333333333 [-]
	 SCS Opposite-Spin Scale   =       1.2000000000000000 [-]
	 SCS Same-Spin Energy      =      -0.3043834038650515 [Eh]
	 SCS Opposite-Spin Energy  =      -3.0312481325647824 [Eh]
	 SCS Correlation Energy    =      -3.3356315364298341 [Eh]
	 SCS Total Energy          =   -1814.0237418482420253 [Eh]
	-----------------------------------------------------------

  Dipole Moment: [D]
     X:     9.2162      Y:     2.5412      Z:     1.9035     Total:     9.7478

*** Psi4 exiting successfully. Buy a developer a beer!
