                               Psi4 1.3.2 release

  ==> Input File <==

--------------------------------------------------------------------------
#psi4
#
memory 32 gb

molecule  {
-4 1
  P        2.5828670     0.0826120    -0.3559070
  P       -0.1833470    -1.1435920     0.2927960
  P       -2.7088530     0.4754690    -0.2006980
  O        1.9401095     1.6014118    -0.1856017
  O        1.2424713    -0.8665981    -0.5438707
  O        3.2679280     0.0927970    -1.6978490
  O        3.3289310    -0.2934220     0.9022790
  O       -0.9881700     0.1612780    -0.2225170
  O        0.0932830    -1.0798150     1.7822090
  O       -0.7150640    -2.4305380    -0.3003910
  O       -3.2327710    -0.2685190     1.0414150
  O       -2.7128520     2.0086770    -0.0959300
  O       -3.2113930    -0.0752120    -1.5473660
  C        1.4216660     1.9681570     1.1052990
  H        1.0169430     1.1016800     1.6278780
  H        2.2027140     2.4392170     1.7103290
  H        0.6160650     2.6819120     0.9264900
units angstrom
no_reorient  #important for SAPT in psi4, default
symmetry c1  #important for SAPT in psi4, default
}

set PROPERTIES_ORIGIN ["COM"]
properties('MP2/aug-cc-pvtz', properties = ['dipole'])
--------------------------------------------------------------------------

    Molecular point group: c1
  Charge       = -4
  Multiplicity = 1
  Basis Set: AUG-CC-PVTZ
    Blend: AUG-CC-PVTZ
  Basis Set: (AUG-CC-PVTZ AUX)
    Blend: AUG-CC-PVTZ-JKFIT

    Orbital Energies [Eh]
    ---------------------

    Doubly Occupied:

       1A    -79.573223     2A    -79.526020     3A    -79.479236
       4A    -20.084917     5A    -20.037571     6A    -20.003916
       7A    -20.003568     8A    -19.991791     9A    -19.949473
      10A    -19.944970    11A    -19.923398    12A    -19.918724
      13A    -19.916870    14A    -10.811233    15A     -7.087001
      16A     -7.039013    17A     -6.992739    18A     -4.985974
      19A     -4.984987    20A     -4.984204    21A     -4.938310
      22A     -4.936898    23A     -4.935981    24A     -4.892193
      25A     -4.890021    26A     -4.889872    27A     -0.902398
      28A     -0.845936    29A     -0.806648    30A     -0.778218
      31A     -0.758471    32A     -0.741696    33A     -0.712882
      34A     -0.699209    35A     -0.662940    36A     -0.658564
      37A     -0.466543    38A     -0.295096    39A     -0.234244
      40A     -0.183844    41A     -0.164067    42A     -0.148446
      43A     -0.126780    44A     -0.098854    45A     -0.083210
      46A     -0.064903    47A     -0.051902    48A     -0.043108
      49A     -0.031377    50A     -0.015839    51A     -0.007253
      52A      0.000521    53A      0.010083    54A      0.014475
      55A      0.022020    56A      0.037562    57A      0.048021
      58A      0.052592    59A      0.066432    60A      0.070805
      61A      0.091431    62A      0.100993    63A      0.102878
      64A      0.104521    65A      0.114434    66A      0.125766
      67A      0.145062    68A      0.151045    69A      0.172549

  @DF-RHF Final Energy: -1810.68901751758153

   => Energetics <=

    Nuclear Repulsion Energy =           1463.5600895201198455
    One-Electron Energy =               -5502.7515160846705840
    Two-Electron Energy =                2228.5024090469696603
    Total Energy =                      -1810.6890175175813056
  Basis Set: (AUG-CC-PVTZ AUX)
    Blend: AUG-CC-PVTZ-RI
    Molecular point group: c1

    Geometry (in Angstrom), charge = -4, multiplicity = 1:

       Center              X                  Y                   Z               Mass
    ------------   -----------------  -----------------  -----------------  -----------------
         P            2.599481380542     0.107395275827    -0.339157656788    30.973761998420
         P           -0.166732619458    -1.118808724173     0.309545343212    30.973761998420
         P           -2.692238619458     0.500252275827    -0.183948656788    30.973761998420
         O            1.956723880542     1.626195075827    -0.168852356788    15.994914619570
         O            1.259085680542    -0.841814824173    -0.527121356788    15.994914619570
         O            3.284542380542     0.117580275827    -1.681099656788    15.994914619570
         O            3.345545380542    -0.268638724173     0.919028343212    15.994914619570
         O           -0.971555619458     0.186061275827    -0.205767656788    15.994914619570
         O            0.109897380542    -1.055031724173     1.798958343212    15.994914619570
         O           -0.698449619458    -2.405754724173    -0.283641656788    15.994914619570
         O           -3.216156619458    -0.243735724173     1.058164343212    15.994914619570
         O           -2.696237619458     2.033460275827    -0.079180656788    15.994914619570
         O           -3.194778619458    -0.050428724173    -1.530616656788    15.994914619570
         C            1.438280380542     1.992940275827     1.122048343212    12.000000000000
         H            1.033557380542     1.126463275827     1.644627343212     1.007825032230
         H            2.219328380542     2.464000275827     1.727078343212     1.007825032230
         H            0.632679380542     2.706695275827     0.943239343212     1.007825032230

  Basis Set: AUG-CC-PVTZ
    Blend: AUG-CC-PVTZ
  Basis Set: (AUG-CC-PVTZ AUX)
    Blend: AUG-CC-PVTZ-JKFIT
	 Reference Energy          =   -1810.6890175175815330 [Eh]
	 Singles Energy            =      -0.0000000000000000 [Eh]
	 Same-Spin Energy          =      -0.9129771822121086 [Eh]
	 Opposite-Spin Energy      =      -2.5256005134049939 [Eh]
	 Correlation Energy        =      -3.4385776956171026 [Eh]
	 Total Energy              =   -1814.1275952131986742 [Eh]

	 ================> DF-SCS-MP2 Energies <==================
	-----------------------------------------------------------
	 SCS Same-Spin Scale       =       0.3333333333333333 [-]
	 SCS Opposite-Spin Scale   =       1.2000000000000000 [-]
	 SCS Same-Spin Energy      =      -0.3043257274040362 [Eh]
	 SCS Opposite-Spin Energy  =      -3.0307206160859925 [Eh]
	 SCS Correlation Energy    =      -3.3350463434900286 [Eh]
	 SCS Total Energy          =   -1814.0240638610714541 [Eh]
	-----------------------------------------------------------

  Dipole Moment: [D]
     X:     9.3407      Y:     2.3340      Z:     1.5890     Total:     9.7581

*** Psi4 exiting successfully. Buy a developer a beer!
