                               Psi4 1.3.2 release

  ==> Input File <==

--------------------------------------------------------------------------
#psi4
#
memory 32 gb

molecule  {
-4 1
  P        2.5828670     0.0826120    -0.3559070
  P       -0.1833470    -1.1435920     0.2927960
  P       -2.7088530     0.4754690    -0.2006980
  O        1.9534540     1.6068400    -0.1842610
  O        1.2509400    -0.8782220    -0.5450080
  O        3.2679280     0.0927970    -1.6978490
  O        3.3289310    -0.2934220     0.9022790
  O       -0.9879995     0.1507366    -0.2487029
  O        0.1054914    -1.1032455     1.7807097
  O       -0.7150640    -2.4305380    -0.3003910
  O       -3.2327710    -0.2685190     1.0414150
  O       -2.7128520     2.0086770    -0.0959300
  O       -3.2113930    -0.0752120    -1.5473660
  C        1.4216660     1.9681570     1.1052990
  H        1.0169430     1.1016800     1.6278780
  H        2.2027140     2.4392170     1.7103290
  H        0.6160650     2.6819120     0.9264900
units angstrom
no_reorient  #important for SAPT in psi4, default
symmetry c1  #important for SAPT in psi4, default
}

set PROPERTIES_ORIGIN ["COM"]
properties('MP2/aug-cc-pvtz', properties = ['dipole'])
--------------------------------------------------------------------------

    Molecular point group: c1
  Charge       = -4
  Multiplicity = 1
  Basis Set: AUG-CC-PVTZ
    Blend: AUG-CC-PVTZ
  Basis Set: (AUG-CC-PVTZ AUX)
    Blend: AUG-CC-PVTZ-JKFIT

    Orbital Energies [Eh]
    ---------------------

    Doubly Occupied:

       1A    -79.572259     2A    -79.526634     3A    -79.480648
       4A    -20.085940     5A    -20.037323     6A    -20.002603
       7A    -20.002284     8A    -19.994288     9A    -19.951303
      10A    -19.942886    11A    -19.925095    12A    -19.918839
      13A    -19.918696    14A    -10.812648    15A     -7.086086
      16A     -7.039581    17A     -6.994154    18A     -4.985041
      19A     -4.984086    20A     -4.983273    21A     -4.938880
      22A     -4.937430    23A     -4.936548    24A     -4.893613
      25A     -4.891422    26A     -4.891270    27A     -0.902015
      28A     -0.845462    29A     -0.806576    30A     -0.777848
      31A     -0.757369    32A     -0.742064    33A     -0.714633
      34A     -0.698309    35A     -0.664291    36A     -0.659541
      37A     -0.467556    38A     -0.293499    39A     -0.234868
      40A     -0.183879    41A     -0.164413    42A     -0.149179
      43A     -0.126000    44A     -0.099220    45A     -0.082609
      46A     -0.065231    47A     -0.051970    48A     -0.044051
      49A     -0.031689    50A     -0.016531    51A     -0.006641
      52A     -0.000127    53A      0.009806    54A      0.014797
      55A      0.021243    56A      0.037540    57A      0.047032
      58A      0.053657    59A      0.067336    60A      0.071119
      61A      0.091402    62A      0.099825    63A      0.101511
      64A      0.103219    65A      0.114609    66A      0.126090
      67A      0.143492    68A      0.150165    69A      0.171425

  @DF-RHF Final Energy: -1810.68860982721026

   => Energetics <=

    Nuclear Repulsion Energy =           1462.5620561877419732
    One-Electron Energy =               -5500.7130650823428368
    Two-Electron Energy =                2227.4623990673903791
    Total Energy =                      -1810.6886098272102572
  Basis Set: (AUG-CC-PVTZ AUX)
    Blend: AUG-CC-PVTZ-RI
    Molecular point group: c1

    Geometry (in Angstrom), charge = -4, multiplicity = 1:

       Center              X                  Y                   Z               Mass
    ------------   -----------------  -----------------  -----------------  -----------------
         P            2.597439901787     0.109793528698    -0.337516824232    30.973761998420
         P           -0.168774098213    -1.116410471302     0.311186175768    30.973761998420
         P           -2.694280098213     0.502650528698    -0.182307824232    30.973761998420
         O            1.968026901787     1.634021528698    -0.165870824232    15.994914619570
         O            1.265512901787    -0.851040471302    -0.526617824232    15.994914619570
         O            3.282500901787     0.119978528698    -1.679458824232    15.994914619570
         O            3.343503901787    -0.266240471302     0.920669175768    15.994914619570
         O           -0.973426598213     0.177918128698    -0.230312724232    15.994914619570
         O            0.120064301787    -1.076063971302     1.799099875768    15.994914619570
         O           -0.700491098213    -2.403356471302    -0.282000824232    15.994914619570
         O           -3.218198098213    -0.241337471302     1.059805175768    15.994914619570
         O           -2.698279098213     2.035858528698    -0.077539824232    15.994914619570
         O           -3.196820098213    -0.048030471302    -1.528975824232    15.994914619570
         C            1.436238901787     1.995338528698     1.123689175768    12.000000000000
         H            1.031515901787     1.128861528698     1.646268175768     1.007825032230
         H            2.217286901787     2.466398528698     1.728719175768     1.007825032230
         H            0.630637901787     2.709093528698     0.944880175768     1.007825032230

  Basis Set: AUG-CC-PVTZ
    Blend: AUG-CC-PVTZ
  Basis Set: (AUG-CC-PVTZ AUX)
    Blend: AUG-CC-PVTZ-JKFIT
	 Reference Energy          =   -1810.6886098272102572 [Eh]
	 Singles Energy            =      -0.0000000000000000 [Eh]
	 Same-Spin Energy          =      -0.9130147949622498 [Eh]
	 Opposite-Spin Energy      =      -2.5258269804764373 [Eh]
	 Correlation Energy        =      -3.4388417754386871 [Eh]
	 Total Energy              =   -1814.1274516026489891 [Eh]

	 ================> DF-SCS-MP2 Energies <==================
	-----------------------------------------------------------
	 SCS Same-Spin Scale       =       0.3333333333333333 [-]
	 SCS Opposite-Spin Scale   =       1.2000000000000000 [-]
	 SCS Same-Spin Energy      =      -0.3043382649874166 [Eh]
	 SCS Opposite-Spin Energy  =      -3.0309923765717248 [Eh]
	 SCS Correlation Energy    =      -3.3353306415591413 [Eh]
	 SCS Total Energy          =   -1814.0239404687692968 [Eh]
	-----------------------------------------------------------

  Dipole Moment: [D]
     X:     9.2086      Y:     2.4265      Z:     1.6499     Total:     9.6648

*** Psi4 exiting successfully. Buy a developer a beer!
