                               Psi4 1.4a3.dev225

  ==> Input File <==

--------------------------------------------------------------------------
#psi4
#
memory 32 gb

molecule  {
-4 1
  P       -2.5202440    -0.2449420     0.3712220
  P        0.3565170    -0.5960480    -0.3589090
  P        3.1750170     0.3881900     0.1554910
  O       -2.7927880     1.3311510    -0.1150520
  O       -0.9169740    -0.0836090     0.6422800
  O       -3.1856250    -0.4605710     1.7148300
  O       -2.8507450    -1.1694890    -0.7786080
  O        1.4898640     0.0841660     0.5723090
  O        0.2127210     0.0849480    -1.7048820
  O        0.4027150    -2.1095660    -0.2874290
  O        3.5211398    -0.6491452    -0.8497002
  O        3.1643710     1.8286230    -0.3742880
  O        3.8338960     0.2099350     1.5311200
  C       -4.1398760     1.5889580    -0.5252390
  H       -4.4292020     0.9309370    -1.3496150
  H       -4.8386320     1.4471050     0.3059850
  H       -4.1840730     2.6280350    -0.8559160
units angstrom
no_reorient  #important for SAPT in psi4, default
symmetry c1  #important for SAPT in psi4, default
}

set PROPERTIES_ORIGIN ["COM"]
properties('MP2/aug-cc-pvtz', properties = ['dipole'])
--------------------------------------------------------------------------

    Molecular point group: c1
  Charge       = -4
  Multiplicity = 1
  Basis Set: AUG-CC-PVTZ
    Blend: AUG-CC-PVTZ
  Basis Set: (AUG-CC-PVTZ AUX)
    Blend: AUG-CC-PVTZ-JKFIT

    Orbital Energies [Eh]
    ---------------------

    Doubly Occupied:

       1A    -79.580189     2A    -79.516195     3A    -79.465548
       4A    -20.118672     5A    -20.041000     6A    -20.014587
       7A    -20.004617     8A    -19.980645     9A    -19.936733
      10A    -19.934754    11A    -19.917516    12A    -19.912457
      13A    -19.910351    14A    -10.883038    15A     -7.094470
      16A     -7.029260    17A     -6.981206    18A     -4.993617
      19A     -4.992303    20A     -4.991403    21A     -4.928671
      22A     -4.927060    23A     -4.925961    24A     -4.880430
      25A     -4.878737    26A     -4.878214    27A     -0.930829
      28A     -0.852682    29A     -0.806415    30A     -0.778681
      31A     -0.760825    32A     -0.738946    33A     -0.706682
      34A     -0.686628    35A     -0.666838    36A     -0.657180
      37A     -0.527829    38A     -0.307795    39A     -0.251183
      40A     -0.220334    41A     -0.195291    42A     -0.164133
      43A     -0.138464    44A     -0.107616    45A     -0.092895
      46A     -0.078703    47A     -0.062156    48A     -0.050905
      49A     -0.035263    50A     -0.025010    51A     -0.012213
      52A     -0.009572    53A      0.009759    54A      0.011420
      55A      0.021071    56A      0.034597    57A      0.048481
      58A      0.055752    59A      0.062512    60A      0.081846
      61A      0.097978    62A      0.101951    63A      0.104861
      64A      0.109042    65A      0.125069    66A      0.136106
      67A      0.146093    68A      0.156409    69A      0.176092

  @DF-RHF Final Energy: -1810.67665611434950

   => Energetics <=

    Nuclear Repulsion Energy =           1427.9327229296300175
    One-Electron Energy =               -5431.0114354936577001
    Two-Electron Energy =                2192.4020564496781844
    Total Energy =                      -1810.6766561143494982
  Basis Set: (AUG-CC-PVTZ AUX)
    Blend: AUG-CC-PVTZ-RI
    Molecular point group: c1

    Geometry (in Angstrom), charge = -4, multiplicity = 1:

       Center              X                  Y                   Z               Mass
    ------------   -----------------  -----------------  -----------------  -----------------
         P           -2.572990004792    -0.226858940648     0.361562440571    30.973761998420
         P            0.303770995208    -0.577964940648    -0.368568559429    30.973761998420
         P            3.122270995208     0.406273059352     0.145831440571    30.973761998420
         O           -2.845534004792     1.349234059352    -0.124711559429    15.994914619570
         O           -0.969720004792    -0.065525940648     0.632620440571    15.994914619570
         O           -3.238371004792    -0.442487940648     1.705170440571    15.994914619570
         O           -2.903491004792    -1.151405940648    -0.788267559429    15.994914619570
         O            1.437117995208     0.102249059352     0.562649440571    15.994914619570
         O            0.159974995208     0.103031059352    -1.714541559429    15.994914619570
         O            0.349968995208    -2.091482940648    -0.297088559429    15.994914619570
         O            3.468393795208    -0.631062140648    -0.859359759429    15.994914619570
         O            3.111624995208     1.846706059352    -0.383947559429    15.994914619570
         O            3.781149995208     0.228018059352     1.521460440571    15.994914619570
         C           -4.192622004792     1.607041059352    -0.534898559429    12.000000000000
         H           -4.481948004792     0.949020059352    -1.359274559429     1.007825032230
         H           -4.891378004792     1.465188059352     0.296325440571     1.007825032230
         H           -4.236819004792     2.646118059352    -0.865575559429     1.007825032230

  Basis Set: AUG-CC-PVTZ
    Blend: AUG-CC-PVTZ
  Basis Set: (AUG-CC-PVTZ AUX)
    Blend: AUG-CC-PVTZ-JKFIT
	 Reference Energy          =   -1810.6766561143494982 [Eh]
	 Singles Energy            =      -0.0000000000000000 [Eh]
	 Same-Spin Energy          =      -0.9114758299635745 [Eh]
	 Opposite-Spin Energy      =      -2.5228764452886532 [Eh]
	 Correlation Energy        =      -3.4343522752522277 [Eh]
	 Total Energy              =   -1814.1110083896016931 [Eh]

	 ================> DF-SCS-MP2 Energies <==================
	-----------------------------------------------------------
	 SCS Same-Spin Scale       =       0.3333333333333333 [-]
	 SCS Opposite-Spin Scale   =       1.2000000000000000 [-]
	 SCS Same-Spin Energy      =      -0.3038252766545248 [Eh]
	 SCS Opposite-Spin Energy  =      -3.0274517343463838 [Eh]
	 SCS Correlation Energy    =      -3.3312770110009087 [Eh]
	 SCS Total Energy          =   -1814.0079331253505188 [Eh]
	-----------------------------------------------------------

  Dipole Moment: [D]
     X:   -14.8350      Y:     2.4835      Z:    -0.2216     Total:    15.0431

*** Psi4 exiting successfully. Buy a developer a beer!
