                               Psi4 1.3.2 release

  ==> Input File <==

--------------------------------------------------------------------------
#psi4
#
memory 32 gb

molecule  {
-4 1
  P        2.5828670     0.0826120    -0.3559070
  P       -0.1833470    -1.1435920     0.2927960
  P       -2.7088530     0.4754690    -0.2006980
  O        1.9534540     1.6068400    -0.1842610
  O        1.2477101    -0.8712349    -0.5572095
  O        3.2679280     0.0927970    -1.6978490
  O        3.3378106    -0.2840146     0.8997563
  O       -0.9881700     0.1612780    -0.2225170
  O        0.0932830    -1.0798150     1.7822090
  O       -0.7150640    -2.4305380    -0.3003910
  O       -3.2327710    -0.2685190     1.0414150
  O       -2.7128520     2.0086770    -0.0959300
  O       -3.2113930    -0.0752120    -1.5473660
  C        1.4216660     1.9681570     1.1052990
  H        1.0169430     1.1016800     1.6278780
  H        2.2027140     2.4392170     1.7103290
  H        0.6160650     2.6819120     0.9264900
units angstrom
no_reorient  #important for SAPT in psi4, default
symmetry c1  #important for SAPT in psi4, default
}

set PROPERTIES_ORIGIN ["COM"]
properties('MP2/aug-cc-pvtz', properties = ['dipole'])
--------------------------------------------------------------------------

    Molecular point group: c1
  Charge       = -4
  Multiplicity = 1
  Basis Set: AUG-CC-PVTZ
    Blend: AUG-CC-PVTZ
  Basis Set: (AUG-CC-PVTZ AUX)
    Blend: AUG-CC-PVTZ-JKFIT

    Orbital Energies [Eh]
    ---------------------

    Doubly Occupied:

       1A    -79.572180     2A    -79.527731     3A    -79.479919
       4A    -20.084878     5A    -20.039053     6A    -20.003399
       7A    -20.001402     8A    -19.993029     9A    -19.951467
      10A    -19.945936    11A    -19.923948    12A    -19.919267
      13A    -19.917511    14A    -10.811472    15A     -7.086030
      16A     -7.040636    17A     -6.993426    18A     -4.984979
      19A     -4.984016    20A     -4.983227    21A     -4.939905
      22A     -4.938512    23A     -4.937599    24A     -4.892886
      25A     -4.890701    26A     -4.890552    27A     -0.901495
      28A     -0.845261    29A     -0.806573    30A     -0.777969
      31A     -0.757274    32A     -0.742673    33A     -0.713842
      34A     -0.700441    35A     -0.663506    36A     -0.659160
      37A     -0.466497    38A     -0.293306    39A     -0.234422
      40A     -0.183553    41A     -0.163627    42A     -0.148277
      43A     -0.126394    44A     -0.099358    45A     -0.082384
      46A     -0.065206    47A     -0.051918    48A     -0.043861
      49A     -0.032159    50A     -0.016145    51A     -0.006636
      52A     -0.000022    53A      0.010006    54A      0.014685
      55A      0.021358    56A      0.038088    57A      0.047175
      58A      0.053248    59A      0.066520    60A      0.070871
      61A      0.090582    62A      0.100206    63A      0.102134
      64A      0.103766    65A      0.113234    66A      0.124561
      67A      0.144416    68A      0.150364    69A      0.171978

  @DF-RHF Final Energy: -1810.68890526965561

   => Energetics <=

    Nuclear Repulsion Energy =           1462.6851907575214682
    One-Electron Energy =               -5500.9633360803636606
    Two-Electron Energy =                2227.5892400531865860
    Total Energy =                      -1810.6889052696556064
  Basis Set: (AUG-CC-PVTZ AUX)
    Blend: AUG-CC-PVTZ-RI
    Molecular point group: c1

    Geometry (in Angstrom), charge = -4, multiplicity = 1:

       Center              X                  Y                   Z               Mass
    ------------   -----------------  -----------------  -----------------  -----------------
         P            2.597841676432     0.106786344713    -0.338290675681    30.973761998420
         P           -0.168372323568    -1.119417655287     0.310412324319    30.973761998420
         P           -2.693878323568     0.499643344713    -0.183081675681    30.973761998420
         O            1.968428676432     1.631014344713    -0.166644675681    15.994914619570
         O            1.262684776432    -0.847060555287    -0.539593175681    15.994914619570
         O            3.282902676432     0.116971344713    -1.680232675681    15.994914619570
         O            3.352785276432    -0.259840255287     0.917372624319    15.994914619570
         O           -0.973195323568     0.185452344713    -0.204900675681    15.994914619570
         O            0.108257676432    -1.055640655287     1.799825324319    15.994914619570
         O           -0.700089323568    -2.406363655287    -0.282774675681    15.994914619570
         O           -3.217796323568    -0.244344655287     1.059031324319    15.994914619570
         O           -2.697877323568     2.032851344713    -0.078313675681    15.994914619570
         O           -3.196418323568    -0.051037655287    -1.529749675681    15.994914619570
         C            1.436640676432     1.992331344713     1.122915324319    12.000000000000
         H            1.031917676432     1.125854344713     1.645494324319     1.007825032230
         H            2.217688676432     2.463391344713     1.727945324319     1.007825032230
         H            0.631039676432     2.706086344713     0.944106324319     1.007825032230

  Basis Set: AUG-CC-PVTZ
    Blend: AUG-CC-PVTZ
  Basis Set: (AUG-CC-PVTZ AUX)
    Blend: AUG-CC-PVTZ-JKFIT
	 Reference Energy          =   -1810.6889052696556064 [Eh]
	 Singles Energy            =      -0.0000000000000000 [Eh]
	 Same-Spin Energy          =      -0.9130639441497778 [Eh]
	 Opposite-Spin Energy      =      -2.5259344476663341 [Eh]
	 Correlation Energy        =      -3.4389983918161118 [Eh]
	 Total Energy              =   -1814.1279036614716915 [Eh]

	 ================> DF-SCS-MP2 Energies <==================
	-----------------------------------------------------------
	 SCS Same-Spin Scale       =       0.3333333333333333 [-]
	 SCS Opposite-Spin Scale   =       1.2000000000000000 [-]
	 SCS Same-Spin Energy      =      -0.3043546480499259 [Eh]
	 SCS Opposite-Spin Energy  =      -3.0311213371996009 [Eh]
	 SCS Correlation Energy    =      -3.3354759852495266 [Eh]
	 SCS Total Energy          =   -1814.0243812549051654 [Eh]
	-----------------------------------------------------------

  Dipole Moment: [D]
     X:     9.2102      Y:     2.2978      Z:     1.6427     Total:     9.6336

*** Psi4 exiting successfully. Buy a developer a beer!
