                               Psi4 1.3.2 release

  ==> Input File <==

--------------------------------------------------------------------------
#psi4
#
memory 32 gb

molecule  {
-4 1
  P        2.5828670     0.0826120    -0.3559070
  P       -0.1833470    -1.1435920     0.2927960
  P       -2.7088530     0.4754690    -0.2006980
  O        1.9534540     1.6068400    -0.1842610
  O        1.2509400    -0.8782220    -0.5450080
  O        3.2791310     0.0890206    -1.6920941
  O        3.3398668    -0.2952961     0.8951652
  O       -0.9881700     0.1612780    -0.2225170
  O        0.0932830    -1.0798150     1.7822090
  O       -0.7150640    -2.4305380    -0.3003910
  O       -3.2327710    -0.2685190     1.0414150
  O       -2.7128520     2.0086770    -0.0959300
  O       -3.2113930    -0.0752120    -1.5473660
  C        1.4216660     1.9681570     1.1052990
  H        1.0169430     1.1016800     1.6278780
  H        2.2027140     2.4392170     1.7103290
  H        0.6160650     2.6819120     0.9264900
units angstrom
no_reorient  #important for SAPT in psi4, default
symmetry c1  #important for SAPT in psi4, default
}

set PROPERTIES_ORIGIN ["COM"]
properties('MP2/aug-cc-pvtz', properties = ['dipole'])
--------------------------------------------------------------------------

    Molecular point group: c1
  Charge       = -4
  Multiplicity = 1
  Basis Set: AUG-CC-PVTZ
    Blend: AUG-CC-PVTZ
  Basis Set: (AUG-CC-PVTZ AUX)
    Blend: AUG-CC-PVTZ-JKFIT

    Orbital Energies [Eh]
    ---------------------

    Doubly Occupied:

       1A    -79.572507     2A    -79.527382     3A    -79.480113
       4A    -20.086394     5A    -20.039179     6A    -20.002045
       7A    -20.001796     8A    -19.993344     9A    -19.950567
      10A    -19.945619    11A    -19.924159    12A    -19.919434
      13A    -19.917615    14A    -10.812275    15A     -7.086329
      16A     -7.040319    17A     -6.993619    18A     -4.985275
      19A     -4.984300    20A     -4.983541    21A     -4.939600
      22A     -4.938204    23A     -4.937275    24A     -4.893082
      25A     -4.890893    26A     -4.890743    27A     -0.902260
      28A     -0.846221    29A     -0.806829    30A     -0.778436
      31A     -0.756454    32A     -0.742465    33A     -0.713861
      34A     -0.700021    35A     -0.663689    36A     -0.659291
      37A     -0.467374    38A     -0.294335    39A     -0.235034
      40A     -0.184453    41A     -0.164398    42A     -0.149224
      43A     -0.126002    44A     -0.099233    45A     -0.082909
      46A     -0.065382    47A     -0.051934    48A     -0.044415
      49A     -0.032151    50A     -0.016405    51A     -0.007135
      52A     -0.000115    53A      0.009405    54A      0.014793
      55A      0.021266    56A      0.037344    57A      0.047060
      58A      0.054003    59A      0.067290    60A      0.071103
      61A      0.090683    62A      0.100232    63A      0.102032
      64A      0.103634    65A      0.113566    66A      0.124909
      67A      0.144259    68A      0.150232    69A      0.171826

  @DF-RHF Final Energy: -1810.68943882325675

   => Energetics <=

    Nuclear Repulsion Energy =           1462.6245431672505219
    One-Electron Energy =               -5500.8239751059445553
    Two-Electron Energy =                2227.5099931154372825
    Total Energy =                      -1810.6894388232567508
  Basis Set: (AUG-CC-PVTZ AUX)
    Blend: AUG-CC-PVTZ-RI
    Molecular point group: c1

    Geometry (in Angstrom), charge = -4, multiplicity = 1:

       Center              X                  Y                   Z               Mass
    ------------   -----------------  -----------------  -----------------  -----------------
         P            2.596857175705     0.108102566856    -0.339088666328    30.973761998420
         P           -0.169356824295    -1.118101433144     0.309614333672    30.973761998420
         P           -2.694862824295     0.500959566856    -0.183879666328    30.973761998420
         O            1.967444175705     1.632330566856    -0.167442666328    15.994914619570
         O            1.264930175705    -0.852731433144    -0.528189666328    15.994914619570
         O            3.293121175705     0.114511166856    -1.675275766328    15.994914619570
         O            3.353856975705    -0.269805533144     0.911983533672    15.994914619570
         O           -0.974179824295     0.186768566856    -0.205698666328    15.994914619570
         O            0.107273175705    -1.054324433144     1.799027333672    15.994914619570
         O           -0.701073824295    -2.405047433144    -0.283572666328    15.994914619570
         O           -3.218780824295    -0.243028433144     1.058233333672    15.994914619570
         O           -2.698861824295     2.034167566856    -0.079111666328    15.994914619570
         O           -3.197402824295    -0.049721433144    -1.530547666328    15.994914619570
         C            1.435656175705     1.993647566856     1.122117333672    12.000000000000
         H            1.030933175705     1.127170566856     1.644696333672     1.007825032230
         H            2.216704175705     2.464707566856     1.727147333672     1.007825032230
         H            0.630055175705     2.707402566856     0.943308333672     1.007825032230

  Basis Set: AUG-CC-PVTZ
    Blend: AUG-CC-PVTZ
  Basis Set: (AUG-CC-PVTZ AUX)
    Blend: AUG-CC-PVTZ-JKFIT
	 Reference Energy          =   -1810.6894388232567508 [Eh]
	 Singles Energy            =      -0.0000000000000000 [Eh]
	 Same-Spin Energy          =      -0.9129428772233665 [Eh]
	 Opposite-Spin Energy      =      -2.5256477152449213 [Eh]
	 Correlation Energy        =      -3.4385905924682878 [Eh]
	 Total Energy              =   -1814.1280294157249955 [Eh]

	 ================> DF-SCS-MP2 Energies <==================
	-----------------------------------------------------------
	 SCS Same-Spin Scale       =       0.3333333333333333 [-]
	 SCS Opposite-Spin Scale   =       1.2000000000000000 [-]
	 SCS Same-Spin Energy      =      -0.3043142924077888 [Eh]
	 SCS Opposite-Spin Energy  =      -3.0307772582939054 [Eh]
	 SCS Correlation Energy    =      -3.3350915507016943 [Eh]
	 SCS Total Energy          =   -1814.0245303739584415 [Eh]
	-----------------------------------------------------------

  Dipole Moment: [D]
     X:     9.1854      Y:     2.3530      Z:     1.6158     Total:     9.6187

*** Psi4 exiting successfully. Buy a developer a beer!
