                               Psi4 1.3.2 release

  ==> Input File <==

--------------------------------------------------------------------------
#psi4
#
memory 32 gb

molecule  {
-4 1
  P        2.5828670     0.0826120    -0.3559070
  P       -0.1833470    -1.1435920     0.2927960
  P       -2.7088530     0.4754690    -0.2006980
  O        1.9154913     1.6987729    -0.1739083
  O        1.2509400    -0.8782220    -0.5450080
  O        3.2679280     0.0927970    -1.6978490
  O        3.3289310    -0.2934220     0.9022790
  O       -0.9881700     0.1612780    -0.2225170
  O        0.0932830    -1.0798150     1.7822090
  O       -0.7150640    -2.4305380    -0.3003910
  O       -3.2327710    -0.2685190     1.0414150
  O       -2.7128520     2.0086770    -0.0959300
  O       -3.2113930    -0.0752120    -1.5473660
  C        1.4216660     1.9681570     1.1052990
  H        1.0169430     1.1016800     1.6278780
  H        2.2027140     2.4392170     1.7103290
  H        0.6160650     2.6819120     0.9264900
units angstrom
no_reorient  #important for SAPT in psi4, default
symmetry c1  #important for SAPT in psi4, default
}

set PROPERTIES_ORIGIN ["COM"]
properties('MP2/aug-cc-pvtz', properties = ['dipole'])
--------------------------------------------------------------------------

    Molecular point group: c1
  Charge       = -4
  Multiplicity = 1
  Basis Set: AUG-CC-PVTZ
    Blend: AUG-CC-PVTZ
  Basis Set: (AUG-CC-PVTZ AUX)
    Blend: AUG-CC-PVTZ-JKFIT

    Orbital Energies [Eh]
    ---------------------

    Doubly Occupied:

       1A    -79.584083     2A    -79.528959     3A    -79.479603
       4A    -20.081896     5A    -20.046016     6A    -20.011895
       7A    -20.010722     8A    -19.993423     9A    -19.951269
      10A    -19.947325    11A    -19.923014    12A    -19.919113
      13A    -19.917192    14A    -10.799320    15A     -7.096813
      16A     -7.041927    17A     -6.993109    18A     -4.995578
      19A     -4.994766    20A     -4.993921    21A     -4.941248
      22A     -4.939774    23A     -4.938854    24A     -4.892578
      25A     -4.890371    26A     -4.890234    27A     -0.893955
      28A     -0.850001    29A     -0.812325    30A     -0.782099
      31A     -0.764617    32A     -0.743761    33A     -0.713857
      34A     -0.701255    35A     -0.662829    36A     -0.658923
      37A     -0.449638    38A     -0.297201    39A     -0.232347
      40A     -0.182844    41A     -0.162141    42A     -0.140301
      43A     -0.130907    44A     -0.100517    45A     -0.087568
      46A     -0.066534    47A     -0.053604    48A     -0.045362
      49A     -0.031074    50A     -0.017973    51A     -0.005707
      52A      0.001335    53A      0.011548    54A      0.014674
      55A      0.024479    56A      0.037047    57A      0.046581
      58A      0.047394    59A      0.060812    60A      0.068087
      61A      0.089260    62A      0.100382    63A      0.102306
      64A      0.103959    65A      0.112702    66A      0.124186
      67A      0.144944    68A      0.150523    69A      0.172433

  @DF-RHF Final Energy: -1810.67977282100446

   => Energetics <=

    Nuclear Repulsion Energy =           1459.8618178104616163
    One-Electron Energy =               -5495.1277996328262816
    Two-Electron Energy =                2224.5862090013602028
    Total Energy =                      -1810.6797728210044625
  Basis Set: (AUG-CC-PVTZ AUX)
    Blend: AUG-CC-PVTZ-RI
    Molecular point group: c1

    Geometry (in Angstrom), charge = -4, multiplicity = 1:

       Center              X                  Y                   Z               Mass
    ------------   -----------------  -----------------  -----------------  -----------------
         P            2.600445605060     0.102276237445    -0.339787920910    30.973761998420
         P           -0.165768394940    -1.123927762555     0.308915079090    30.973761998420
         P           -2.691274394940     0.495133237445    -0.184578920910    30.973761998420
         O            1.933069905060     1.718437137445    -0.157789220910    15.994914619570
         O            1.268518605060    -0.858557762555    -0.528888920910    15.994914619570
         O            3.285506605060     0.112461237445    -1.681729920910    15.994914619570
         O            3.346509605060    -0.273757762555     0.918398079090    15.994914619570
         O           -0.970591394940     0.180942237445    -0.206397920910    15.994914619570
         O            0.110861605060    -1.060150762555     1.798328079090    15.994914619570
         O           -0.697485394940    -2.410873762555    -0.284271920910    15.994914619570
         O           -3.215192394940    -0.248854762555     1.057534079090    15.994914619570
         O           -2.695273394940     2.028341237445    -0.079810920910    15.994914619570
         O           -3.193814394940    -0.055547762555    -1.531246920910    15.994914619570
         C            1.439244605060     1.987821237445     1.121418079090    12.000000000000
         H            1.034521605060     1.121344237445     1.643997079090     1.007825032230
         H            2.220292605060     2.458881237445     1.726448079090     1.007825032230
         H            0.633643605060     2.701576237445     0.942609079090     1.007825032230

  Basis Set: AUG-CC-PVTZ
    Blend: AUG-CC-PVTZ
  Basis Set: (AUG-CC-PVTZ AUX)
    Blend: AUG-CC-PVTZ-JKFIT
	 Reference Energy          =   -1810.6797728210044625 [Eh]
	 Singles Energy            =      -0.0000000000000000 [Eh]
	 Same-Spin Energy          =      -0.9140990150226450 [Eh]
	 Opposite-Spin Energy      =      -2.5284309772664670 [Eh]
	 Correlation Energy        =      -3.4425299922891122 [Eh]
	 Total Energy              =   -1814.1223028132935724 [Eh]

	 ================> DF-SCS-MP2 Energies <==================
	-----------------------------------------------------------
	 SCS Same-Spin Scale       =       0.3333333333333333 [-]
	 SCS Opposite-Spin Scale   =       1.2000000000000000 [-]
	 SCS Same-Spin Energy      =      -0.3046996716742150 [Eh]
	 SCS Opposite-Spin Energy  =      -3.0341171727197604 [Eh]
	 SCS Correlation Energy    =      -3.3388168443939756 [Eh]
	 SCS Total Energy          =   -1814.0185896653983946 [Eh]
	-----------------------------------------------------------

  Dipole Moment: [D]
     X:     9.4458      Y:     1.8137      Z:     1.3979     Total:     9.7194

*** Psi4 exiting successfully. Buy a developer a beer!
