                               Psi4 1.3.2 release

  ==> Input File <==

--------------------------------------------------------------------------
#psi4
#
memory 32 gb

molecule  {
-4 1
  P        2.5828670     0.0826120    -0.3559070
  P       -0.1833470    -1.1435920     0.2927960
  P       -2.7088530     0.4754690    -0.2006980
  O        1.9428711     1.5992841    -0.1584105
  O        1.2509400    -0.8782220    -0.5450080
  O        3.2749572     0.0677220    -1.6941932
  O        3.3289310    -0.2934220     0.9022790
  O       -0.9881700     0.1612780    -0.2225170
  O        0.0932830    -1.0798150     1.7822090
  O       -0.7150640    -2.4305380    -0.3003910
  O       -3.2327710    -0.2685190     1.0414150
  O       -2.7128520     2.0086770    -0.0959300
  O       -3.2113930    -0.0752120    -1.5473660
  C        1.4216660     1.9681570     1.1052990
  H        1.0169430     1.1016800     1.6278780
  H        2.2027140     2.4392170     1.7103290
  H        0.6160650     2.6819120     0.9264900
units angstrom
no_reorient  #important for SAPT in psi4, default
symmetry c1  #important for SAPT in psi4, default
}

set PROPERTIES_ORIGIN ["COM"]
properties('MP2/aug-cc-pvtz', properties = ['dipole'])
--------------------------------------------------------------------------

    Molecular point group: c1
  Charge       = -4
  Multiplicity = 1
  Basis Set: AUG-CC-PVTZ
    Blend: AUG-CC-PVTZ
  Basis Set: (AUG-CC-PVTZ AUX)
    Blend: AUG-CC-PVTZ-JKFIT

    Orbital Energies [Eh]
    ---------------------

    Doubly Occupied:

       1A    -79.573603     2A    -79.526517     3A    -79.479733
       4A    -20.085423     5A    -20.037678     6A    -20.004852
       7A    -20.001533     8A    -19.992764     9A    -19.949607
      10A    -19.944943    11A    -19.923815    12A    -19.919133
      13A    -19.917217    14A    -10.809824    15A     -7.087345
      16A     -7.039455    17A     -6.993237    18A     -4.986313
      19A     -4.985327    20A     -4.984551    21A     -4.938731
      22A     -4.937346    23A     -4.936414    24A     -4.892698
      25A     -4.890513    26A     -4.890364    27A     -0.907176
      28A     -0.847360    29A     -0.808060    30A     -0.778220
      31A     -0.757557    32A     -0.741780    33A     -0.713312
      34A     -0.699227    35A     -0.663342    36A     -0.658936
      37A     -0.466979    38A     -0.294233    39A     -0.237069
      40A     -0.185868    41A     -0.167176    42A     -0.153922
      43A     -0.126171    44A     -0.098832    45A     -0.083686
      46A     -0.064670    47A     -0.052057    48A     -0.042529
      49A     -0.031113    50A     -0.016202    51A     -0.006024
      52A      0.000741    53A      0.010046    54A      0.014680
      55A      0.021962    56A      0.036220    57A      0.047556
      58A      0.054256    59A      0.067212    60A      0.071045
      61A      0.091295    62A      0.100685    63A      0.102511
      64A      0.104059    65A      0.114293    66A      0.125678
      67A      0.144654    68A      0.150626    69A      0.172173

  @DF-RHF Final Energy: -1810.68976767294794

   => Energetics <=

    Nuclear Repulsion Energy =           1463.4994949983977222
    One-Electron Energy =               -5502.5770342796377008
    Two-Electron Energy =                2228.3877716082920415
    Total Energy =                      -1810.6897676729481645
  Basis Set: (AUG-CC-PVTZ AUX)
    Blend: AUG-CC-PVTZ-RI
    Molecular point group: c1

    Geometry (in Angstrom), charge = -4, multiplicity = 1:

       Center              X                  Y                   Z               Mass
    ------------   -----------------  -----------------  -----------------  -----------------
         P            2.598391176041     0.109713462747    -0.340931508682    30.973761998420
         P           -0.167822823959    -1.116490537253     0.307771491318    30.973761998420
         P           -2.693328823959     0.502570462747    -0.185722508682    30.973761998420
         O            1.958395276041     1.626385562747    -0.143435008682    15.994914619570
         O            1.266464176041    -0.851120537253    -0.530032508682    15.994914619570
         O            3.290481376041     0.094823462747    -1.679217708682    15.994914619570
         O            3.344455176041    -0.266320537253     0.917254491318    15.994914619570
         O           -0.972645823959     0.188379462747    -0.207541508682    15.994914619570
         O            0.108807176041    -1.052713537253     1.797184491318    15.994914619570
         O           -0.699539823959    -2.403436537253    -0.285415508682    15.994914619570
         O           -3.217246823959    -0.241417537253     1.056390491318    15.994914619570
         O           -2.697327823959     2.035778462747    -0.080954508682    15.994914619570
         O           -3.195868823959    -0.048110537253    -1.532390508682    15.994914619570
         C            1.437190176041     1.995258462747     1.120274491318    12.000000000000
         H            1.032467176041     1.128781462747     1.642853491318     1.007825032230
         H            2.218238176041     2.466318462747     1.725304491318     1.007825032230
         H            0.631589176041     2.709013462747     0.941465491318     1.007825032230

  Basis Set: AUG-CC-PVTZ
    Blend: AUG-CC-PVTZ
  Basis Set: (AUG-CC-PVTZ AUX)
    Blend: AUG-CC-PVTZ-JKFIT
	 Reference Energy          =   -1810.6897676729479372 [Eh]
	 Singles Energy            =      -0.0000000000000000 [Eh]
	 Same-Spin Energy          =      -0.9128395348004643 [Eh]
	 Opposite-Spin Energy      =      -2.5250410529660887 [Eh]
	 Correlation Energy        =      -3.4378805877665530 [Eh]
	 Total Energy              =   -1814.1276482607145226 [Eh]

	 ================> DF-SCS-MP2 Energies <==================
	-----------------------------------------------------------
	 SCS Same-Spin Scale       =       0.3333333333333333 [-]
	 SCS Opposite-Spin Scale   =       1.2000000000000000 [-]
	 SCS Same-Spin Energy      =      -0.3042798449334881 [Eh]
	 SCS Opposite-Spin Energy  =      -3.0300492635593064 [Eh]
	 SCS Correlation Energy    =      -3.3343291084927946 [Eh]
	 SCS Total Energy          =   -1814.0240967814406758 [Eh]
	-----------------------------------------------------------

  Dipole Moment: [D]
     X:     9.2815      Y:     2.3753      Z:     1.5171     Total:     9.7000

*** Psi4 exiting successfully. Buy a developer a beer!
