                               Psi4 1.3.2 release

  ==> Input File <==

--------------------------------------------------------------------------
#psi4
#
memory 32 gb

molecule  {
-4 1
  P        2.5828670     0.0826120    -0.3559070
  P       -0.1833470    -1.1435920     0.2927960
  P       -2.7088530     0.4754690    -0.2006980
  O        1.9534540     1.6068400    -0.1842610
  O        1.2474197    -0.8759508    -0.5312030
  O        3.2772333     0.1007048    -1.6929742
  O        3.3289310    -0.2934220     0.9022790
  O       -0.9881700     0.1612780    -0.2225170
  O        0.0932830    -1.0798150     1.7822090
  O       -0.7150640    -2.4305380    -0.3003910
  O       -3.2327710    -0.2685190     1.0414150
  O       -2.7128520     2.0086770    -0.0959300
  O       -3.2113930    -0.0752120    -1.5473660
  C        1.4216660     1.9681570     1.1052990
  H        1.0169430     1.1016800     1.6278780
  H        2.2027140     2.4392170     1.7103290
  H        0.6160650     2.6819120     0.9264900
units angstrom
no_reorient  #important for SAPT in psi4, default
symmetry c1  #important for SAPT in psi4, default
}

set PROPERTIES_ORIGIN ["COM"]
properties('MP2/aug-cc-pvtz', properties = ['dipole'])
--------------------------------------------------------------------------

    Molecular point group: c1
  Charge       = -4
  Multiplicity = 1
  Basis Set: AUG-CC-PVTZ
    Blend: AUG-CC-PVTZ
  Basis Set: (AUG-CC-PVTZ AUX)
    Blend: AUG-CC-PVTZ-JKFIT

    Orbital Energies [Eh]
    ---------------------

    Doubly Occupied:

       1A    -79.573455     2A    -79.526246     3A    -79.479671
       4A    -20.085399     5A    -20.038990     6A    -20.003868
       7A    -20.002316     8A    -19.992609     9A    -19.948913
      10A    -19.945091    11A    -19.923766    12A    -19.919098
      13A    -19.917186    14A    -10.811452    15A     -7.087202
      16A     -7.039266    17A     -6.993176    18A     -4.986173
      19A     -4.985195    20A     -4.984397    21A     -4.938580
      22A     -4.937155    23A     -4.936220    24A     -4.892635
      25A     -4.890453    26A     -4.890304    27A     -0.902285
      28A     -0.847073    29A     -0.806629    30A     -0.778972
      31A     -0.757770    32A     -0.741858    33A     -0.713223
      34A     -0.699175    35A     -0.663301    36A     -0.658905
      37A     -0.466634    38A     -0.296221    39A     -0.234481
      40A     -0.184510    41A     -0.163995    42A     -0.148819
      43A     -0.126118    44A     -0.098867    45A     -0.083818
      46A     -0.065387    47A     -0.052189    48A     -0.044035
      49A     -0.031499    50A     -0.016441    51A     -0.007158
      52A      0.000131    53A      0.009594    54A      0.014513
      55A      0.021642    56A      0.036795    57A      0.047583
      58A      0.053623    59A      0.067139    60A      0.070605
      61A      0.091121    62A      0.100761    63A      0.102528
      64A      0.104134    65A      0.114407    66A      0.125755
      67A      0.144692    68A      0.150671    69A      0.172208

  @DF-RHF Final Energy: -1810.68963393946888

   => Energetics <=

    Nuclear Repulsion Energy =           1463.2268618423490807
    One-Electron Energy =               -5502.0524364032853555
    Two-Electron Energy =                2228.1359406214673982
    Total Energy =                      -1810.6896339394688766
  Basis Set: (AUG-CC-PVTZ AUX)
    Blend: AUG-CC-PVTZ-RI
    Molecular point group: c1

    Geometry (in Angstrom), charge = -4, multiplicity = 1:

       Center              X                  Y                   Z               Mass
    ------------   -----------------  -----------------  -----------------  -----------------
         P            2.597833598190     0.107157448307    -0.340285100016    30.973761998420
         P           -0.168380401810    -1.119046551693     0.308417899984    30.973761998420
         P           -2.693886401810     0.500014448307    -0.185076100016    30.973761998420
         O            1.968420598190     1.631385448307    -0.168639100016    15.994914619570
         O            1.262386298190    -0.851405351693    -0.515581100016    15.994914619570
         O            3.292199898190     0.125250248307    -1.677352300016    15.994914619570
         O            3.343897598190    -0.268876551693     0.917900899984    15.994914619570
         O           -0.973203401810     0.185823448307    -0.206895100016    15.994914619570
         O            0.108249598190    -1.055269551693     1.797830899984    15.994914619570
         O           -0.700097401810    -2.405992551693    -0.284769100016    15.994914619570
         O           -3.217804401810    -0.243973551693     1.057036899984    15.994914619570
         O           -2.697885401810     2.033222448307    -0.080308100016    15.994914619570
         O           -3.196426401810    -0.050666551693    -1.531744100016    15.994914619570
         C            1.436632598190     1.992702448307     1.120920899984    12.000000000000
         H            1.031909598190     1.126225448307     1.643499899984     1.007825032230
         H            2.217680598190     2.463762448307     1.725950899984     1.007825032230
         H            0.631031598190     2.706457448307     0.942111899984     1.007825032230

  Basis Set: AUG-CC-PVTZ
    Blend: AUG-CC-PVTZ
  Basis Set: (AUG-CC-PVTZ AUX)
    Blend: AUG-CC-PVTZ-JKFIT
	 Reference Energy          =   -1810.6896339394688766 [Eh]
	 Singles Energy            =      -0.0000000000000000 [Eh]
	 Same-Spin Energy          =      -0.9128768121787620 [Eh]
	 Opposite-Spin Energy      =      -2.5254020871311957 [Eh]
	 Correlation Energy        =      -3.4382788993099576 [Eh]
	 Total Energy              =   -1814.1279128387789115 [Eh]

	 ================> DF-SCS-MP2 Energies <==================
	-----------------------------------------------------------
	 SCS Same-Spin Scale       =       0.3333333333333333 [-]
	 SCS Opposite-Spin Scale   =       1.2000000000000000 [-]
	 SCS Same-Spin Energy      =      -0.3042922707262540 [Eh]
	 SCS Opposite-Spin Energy  =      -3.0304825045574346 [Eh]
	 SCS Correlation Energy    =      -3.3347747752836887 [Eh]
	 SCS Total Energy          =   -1814.0244087147525534 [Eh]
	-----------------------------------------------------------

  Dipole Moment: [D]
     X:     9.2883      Y:     2.3303      Z:     1.5565     Total:     9.7018

*** Psi4 exiting successfully. Buy a developer a beer!
