                               Psi4 1.3.2 release

  ==> Input File <==

--------------------------------------------------------------------------
#psi4
#
memory 32 gb

molecule  {
-4 1
  P        2.5828670     0.0826120    -0.3559070
  P       -0.1833470    -1.1435920     0.2927960
  P       -2.7088530     0.4754690    -0.2006980
  O        1.9534540     1.6068400    -0.1842610
  O        1.2509400    -0.8782220    -0.5450080
  O        3.2679280     0.0927970    -1.6978490
  O        3.3289310    -0.2934220     0.9022790
  O       -0.9868688     0.1696563    -0.2352110
  O        0.0932830    -1.0798150     1.7822090
  O       -0.7150640    -2.4305380    -0.3003910
  O       -3.2452105    -0.2642591     1.0386469
  O       -2.7128520     2.0086770    -0.0959300
  O       -3.2113930    -0.0752120    -1.5473660
  C        1.4216660     1.9681570     1.1052990
  H        1.0169430     1.1016800     1.6278780
  H        2.2027140     2.4392170     1.7103290
  H        0.6160650     2.6819120     0.9264900
units angstrom
no_reorient  #important for SAPT in psi4, default
symmetry c1  #important for SAPT in psi4, default
}

set PROPERTIES_ORIGIN ["COM"]
properties('MP2/aug-cc-pvtz', properties = ['dipole'])
--------------------------------------------------------------------------

    Molecular point group: c1
  Charge       = -4
  Multiplicity = 1
  Basis Set: AUG-CC-PVTZ
    Blend: AUG-CC-PVTZ
  Basis Set: (AUG-CC-PVTZ AUX)
    Blend: AUG-CC-PVTZ-JKFIT

    Orbital Energies [Eh]
    ---------------------

    Doubly Occupied:

       1A    -79.572849     2A    -79.528664     3A    -79.479105
       4A    -20.085807     5A    -20.038827     6A    -20.003151
       7A    -20.002763     8A    -19.993935     9A    -19.951901
      10A    -19.946493    11A    -19.922769    12A    -19.918029
      13A    -19.917777    14A    -10.811893    15A     -7.086671
      16A     -7.041442    17A     -6.992648    18A     -4.985621
      19A     -4.984678    20A     -4.983857    21A     -4.940735
      22A     -4.939285    23A     -4.938409    24A     -4.892084
      25A     -4.889929    26A     -4.889788    27A     -0.902136
      28A     -0.845609    29A     -0.806036    30A     -0.777771
      31A     -0.757884    32A     -0.742672    33A     -0.713196
      34A     -0.700881    35A     -0.662671    36A     -0.658537
      37A     -0.466995    38A     -0.294074    39A     -0.234239
      40A     -0.183307    41A     -0.163843    42A     -0.148866
      43A     -0.126440    44A     -0.099488    45A     -0.083119
      46A     -0.065013    47A     -0.051920    48A     -0.044148
      49A     -0.031589    50A     -0.016121    51A     -0.006782
      52A      0.000051    53A      0.009531    54A      0.014591
      55A      0.021431    56A      0.037303    57A      0.047226
      58A      0.053192    59A      0.066341    60A      0.070386
      61A      0.090471    62A      0.100496    63A      0.102958
      64A      0.104125    65A      0.113197    66A      0.124241
      67A      0.144872    68A      0.151028    69A      0.172727

  @DF-RHF Final Energy: -1810.68822535768572

   => Energetics <=

    Nuclear Repulsion Energy =           1462.3685951655463668
    One-Electron Energy =               -5500.3170796067279298
    Two-Electron Energy =                2227.2602590834962939
    Total Energy =                      -1810.6882253576854964
  Basis Set: (AUG-CC-PVTZ AUX)
    Blend: AUG-CC-PVTZ-RI
    Molecular point group: c1

    Geometry (in Angstrom), charge = -4, multiplicity = 1:

       Center              X                  Y                   Z               Mass
    ------------   -----------------  -----------------  -----------------  -----------------
         P            2.598844023329     0.107010618936    -0.338246618511    30.973761998420
         P           -0.167369976671    -1.119193381064     0.310456381489    30.973761998420
         P           -2.692875976671     0.499867618936    -0.183037618511    30.973761998420
         O            1.969431023329     1.631238618936    -0.166600618511    15.994914619570
         O            1.266917023329    -0.853823381064    -0.527347618511    15.994914619570
         O            3.283905023329     0.117195618936    -1.680188618511    15.994914619570
         O            3.344908023329    -0.269023381064     0.919939381489    15.994914619570
         O           -0.970891776671     0.194054918936    -0.217550618511    15.994914619570
         O            0.109260023329    -1.055416381064     1.799869381489    15.994914619570
         O           -0.699086976671    -2.406139381064    -0.282730618511    15.994914619570
         O           -3.229233476671    -0.239860481064     1.056307281489    15.994914619570
         O           -2.696874976671     2.033075618936    -0.078269618511    15.994914619570
         O           -3.195415976671    -0.050813381064    -1.529705618511    15.994914619570
         C            1.437643023329     1.992555618936     1.122959381489    12.000000000000
         H            1.032920023329     1.126078618936     1.645538381489     1.007825032230
         H            2.218691023329     2.463615618936     1.727989381489     1.007825032230
         H            0.632042023329     2.706310618936     0.944150381489     1.007825032230

  Basis Set: AUG-CC-PVTZ
    Blend: AUG-CC-PVTZ
  Basis Set: (AUG-CC-PVTZ AUX)
    Blend: AUG-CC-PVTZ-JKFIT
	 Reference Energy          =   -1810.6882253576857238 [Eh]
	 Singles Energy            =      -0.0000000000000000 [Eh]
	 Same-Spin Energy          =      -0.9131445739526430 [Eh]
	 Opposite-Spin Energy      =      -2.5261588640999326 [Eh]
	 Correlation Energy        =      -3.4393034380525758 [Eh]
	 Total Energy              =   -1814.1275287957382716 [Eh]

	 ================> DF-SCS-MP2 Energies <==================
	-----------------------------------------------------------
	 SCS Same-Spin Scale       =       0.3333333333333333 [-]
	 SCS Opposite-Spin Scale   =       1.2000000000000000 [-]
	 SCS Same-Spin Energy      =      -0.3043815246508810 [Eh]
	 SCS Opposite-Spin Energy  =      -3.0313906369199191 [Eh]
	 SCS Correlation Energy    =      -3.3357721615707998 [Eh]
	 SCS Total Energy          =   -1814.0239975192564543 [Eh]
	-----------------------------------------------------------

  Dipole Moment: [D]
     X:     9.3401      Y:     2.2764      Z:     1.6485     Total:     9.7538

*** Psi4 exiting successfully. Buy a developer a beer!
