                               Psi4 1.4a3.dev225

  ==> Input File <==

--------------------------------------------------------------------------
#psi4
#
memory 32 gb

molecule  {
-4 1
  P       -2.5202440    -0.2449420     0.3712220
  P        0.3565170    -0.5960480    -0.3589090
  P        3.1750170     0.3881900     0.1554910
  O       -2.7927880     1.3311510    -0.1150520
  O       -0.9169740    -0.0836090     0.6422800
  O       -3.1856250    -0.4605710     1.7148300
  O       -2.8507450    -1.1694890    -0.7786080
  O        1.4898640     0.0841660     0.5723090
  O        0.2127210     0.0849480    -1.7048820
  O        0.4027150    -2.1095660    -0.2874290
  O        3.5327910    -0.6840640    -0.8835370
  O        3.1643710     1.8286230    -0.3742880
  O        3.8338960     0.2099350     1.5311200
  C       -4.1398760     1.5889580    -0.5252390
  H       -4.4159757     0.9610179    -1.3119294
  H       -4.8386320     1.4471050     0.3059850
  H       -4.1840730     2.6280350    -0.8559160
units angstrom
no_reorient  #important for SAPT in psi4, default
symmetry c1  #important for SAPT in psi4, default
}

set PROPERTIES_ORIGIN ["COM"]
properties('MP2/aug-cc-pvtz', properties = ['dipole'])
--------------------------------------------------------------------------

    Molecular point group: c1
  Charge       = -4
  Multiplicity = 1
  Basis Set: AUG-CC-PVTZ
    Blend: AUG-CC-PVTZ
  Basis Set: (AUG-CC-PVTZ AUX)
    Blend: AUG-CC-PVTZ-JKFIT

    Orbital Energies [Eh]
    ---------------------

    Doubly Occupied:

       1A    -79.580445     2A    -79.517096     3A    -79.475369
       4A    -20.117884     5A    -20.041566     6A    -20.014806
       7A    -20.004965     8A    -19.984174     9A    -19.936839
      10A    -19.935146    11A    -19.921909    12A    -19.916978
      13A    -19.913146    14A    -10.877182    15A     -7.094716
      16A     -7.030159    17A     -6.989126    18A     -4.993857
      19A     -4.992556    20A     -4.991653    21A     -4.929560
      22A     -4.927980    23A     -4.926839    24A     -4.888521
      25A     -4.886414    26A     -4.886285    27A     -0.930723
      28A     -0.853262    29A     -0.806852    30A     -0.777701
      31A     -0.761106    32A     -0.736400    33A     -0.705837
      34A     -0.686878    35A     -0.661915    36A     -0.657207
      37A     -0.533963    38A     -0.309398    39A     -0.253311
      40A     -0.225903    41A     -0.195988    42A     -0.165085
      43A     -0.140320    44A     -0.107980    45A     -0.094727
      46A     -0.079961    47A     -0.062930    48A     -0.051661
      49A     -0.035151    50A     -0.025957    51A     -0.012408
      52A     -0.009640    53A      0.009653    54A      0.011834
      55A      0.023084    56A      0.034542    57A      0.048297
      58A      0.054863    59A      0.062238    60A      0.081311
      61A      0.097534    62A      0.103428    63A      0.107157
      64A      0.108242    65A      0.124937    66A      0.135378
      67A      0.148059    68A      0.154433    69A      0.174592

  @DF-RHF Final Energy: -1810.67441354377911

   => Energetics <=

    Nuclear Repulsion Energy =           1425.8798553211061062
    One-Electron Energy =               -5426.7528330451568763
    Two-Electron Energy =                2190.1985641802712053
    Total Energy =                      -1810.6744135437793375
  Basis Set: (AUG-CC-PVTZ AUX)
    Blend: AUG-CC-PVTZ-RI
    Molecular point group: c1

    Geometry (in Angstrom), charge = -4, multiplicity = 1:

       Center              X                  Y                   Z               Mass
    ------------   -----------------  -----------------  -----------------  -----------------
         P           -2.573735410865    -0.224887238694     0.363440931355    30.973761998420
         P            0.303025589135    -0.575993238694    -0.366690068645    30.973761998420
         P            3.121525589135     0.408244761306     0.147709931355    30.973761998420
         O           -2.846279410865     1.351205761306    -0.122833068645    15.994914619570
         O           -0.970465410865    -0.063554238694     0.634498931355    15.994914619570
         O           -3.239116410865    -0.440516238694     1.707048931355    15.994914619570
         O           -2.904236410865    -1.149434238694    -0.786389068645    15.994914619570
         O            1.436372589135     0.104220761306     0.564527931355    15.994914619570
         O            0.159229589135     0.105002761306    -1.712663068645    15.994914619570
         O            0.349223589135    -2.089511238694    -0.295210068645    15.994914619570
         O            3.479299589135    -0.664009238694    -0.891318068645    15.994914619570
         O            3.110879589135     1.848677761306    -0.382069068645    15.994914619570
         O            3.780404589135     0.229989761306     1.523338931355    15.994914619570
         C           -4.193367410865     1.609012761306    -0.533020068645    12.000000000000
         H           -4.469467110865     0.981072661306    -1.319710468645     1.007825032230
         H           -4.892123410865     1.467159761306     0.298203931355     1.007825032230
         H           -4.237564410865     2.648089761306    -0.863697068645     1.007825032230

  Basis Set: AUG-CC-PVTZ
    Blend: AUG-CC-PVTZ
  Basis Set: (AUG-CC-PVTZ AUX)
    Blend: AUG-CC-PVTZ-JKFIT
	 Reference Energy          =   -1810.6744135437791101 [Eh]
	 Singles Energy            =      -0.0000000000000000 [Eh]
	 Same-Spin Energy          =      -0.9123069092488867 [Eh]
	 Opposite-Spin Energy      =      -2.5248869440770845 [Eh]
	 Correlation Energy        =      -3.4371938533259714 [Eh]
	 Total Energy              =   -1814.1116073971049900 [Eh]

	 ================> DF-SCS-MP2 Energies <==================
	-----------------------------------------------------------
	 SCS Same-Spin Scale       =       0.3333333333333333 [-]
	 SCS Opposite-Spin Scale   =       1.2000000000000000 [-]
	 SCS Same-Spin Energy      =      -0.3041023030829622 [Eh]
	 SCS Opposite-Spin Energy  =      -3.0298643328925015 [Eh]
	 SCS Correlation Energy    =      -3.3339666359754636 [Eh]
	 SCS Total Energy          =   -1814.0083801797545675 [Eh]
	-----------------------------------------------------------

  Dipole Moment: [D]
     X:   -15.0219      Y:     2.7178      Z:    -0.0332     Total:    15.2658

*** Psi4 exiting successfully. Buy a developer a beer!
