                               Psi4 1.3.2 release

  ==> Input File <==

--------------------------------------------------------------------------
#psi4
#
memory 32 gb

molecule  {
-4 1
  P        2.5828670     0.0826120    -0.3559070
  P       -0.1833470    -1.1435920     0.2927960
  P       -2.7088530     0.4754690    -0.2006980
  O        1.9534540     1.6068400    -0.1842610
  O        1.2509400    -0.8782220    -0.5450080
  O        3.2679280     0.0927970    -1.6978490
  O        3.3289310    -0.2934220     0.9022790
  O       -0.9881700     0.1612780    -0.2225170
  O        0.0932830    -1.0798150     1.7822090
  O       -0.7150640    -2.4305380    -0.3003910
  O       -3.2327710    -0.2685190     1.0414150
  O       -2.7128520     2.0086770    -0.0959300
  O       -3.2113930    -0.0752120    -1.5473660
  C        1.4216660     1.9681570     1.1052990
  H        1.0912175     1.2606953     1.5319747
  H        2.2027140     2.4392170     1.7103290
  H        0.6160650     2.6819120     0.9264900
units angstrom
no_reorient  #important for SAPT in psi4, default
symmetry c1  #important for SAPT in psi4, default
}

set PROPERTIES_ORIGIN ["COM"]
properties('MP2/aug-cc-pvtz', properties = ['dipole'])
--------------------------------------------------------------------------

    Molecular point group: c1
  Charge       = -4
  Multiplicity = 1
  Basis Set: AUG-CC-PVTZ
    Blend: AUG-CC-PVTZ
  Basis Set: (AUG-CC-PVTZ AUX)
    Blend: AUG-CC-PVTZ-JKFIT

    Orbital Energies [Eh]
    ---------------------

    Doubly Occupied:

       1A    -79.572496     2A    -79.525864     3A    -79.479664
       4A    -20.085098     5A    -20.037710     6A    -20.003161
       7A    -20.002488     8A    -19.992613     9A    -19.948371
      10A    -19.944490    11A    -19.923884    12A    -19.919017
      13A    -19.917108    14A    -10.793474    15A     -7.086311
      16A     -7.038795    17A     -6.993168    18A     -4.985263
      19A     -4.984314    20A     -4.983508    21A     -4.938080
      22A     -4.936689    23A     -4.935737    24A     -4.892628
      25A     -4.890446    26A     -4.890294    27A     -0.902610
      28A     -0.845444    29A     -0.806615    30A     -0.777833
      31A     -0.757730    32A     -0.741118    33A     -0.712916
      34A     -0.698177    35A     -0.663343    36A     -0.658818
      37A     -0.497358    38A     -0.297807    39A     -0.245420
      40A     -0.184594    41A     -0.180632    42A     -0.149640
      43A     -0.126256    44A     -0.098434    45A     -0.088395
      46A     -0.069963    47A     -0.052894    48A     -0.049768
      49A     -0.031832    50A     -0.015823    51A     -0.006806
      52A     -0.001910    53A      0.008852    54A      0.014967
      55A      0.021053    56A      0.037405    57A      0.047956
      58A      0.053422    59A      0.067471    60A      0.071057
      61A      0.091779    62A      0.100917    63A      0.102792
      64A      0.104233    65A      0.114673    66A      0.126128
      67A      0.144708    68A      0.150818    69A      0.172233

  @DF-RHF Final Energy: -1810.65418109014263

   => Energetics <=

    Nuclear Repulsion Energy =           1463.5066906969345837
    One-Electron Energy =               -5502.4570622263108817
    Two-Electron Energy =                2228.2961904392336692
    Total Energy =                      -1810.6541810901426288
  Basis Set: (AUG-CC-PVTZ AUX)
    Blend: AUG-CC-PVTZ-RI
    Molecular point group: c1

    Geometry (in Angstrom), charge = -4, multiplicity = 1:

       Center              X                  Y                   Z               Mass
    ------------   -----------------  -----------------  -----------------  -----------------
         P            2.597899575355     0.107166976841    -0.338809009886    30.973761998420
         P           -0.168314424645    -1.119037023159     0.309893990114    30.973761998420
         P           -2.693820424645     0.500023976841    -0.183600009886    30.973761998420
         O            1.968486575355     1.631394976841    -0.167163009886    15.994914619570
         O            1.265972575355    -0.853667023159    -0.527910009886    15.994914619570
         O            3.282960575355     0.117351976841    -1.680751009886    15.994914619570
         O            3.343963575355    -0.268867023159     0.919376990114    15.994914619570
         O           -0.973137424645     0.185832976841    -0.205419009886    15.994914619570
         O            0.108315575355    -1.055260023159     1.799306990114    15.994914619570
         O           -0.700031424645    -2.405983023159    -0.283293009886    15.994914619570
         O           -3.217738424645    -0.243964023159     1.058512990114    15.994914619570
         O           -2.697819424645     2.033231976841    -0.078832009886    15.994914619570
         O           -3.196360424645    -0.050657023159    -1.530268009886    15.994914619570
         C            1.436698575355     1.992711976841     1.122396990114    12.000000000000
         H            1.106250075355     1.285250276841     1.549072690114     1.007825032230
         H            2.217746575355     2.463771976841     1.727426990114     1.007825032230
         H            0.631097575355     2.706466976841     0.943587990114     1.007825032230

  Basis Set: AUG-CC-PVTZ
    Blend: AUG-CC-PVTZ
  Basis Set: (AUG-CC-PVTZ AUX)
    Blend: AUG-CC-PVTZ-JKFIT
	 Reference Energy          =   -1810.6541810901426288 [Eh]
	 Singles Energy            =      -0.0000000000000000 [Eh]
	 Same-Spin Energy          =      -0.9123290263130700 [Eh]
	 Opposite-Spin Energy      =      -2.5245153004379088 [Eh]
	 Correlation Energy        =      -3.4368443267509790 [Eh]
	 Total Energy              =   -1814.0910254168936717 [Eh]

	 ================> DF-SCS-MP2 Energies <==================
	-----------------------------------------------------------
	 SCS Same-Spin Scale       =       0.3333333333333333 [-]
	 SCS Opposite-Spin Scale   =       1.2000000000000000 [-]
	 SCS Same-Spin Energy      =      -0.3041096754376900 [Eh]
	 SCS Opposite-Spin Energy  =      -3.0294183605254905 [Eh]
	 SCS Correlation Energy    =      -3.3335280359631803 [Eh]
	 SCS Total Energy          =   -1813.9877091261057558 [Eh]
	-----------------------------------------------------------

  Dipole Moment: [D]
     X:     9.3231      Y:     2.4913      Z:     1.6308     Total:     9.7871

*** Psi4 exiting successfully. Buy a developer a beer!
