                               Psi4 1.3.2 release

  ==> Input File <==

--------------------------------------------------------------------------
#psi4
#
memory 32 gb

molecule  {
-4 1
  P        2.5828670     0.0826120    -0.3559070
  P       -0.1113935    -1.1059301     0.2688278
  P       -2.6920479     0.5568320    -0.2392304
  O        1.9534540     1.6068400    -0.1842610
  O        1.2509400    -0.8782220    -0.5450080
  O        3.2679280     0.0927970    -1.6978490
  O        3.3289310    -0.2934220     0.9022790
  O       -0.9881700     0.1612780    -0.2225170
  O        0.0932830    -1.0798150     1.7822090
  O       -0.7150640    -2.4305380    -0.3003910
  O       -3.2327710    -0.2685190     1.0414150
  O       -2.7128520     2.0086770    -0.0959300
  O       -3.2113930    -0.0752120    -1.5473660
  C        1.4216660     1.9681570     1.1052990
  H        1.0169430     1.1016800     1.6278780
  H        2.2027140     2.4392170     1.7103290
  H        0.6160650     2.6819120     0.9264900
units angstrom
no_reorient  #important for SAPT in psi4, default
symmetry c1  #important for SAPT in psi4, default
}

set PROPERTIES_ORIGIN ["COM"]
properties('MP2/aug-cc-pvtz', properties = ['dipole'])
--------------------------------------------------------------------------

    Molecular point group: c1
  Charge       = -4
  Multiplicity = 1
  Basis Set: AUG-CC-PVTZ
    Blend: AUG-CC-PVTZ
  Basis Set: (AUG-CC-PVTZ AUX)
    Blend: AUG-CC-PVTZ-JKFIT

    Orbital Energies [Eh]
    ---------------------

    Doubly Occupied:

       1A    -79.584809     2A    -79.526382     3A    -79.476914
       4A    -20.094552     5A    -20.058616     6A    -20.011806
       7A    -20.011736     8A    -19.986461     9A    -19.943956
      10A    -19.937231    11A    -19.929512    12A    -19.917322
      13A    -19.899138    14A    -10.817677    15A     -7.098654
      16A     -7.038512    17A     -6.991330    18A     -4.997585
      19A     -4.996737    20A     -4.995721    21A     -4.937990
      22A     -4.936521    23A     -4.935320    24A     -4.890677
      25A     -4.889074    26A     -4.887926    27A     -0.915612
      28A     -0.866493    29A     -0.809257    30A     -0.789517
      31A     -0.766620    32A     -0.746992    33A     -0.711478
      34A     -0.673866    35A     -0.671685    36A     -0.623189
      37A     -0.473724    38A     -0.316769    39A     -0.243092
      40A     -0.194647    41A     -0.172095    42A     -0.157268
      43A     -0.135462    44A     -0.102331    45A     -0.089701
      46A     -0.074361    47A     -0.058536    48A     -0.048915
      49A     -0.030677    50A     -0.017609    51A     -0.016540
      52A     -0.002827    53A      0.002523    54A      0.012350
      55A      0.027914    56A      0.028343    57A      0.044340
      58A      0.054311    59A      0.060158    60A      0.075314
      61A      0.087694    62A      0.099705    63A      0.107396
      64A      0.120087    65A      0.129901    66A      0.137250
      67A      0.148458    68A      0.170478    69A      0.184110

  @DF-RHF Final Energy: -1810.66685026318237

   => Energetics <=

    Nuclear Repulsion Energy =           1464.0200147315831600
    One-Electron Energy =               -5503.3515486888336454
    Two-Electron Energy =                2228.6646836940681169
    Total Energy =                      -1810.6668502631823685
  Basis Set: (AUG-CC-PVTZ AUX)
    Blend: AUG-CC-PVTZ-RI
    Molecular point group: c1

    Geometry (in Angstrom), charge = -4, multiplicity = 1:

       Center              X                  Y                   Z               Mass
    ------------   -----------------  -----------------  -----------------  -----------------
         P            2.587916772542     0.094003596754    -0.331943512341    30.973761998420
         P           -0.106343727458    -1.094538503246     0.292791287659    30.973761998420
         P           -2.686998127458     0.568223596754    -0.215266912341    30.973761998420
         O            1.958503772542     1.618231596754    -0.160297512341    15.994914619570
         O            1.255989772542    -0.866830403246    -0.521044512341    15.994914619570
         O            3.272977772542     0.104188596754    -1.673885512341    15.994914619570
         O            3.333980772542    -0.282030403246     0.926242487659    15.994914619570
         O           -0.983120227458     0.172669596754    -0.198553512341    15.994914619570
         O            0.098332772542    -1.068423403246     1.806172487659    15.994914619570
         O           -0.710014227458    -2.419146403246    -0.276427512341    15.994914619570
         O           -3.227721227458    -0.257127403246     1.065378487659    15.994914619570
         O           -2.707802227458     2.020068596754    -0.071966512341    15.994914619570
         O           -3.206343227458    -0.063820403246    -1.523402512341    15.994914619570
         C            1.426715772542     1.979548596754     1.129262487659    12.000000000000
         H            1.021992772542     1.113071596754     1.651841487659     1.007825032230
         H            2.207763772542     2.450608596754     1.734292487659     1.007825032230
         H            0.621114772542     2.693303596754     0.950453487659     1.007825032230

  Basis Set: AUG-CC-PVTZ
    Blend: AUG-CC-PVTZ
  Basis Set: (AUG-CC-PVTZ AUX)
    Blend: AUG-CC-PVTZ-JKFIT
	 Reference Energy          =   -1810.6668502631823685 [Eh]
	 Singles Energy            =      -0.0000000000000000 [Eh]
	 Same-Spin Energy          =      -0.9136331746554618 [Eh]
	 Opposite-Spin Energy      =      -2.5269826135897362 [Eh]
	 Correlation Energy        =      -3.4406157882451982 [Eh]
	 Total Energy              =   -1814.1074660514275365 [Eh]

	 ================> DF-SCS-MP2 Energies <==================
	-----------------------------------------------------------
	 SCS Same-Spin Scale       =       0.3333333333333333 [-]
	 SCS Opposite-Spin Scale   =       1.2000000000000000 [-]
	 SCS Same-Spin Energy      =      -0.3045443915518206 [Eh]
	 SCS Opposite-Spin Energy  =      -3.0323791363076835 [Eh]
	 SCS Correlation Energy    =      -3.3369235278595042 [Eh]
	 SCS Total Energy          =   -1814.0037737910417945 [Eh]
	-----------------------------------------------------------

  Dipole Moment: [D]
     X:    10.6670      Y:     4.0584      Z:     0.8700     Total:    11.4461

*** Psi4 exiting successfully. Buy a developer a beer!
