                               Psi4 1.3.2 release

  ==> Input File <==

--------------------------------------------------------------------------
#psi4
#
memory 32 gb

molecule  {
-4 1
  P        2.5828670     0.0826120    -0.3559070
  P       -0.1833470    -1.1435920     0.2927960
  P       -2.7088530     0.4754690    -0.2006980
  O        1.9534540     1.6068400    -0.1842610
  O        1.2509400    -0.8782220    -0.5450080
  O        3.2679280     0.0927970    -1.6978490
  O        3.3289310    -0.2934220     0.9022790
  O       -0.9881700     0.1612780    -0.2225170
  O        0.0932830    -1.0798150     1.7822090
  O       -0.7150640    -2.4305380    -0.3003910
  O       -3.2466214    -0.2850496     1.0253809
  O       -2.7128520     2.0086770    -0.0959300
  O       -3.2254781    -0.0939153    -1.5341937
  C        1.4216660     1.9681570     1.1052990
  H        1.0169430     1.1016800     1.6278780
  H        2.2027140     2.4392170     1.7103290
  H        0.6160650     2.6819120     0.9264900
units angstrom
no_reorient  #important for SAPT in psi4, default
symmetry c1  #important for SAPT in psi4, default
}

set PROPERTIES_ORIGIN ["COM"]
properties('MP2/aug-cc-pvtz', properties = ['dipole'])
--------------------------------------------------------------------------

    Molecular point group: c1
  Charge       = -4
  Multiplicity = 1
  Basis Set: AUG-CC-PVTZ
    Blend: AUG-CC-PVTZ
  Basis Set: (AUG-CC-PVTZ AUX)
    Blend: AUG-CC-PVTZ-JKFIT

    Orbital Energies [Eh]
    ---------------------

    Doubly Occupied:

       1A    -79.572856     2A    -79.527268     3A    -79.479785
       4A    -20.086049     5A    -20.038635     6A    -20.003116
       7A    -20.002821     8A    -19.994035     9A    -19.950485
      10A    -19.945145    11A    -19.926089    12A    -19.917522
      13A    -19.915682    14A    -10.812158    15A     -7.086681
      16A     -7.040200    17A     -6.993287    18A     -4.985632
      19A     -4.984685    20A     -4.983866    21A     -4.939475
      22A     -4.938094    23A     -4.937153    24A     -4.892732
      25A     -4.890512    26A     -4.890469    27A     -0.902304
      28A     -0.846044    29A     -0.807037    30A     -0.778318
      31A     -0.757888    32A     -0.742182    33A     -0.713979
      34A     -0.699704    35A     -0.665013    36A     -0.656447
      37A     -0.467263    38A     -0.294201    39A     -0.235120
      40A     -0.184555    41A     -0.164436    42A     -0.149216
      43A     -0.126254    44A     -0.099081    45A     -0.083105
      46A     -0.065097    47A     -0.052285    48A     -0.044417
      49A     -0.032131    50A     -0.016560    51A     -0.006964
      52A      0.000518    53A      0.009284    54A      0.014373
      55A      0.021567    56A      0.037154    57A      0.047200
      58A      0.053216    59A      0.066793    60A      0.070680
      61A      0.090763    62A      0.100744    63A      0.101737
      64A      0.104389    65A      0.113931    66A      0.125290
      67A      0.143729    68A      0.151779    69A      0.173001

  @DF-RHF Final Energy: -1810.68880028107628

   => Energetics <=

    Nuclear Repulsion Energy =           1462.7027020883278965
    One-Electron Energy =               -5500.9872373041953324
    Two-Electron Energy =                2227.5957349347913805
    Total Energy =                      -1810.6888002810760554
  Basis Set: (AUG-CC-PVTZ AUX)
    Blend: AUG-CC-PVTZ-RI
    Molecular point group: c1

    Geometry (in Angstrom), charge = -4, multiplicity = 1:

       Center              X                  Y                   Z               Mass
    ------------   -----------------  -----------------  -----------------  -----------------
         P            2.599846919522     0.109868877863    -0.338998933951    30.973761998420
         P           -0.166367080478    -1.116335122137     0.309704066049    30.973761998420
         P           -2.691873080478     0.502725877863    -0.183789933951    30.973761998420
         O            1.970433919522     1.634096877863    -0.167352933951    15.994914619570
         O            1.267919919522    -0.850965122137    -0.528099933951    15.994914619570
         O            3.284907919522     0.120053877863    -1.680940933951    15.994914619570
         O            3.345910919522    -0.266165122137     0.919187066049    15.994914619570
         O           -0.971190080478     0.188534877863    -0.205608933951    15.994914619570
         O            0.110262919522    -1.052558122137     1.799117066049    15.994914619570
         O           -0.698084080478    -2.403281122137    -0.283482933951    15.994914619570
         O           -3.229641480478    -0.257792722137     1.042288966049    15.994914619570
         O           -2.695872080478     2.035933877863    -0.079021933951    15.994914619570
         O           -3.208498180478    -0.066658422137    -1.517285633951    15.994914619570
         C            1.438645919522     1.995413877863     1.122207066049    12.000000000000
         H            1.033922919522     1.128936877863     1.644786066049     1.007825032230
         H            2.219693919522     2.466473877863     1.727237066049     1.007825032230
         H            0.633044919522     2.709168877863     0.943398066049     1.007825032230

  Basis Set: AUG-CC-PVTZ
    Blend: AUG-CC-PVTZ
  Basis Set: (AUG-CC-PVTZ AUX)
    Blend: AUG-CC-PVTZ-JKFIT
	 Reference Energy          =   -1810.6888002810762828 [Eh]
	 Singles Energy            =      -0.0000000000000000 [Eh]
	 Same-Spin Energy          =      -0.9129962087364054 [Eh]
	 Opposite-Spin Energy      =      -2.5257460440546562 [Eh]
	 Correlation Energy        =      -3.4387422527910614 [Eh]
	 Total Energy              =   -1814.1275425338674268 [Eh]

	 ================> DF-SCS-MP2 Energies <==================
	-----------------------------------------------------------
	 SCS Same-Spin Scale       =       0.3333333333333333 [-]
	 SCS Opposite-Spin Scale   =       1.2000000000000000 [-]
	 SCS Same-Spin Energy      =      -0.3043320695788018 [Eh]
	 SCS Opposite-Spin Energy  =      -3.0308952528655873 [Eh]
	 SCS Correlation Energy    =      -3.3352273224443891 [Eh]
	 SCS Total Energy          =   -1814.0240276035206080 [Eh]
	-----------------------------------------------------------

  Dipole Moment: [D]
     X:     9.3371      Y:     2.4257      Z:     1.6181     Total:     9.7818

*** Psi4 exiting successfully. Buy a developer a beer!
