                               Psi4 1.3.2 release

  ==> Input File <==

--------------------------------------------------------------------------
#psi4
#
memory 32 gb

molecule  {
-4 1
  P        2.5828670     0.0826120    -0.3559070
  P       -0.1833470    -1.1435920     0.2927960
  P       -2.7088530     0.4754690    -0.2006980
  O        1.9534540     1.6068400    -0.1842610
  O        1.2509400    -0.8782220    -0.5450080
  O        3.2679280     0.0927970    -1.6978490
  O        3.3289310    -0.2934220     0.9022790
  O       -0.9881700     0.1612780    -0.2225170
  O        0.0567937    -1.0882276     1.5857459
  O       -0.7150640    -2.4305380    -0.3003910
  O       -3.2327710    -0.2685190     1.0414150
  O       -2.7128520     2.0086770    -0.0959300
  O       -3.2113930    -0.0752120    -1.5473660
  C        1.4216660     1.9681570     1.1052990
  H        1.0169430     1.1016800     1.6278780
  H        2.2027140     2.4392170     1.7103290
  H        0.6160650     2.6819120     0.9264900
units angstrom
no_reorient  #important for SAPT in psi4, default
symmetry c1  #important for SAPT in psi4, default
}

set PROPERTIES_ORIGIN ["COM"]
properties('MP2/aug-cc-pvtz', properties = ['dipole'])
--------------------------------------------------------------------------

    Molecular point group: c1
  Charge       = -4
  Multiplicity = 1
  Basis Set: AUG-CC-PVTZ
    Blend: AUG-CC-PVTZ
  Basis Set: (AUG-CC-PVTZ AUX)
    Blend: AUG-CC-PVTZ-JKFIT

    Orbital Energies [Eh]
    ---------------------

    Doubly Occupied:

       1A    -79.568731     2A    -79.479068     3A    -79.474505
       4A    -20.084470     5A    -20.024022     6A    -20.002401
       7A    -19.999021     8A    -19.976832     9A    -19.938834
      10A    -19.926216    11A    -19.919842    12A    -19.914435
      13A    -19.913907    14A    -10.814173    15A     -7.082536
      16A     -7.005305    17A     -6.987911    18A     -4.981514
      19A     -4.980475    20A     -4.979796    21A     -4.905528
      22A     -4.902266    23A     -4.900764    24A     -4.887296
      25A     -4.885271    26A     -4.885115    27A     -0.900524
      28A     -0.864169    29A     -0.813920    30A     -0.775728
      31A     -0.769920    32A     -0.755506    33A     -0.714707
      34A     -0.692274    35A     -0.659407    36A     -0.654858
      37A     -0.467993    38A     -0.284259    39A     -0.228351
      40A     -0.180370    41A     -0.164118    42A     -0.148068
      43A     -0.124219    44A     -0.099518    45A     -0.081015
      46A     -0.067460    47A     -0.055131    48A     -0.045611
      49A     -0.036422    50A     -0.015075    51A     -0.005320
      52A     -0.000381    53A      0.012307    54A      0.014698
      55A      0.017625    56A      0.034464    57A      0.048086
      58A      0.051837    59A      0.059861    60A      0.067773
      61A      0.084692    62A      0.103357    63A      0.106032
      64A      0.109559    65A      0.120864    66A      0.129561
      67A      0.149055    68A      0.156198    69A      0.175998

  @DF-RHF Final Energy: -1810.64666897065968

   => Energetics <=

    Nuclear Repulsion Energy =           1473.8797419149066172
    One-Electron Energy =               -5523.8876430744130630
    Two-Electron Energy =                2239.3612321888463157
    Total Energy =                      -1810.6466689706599027
  Basis Set: (AUG-CC-PVTZ AUX)
    Blend: AUG-CC-PVTZ-RI
    Molecular point group: c1

    Geometry (in Angstrom), charge = -4, multiplicity = 1:

       Center              X                  Y                   Z               Mass
    ------------   -----------------  -----------------  -----------------  -----------------
         P            2.600357634014     0.108267481222    -0.327439745110    30.973761998420
         P           -0.165856365986    -1.117936518778     0.321263254890    30.973761998420
         P           -2.691362365986     0.501124481222    -0.172230745110    30.973761998420
         O            1.970944634014     1.632495481222    -0.155793745110    15.994914619570
         O            1.268430634014    -0.852566518778    -0.516540745110    15.994914619570
         O            3.285418634014     0.118452481222    -1.669381745110    15.994914619570
         O            3.346421634014    -0.267766518778     0.930746254890    15.994914619570
         O           -0.970679365986     0.186933481222    -0.194049745110    15.994914619570
         O            0.074284334014    -1.062572118778     1.614213154890    15.994914619570
         O           -0.697573365986    -2.404882518778    -0.271923745110    15.994914619570
         O           -3.215280365986    -0.242863518778     1.069882254890    15.994914619570
         O           -2.695361365986     2.034332481222    -0.067462745110    15.994914619570
         O           -3.193902365986    -0.049556518778    -1.518898745110    15.994914619570
         C            1.439156634014     1.993812481222     1.133766254890    12.000000000000
         H            1.034433634014     1.127335481222     1.656345254890     1.007825032230
         H            2.220204634014     2.464872481222     1.738796254890     1.007825032230
         H            0.633555634014     2.707567481222     0.954957254890     1.007825032230

  Basis Set: AUG-CC-PVTZ
    Blend: AUG-CC-PVTZ
  Basis Set: (AUG-CC-PVTZ AUX)
    Blend: AUG-CC-PVTZ-JKFIT
	 Reference Energy          =   -1810.6466689706596753 [Eh]
	 Singles Energy            =      -0.0000000000000000 [Eh]
	 Same-Spin Energy          =      -0.9090980662852058 [Eh]
	 Opposite-Spin Energy      =      -2.5162423566753835 [Eh]
	 Correlation Energy        =      -3.4253404229605895 [Eh]
	 Total Energy              =   -1814.0720093936201920 [Eh]

	 ================> DF-SCS-MP2 Energies <==================
	-----------------------------------------------------------
	 SCS Same-Spin Scale       =       0.3333333333333333 [-]
	 SCS Opposite-Spin Scale   =       1.2000000000000000 [-]
	 SCS Same-Spin Energy      =      -0.3030326887617353 [Eh]
	 SCS Opposite-Spin Energy  =      -3.0194908280104600 [Eh]
	 SCS Correlation Energy    =      -3.3225235167721952 [Eh]
	 SCS Total Energy          =   -1813.9691924874318829 [Eh]
	-----------------------------------------------------------

  Dipole Moment: [D]
     X:     9.5592      Y:     2.2977      Z:     2.6985     Total:    10.1950

*** Psi4 exiting successfully. Buy a developer a beer!
