                               Psi4 1.3.2 release

  ==> Input File <==

--------------------------------------------------------------------------
#psi4
#
memory 32 gb

molecule  {
-4 1
  P        2.5828670     0.0826120    -0.3559070
  P       -0.1833470    -1.1435920     0.2927960
  P       -2.7088530     0.4754690    -0.2006980
  O        1.9534540     1.6068400    -0.1842610
  O        1.2509400    -0.8782220    -0.5450080
  O        3.2679280     0.0927970    -1.6978490
  O        3.3289310    -0.2934220     0.9022790
  O       -0.9987247     0.1115327    -0.1463521
  O        0.0932830    -1.0798150     1.7822090
  O       -0.7150640    -2.4305380    -0.3003910
  O       -3.1573295    -0.2928773     1.0560302
  O       -2.7128520     2.0086770    -0.0959300
  O       -3.2113930    -0.0752120    -1.5473660
  C        1.4216660     1.9681570     1.1052990
  H        1.0169430     1.1016800     1.6278780
  H        2.2027140     2.4392170     1.7103290
  H        0.6160650     2.6819120     0.9264900
units angstrom
no_reorient  #important for SAPT in psi4, default
symmetry c1  #important for SAPT in psi4, default
}

set PROPERTIES_ORIGIN ["COM"]
properties('MP2/aug-cc-pvtz', properties = ['dipole'])
--------------------------------------------------------------------------

    Molecular point group: c1
  Charge       = -4
  Multiplicity = 1
  Basis Set: AUG-CC-PVTZ
    Blend: AUG-CC-PVTZ
  Basis Set: (AUG-CC-PVTZ AUX)
    Blend: AUG-CC-PVTZ-JKFIT

    Orbital Energies [Eh]
    ---------------------

    Doubly Occupied:

       1A    -79.570820     2A    -79.516061     3A    -79.484264
       4A    -20.084750     5A    -20.035236     6A    -20.001275
       7A    -20.000982     8A    -19.986584     9A    -19.939190
      10A    -19.937834    11A    -19.930659    12A    -19.926113
      13A    -19.914669    14A    -10.810572    15A     -7.084644
      16A     -7.030098    17A     -6.997581    18A     -4.983602
      19A     -4.982638    20A     -4.981835    21A     -4.929259
      22A     -4.928285    23A     -4.926972    24A     -4.897204
      25A     -4.894840    26A     -4.894568    27A     -0.900737
      28A     -0.846814    29A     -0.810656    30A     -0.778746
      31A     -0.755999    32A     -0.740134    33A     -0.713368
      34A     -0.691847    35A     -0.668612    36A     -0.660936
      37A     -0.465773    38A     -0.292363    39A     -0.237295
      40A     -0.188395    41A     -0.164376    42A     -0.148210
      43A     -0.123331    44A     -0.095721    45A     -0.081210
      46A     -0.065696    47A     -0.052205    48A     -0.043393
      49A     -0.033381    50A     -0.016033    51A     -0.006198
      52A      0.001326    53A      0.010619    54A      0.015398
      55A      0.022714    56A      0.038248    57A      0.049110
      58A      0.055403    59A      0.070292    60A      0.074592
      61A      0.091486    62A      0.098487    63A      0.100557
      64A      0.105653    65A      0.119570    66A      0.130721
      67A      0.142812    68A      0.150141    69A      0.168475

  @DF-RHF Final Energy: -1810.68821761774348

   => Energetics <=

    Nuclear Repulsion Energy =           1466.2388557515814682
    One-Electron Energy =               -5508.2414161278575193
    Two-Electron Energy =                2231.3143427585328027
    Total Energy =                      -1810.6882176177432484
  Basis Set: (AUG-CC-PVTZ AUX)
    Blend: AUG-CC-PVTZ-RI
    Molecular point group: c1

    Geometry (in Angstrom), charge = -4, multiplicity = 1:

       Center              X                  Y                   Z               Mass
    ------------   -----------------  -----------------  -----------------  -----------------
         P            2.594304857076     0.112189638119    -0.344589931560    30.973761998420
         P           -0.171909142924    -1.114014361881     0.304113068440    30.973761998420
         P           -2.697415142924     0.505046638119    -0.189380931560    30.973761998420
         O            1.964891857076     1.636417638119    -0.172943931560    15.994914619570
         O            1.262377857076    -0.848644361881    -0.533690931560    15.994914619570
         O            3.279365857076     0.122374638119    -1.686531931560    15.994914619570
         O            3.340368857076    -0.263844361881     0.913596068440    15.994914619570
         O           -0.987286842924     0.141110338119    -0.135035031560    15.994914619570
         O            0.104720857076    -1.050237361881     1.793526068440    15.994914619570
         O           -0.703626142924    -2.400960361881    -0.289073931560    15.994914619570
         O           -3.145891642924    -0.263299661881     1.067347268440    15.994914619570
         O           -2.701414142924     2.038254638119    -0.084612931560    15.994914619570
         O           -3.199955142924    -0.045634361881    -1.536048931560    15.994914619570
         C            1.433103857076     1.997734638119     1.116616068440    12.000000000000
         H            1.028380857076     1.131257638119     1.639195068440     1.007825032230
         H            2.214151857076     2.468794638119     1.721646068440     1.007825032230
         H            0.627502857076     2.711489638119     0.937807068440     1.007825032230

  Basis Set: AUG-CC-PVTZ
    Blend: AUG-CC-PVTZ
  Basis Set: (AUG-CC-PVTZ AUX)
    Blend: AUG-CC-PVTZ-JKFIT
	 Reference Energy          =   -1810.6882176177434758 [Eh]
	 Singles Energy            =      -0.0000000000000000 [Eh]
	 Same-Spin Energy          =      -0.9124382046772163 [Eh]
	 Opposite-Spin Energy      =      -2.5239450151498177 [Eh]
	 Correlation Energy        =      -3.4363832198270341 [Eh]
	 Total Energy              =   -1814.1246008375705969 [Eh]

	 ================> DF-SCS-MP2 Energies <==================
	-----------------------------------------------------------
	 SCS Same-Spin Scale       =       0.3333333333333333 [-]
	 SCS Opposite-Spin Scale   =       1.2000000000000000 [-]
	 SCS Same-Spin Energy      =      -0.3041460682257388 [Eh]
	 SCS Opposite-Spin Energy  =      -3.0287340181797813 [Eh]
	 SCS Correlation Energy    =      -3.3328800864055199 [Eh]
	 SCS Total Energy          =   -1814.0210977041490423 [Eh]
	-----------------------------------------------------------

  Dipole Moment: [D]
     X:     8.7624      Y:     2.7093      Z:     1.3691     Total:     9.2733

*** Psi4 exiting successfully. Buy a developer a beer!
