                               Psi4 1.3.2 release

  ==> Input File <==

--------------------------------------------------------------------------
#psi4
#
memory 32 gb

molecule  {
-4 1
  P        2.5828670     0.0826120    -0.3559070
  P       -0.1833470    -1.1435920     0.2927960
  P       -2.7088530     0.4754690    -0.2006980
  O        1.9534540     1.6068400    -0.1842610
  O        1.2509400    -0.8782220    -0.5450080
  O        3.2679280     0.0927970    -1.6978490
  O        3.3289310    -0.2934220     0.9022790
  O       -0.9881700     0.1612780    -0.2225170
  O        0.0932830    -1.0798150     1.7822090
  O       -0.7150640    -2.4305380    -0.3003910
  O       -3.1647190    -0.1718820     0.8800762
  O       -2.7128520     2.0086770    -0.0959300
  O       -3.2113930    -0.0752120    -1.5473660
  C        1.4216660     1.9681570     1.1052990
  H        1.0169430     1.1016800     1.6278780
  H        2.2027140     2.4392170     1.7103290
  H        0.6160650     2.6819120     0.9264900
units angstrom
no_reorient  #important for SAPT in psi4, default
symmetry c1  #important for SAPT in psi4, default
}

set PROPERTIES_ORIGIN ["COM"]
properties('MP2/aug-cc-pvtz', properties = ['dipole'])
--------------------------------------------------------------------------

    Molecular point group: c1
  Charge       = -4
  Multiplicity = 1
  Basis Set: AUG-CC-PVTZ
    Blend: AUG-CC-PVTZ
  Basis Set: (AUG-CC-PVTZ AUX)
    Blend: AUG-CC-PVTZ-JKFIT

    Orbital Energies [Eh]
    ---------------------

    Doubly Occupied:

       1A    -79.569967     2A    -79.522815     3A    -79.433888
       4A    -20.082763     5A    -20.034716     6A    -20.000765
       7A    -20.000122     8A    -19.978438     9A    -19.949419
      10A    -19.943302    11A    -19.905918    12A    -19.904051
      13A    -19.900669    14A    -10.809066    15A     -7.083775
      16A     -7.035762    17A     -6.959127    18A     -4.982722
      19A     -4.981777    20A     -4.980978    21A     -4.935075
      22A     -4.933564    23A     -4.932810    24A     -4.859045
      25A     -4.856533    26A     -4.854476    27A     -0.898969
      28A     -0.842683    29A     -0.815161    30A     -0.791470
      31A     -0.755859    32A     -0.753556    33A     -0.721277
      34A     -0.698189    35A     -0.673743    36A     -0.646403
      37A     -0.464086    38A     -0.289770    39A     -0.229200
      40A     -0.177140    41A     -0.159928    42A     -0.145645
      43A     -0.122656    44A     -0.093896    45A     -0.079394
      46A     -0.066300    47A     -0.049431    48A     -0.040996
      49A     -0.030687    50A     -0.021550    51A     -0.008685
      52A     -0.003273    53A      0.006195    54A      0.015636
      55A      0.019057    56A      0.039812    57A      0.049164
      58A      0.055684    59A      0.068577    60A      0.072675
      61A      0.086043    62A      0.094109    63A      0.098442
      64A      0.111600    65A      0.114318    66A      0.127643
      67A      0.141759    68A      0.161652    69A      0.181341

  @DF-RHF Final Energy: -1810.65374731793599

   => Energetics <=

    Nuclear Repulsion Energy =           1472.9667561493990888
    One-Electron Energy =               -5522.1054453659207866
    Two-Electron Energy =                2238.4849418985859302
    Total Energy =                      -1810.6537473179359949
  Basis Set: (AUG-CC-PVTZ AUX)
    Blend: AUG-CC-PVTZ-RI
    Molecular point group: c1

    Geometry (in Angstrom), charge = -4, multiplicity = 1:

       Center              X                  Y                   Z               Mass
    ------------   -----------------  -----------------  -----------------  -----------------
         P            2.594115875160     0.101995373730    -0.329536881940    30.973761998420
         P           -0.172098124840    -1.124208626270     0.319166118060    30.973761998420
         P           -2.697604124840     0.494852373730    -0.174327881940    30.973761998420
         O            1.964702875160     1.626223373730    -0.157890881940    15.994914619570
         O            1.262188875160    -0.858838626270    -0.518637881940    15.994914619570
         O            3.279176875160     0.112180373730    -1.671478881940    15.994914619570
         O            3.340179875160    -0.274038626270     0.928649118060    15.994914619570
         O           -0.976921124840     0.180661373730    -0.196146881940    15.994914619570
         O            0.104531875160    -1.060431626270     1.808579118060    15.994914619570
         O           -0.703815124840    -2.411154626270    -0.274020881940    15.994914619570
         O           -3.153470124840    -0.152498626270     0.906446318060    15.994914619570
         O           -2.701603124840     2.028060373730    -0.069559881940    15.994914619570
         O           -3.200144124840    -0.055828626270    -1.520995881940    15.994914619570
         C            1.432914875160     1.987540373730     1.131669118060    12.000000000000
         H            1.028191875160     1.121063373730     1.654248118060     1.007825032230
         H            2.213962875160     2.458600373730     1.736699118060     1.007825032230
         H            0.627313875160     2.701295373730     0.952860118060     1.007825032230

  Basis Set: AUG-CC-PVTZ
    Blend: AUG-CC-PVTZ
  Basis Set: (AUG-CC-PVTZ AUX)
    Blend: AUG-CC-PVTZ-JKFIT
	 Reference Energy          =   -1810.6537473179359949 [Eh]
	 Singles Energy            =      -0.0000000000000000 [Eh]
	 Same-Spin Energy          =      -0.9094963936711276 [Eh]
	 Opposite-Spin Energy      =      -2.5167749802958381 [Eh]
	 Correlation Energy        =      -3.4262713739669657 [Eh]
	 Total Energy              =   -1814.0800186919029784 [Eh]

	 ================> DF-SCS-MP2 Energies <==================
	-----------------------------------------------------------
	 SCS Same-Spin Scale       =       0.3333333333333333 [-]
	 SCS Opposite-Spin Scale   =       1.2000000000000000 [-]
	 SCS Same-Spin Energy      =      -0.3031654645570425 [Eh]
	 SCS Opposite-Spin Energy  =      -3.0201299763550056 [Eh]
	 SCS Correlation Energy    =      -3.3232954409120481 [Eh]
	 SCS Total Energy          =   -1813.9770427588480288 [Eh]
	-----------------------------------------------------------

  Dipole Moment: [D]
     X:     8.5921      Y:     1.7669      Z:     2.6802     Total:     9.1722

*** Psi4 exiting successfully. Buy a developer a beer!
