                               Psi4 1.3.2 release

  ==> Input File <==

--------------------------------------------------------------------------
#psi4
#
memory 32 gb

molecule  {
-4 1
  P        2.5828670     0.0826120    -0.3559070
  P       -0.1833470    -1.1435920     0.2927960
  P       -2.7088530     0.4754690    -0.2006980
  O        1.9534540     1.6068400    -0.1842610
  O        1.2509400    -0.8782220    -0.5450080
  O        3.2679280     0.0927970    -1.6978490
  O        3.3289310    -0.2934220     0.9022790
  O       -0.9896022     0.1529236    -0.2098214
  O        0.0932830    -1.0798150     1.7822090
  O       -0.7150640    -2.4305380    -0.3003910
  O       -3.2202916    -0.2727222     1.0440885
  O       -2.7128520     2.0086770    -0.0959300
  O       -3.2113930    -0.0752120    -1.5473660
  C        1.4216660     1.9681570     1.1052990
  H        1.0169430     1.1016800     1.6278780
  H        2.2027140     2.4392170     1.7103290
  H        0.6160650     2.6819120     0.9264900
units angstrom
no_reorient  #important for SAPT in psi4, default
symmetry c1  #important for SAPT in psi4, default
}

set PROPERTIES_ORIGIN ["COM"]
properties('MP2/aug-cc-pvtz', properties = ['dipole'])
--------------------------------------------------------------------------

    Molecular point group: c1
  Charge       = -4
  Multiplicity = 1
  Basis Set: AUG-CC-PVTZ
    Blend: AUG-CC-PVTZ
  Basis Set: (AUG-CC-PVTZ AUX)
    Blend: AUG-CC-PVTZ-JKFIT

    Orbital Energies [Eh]
    ---------------------

    Doubly Occupied:

       1A    -79.572257     2A    -79.525144     3A    -79.480591
       4A    -20.085491     5A    -20.037770     6A    -20.002523
       7A    -20.002328     8A    -19.991959     9A    -19.948294
      10A    -19.944000    11A    -19.925042    12A    -19.920356
      13A    -19.916947    14A    -10.811503    15A     -7.086080
      16A     -7.038242    17A     -6.994059    18A     -4.985032
      19A     -4.984083    20A     -4.983267    21A     -4.937504
      22A     -4.936177    23A     -4.935192    24A     -4.893547
      25A     -4.891330    26A     -4.891167    27A     -0.901718
      28A     -0.845734    29A     -0.807276    30A     -0.778237
      31A     -0.757336    32A     -0.741499    33A     -0.713757
      34A     -0.698333    35A     -0.664242    36A     -0.659490
      37A     -0.466633    38A     -0.293569    39A     -0.235018
      40A     -0.184810    41A     -0.164114    42A     -0.148694
      43A     -0.125520    44A     -0.098369    45A     -0.082548
      46A     -0.065052    47A     -0.051928    48A     -0.043965
      49A     -0.032136    50A     -0.016174    51A     -0.006563
      52A      0.000313    53A      0.009884    54A      0.014918
      55A      0.021786    56A      0.037506    57A      0.047614
      58A      0.053829    59A      0.067645    60A      0.071485
      61A      0.091551    62A      0.100209    63A      0.101975
      64A      0.103842    65A      0.114749    66A      0.126336
      67A      0.144175    68A      0.150102    69A      0.171430

  @DF-RHF Final Energy: -1810.68951554995692

   => Energetics <=

    Nuclear Repulsion Energy =           1463.4753407360433357
    One-Electron Energy =               -5502.5832117739801106
    Two-Electron Energy =                2228.4183554879800795
    Total Energy =                      -1810.6895155499569228
  Basis Set: (AUG-CC-PVTZ AUX)
    Blend: AUG-CC-PVTZ-RI
    Molecular point group: c1

    Geometry (in Angstrom), charge = -4, multiplicity = 1:

       Center              X                  Y                   Z               Mass
    ------------   -----------------  -----------------  -----------------  -----------------
         P            2.597519412471     0.108514963226    -0.340087430856    30.973761998420
         P           -0.168694587529    -1.117689036774     0.308615569144    30.973761998420
         P           -2.694200587529     0.501371963226    -0.184878430856    30.973761998420
         O            1.968106412471     1.632742963226    -0.168441430856    15.994914619570
         O            1.265592412471    -0.852319036774    -0.529188430856    15.994914619570
         O            3.282580412471     0.118699963226    -1.682029430856    15.994914619570
         O            3.343583412471    -0.267519036774     0.918098569144    15.994914619570
         O           -0.974949787529     0.178826563226    -0.194001830856    15.994914619570
         O            0.107935412471    -1.053912036774     1.798028569144    15.994914619570
         O           -0.700411587529    -2.404635036774    -0.284571430856    15.994914619570
         O           -3.205639187529    -0.246819236774     1.059908069144    15.994914619570
         O           -2.698199587529     2.034579963226    -0.080110430856    15.994914619570
         O           -3.196740587529    -0.049309036774    -1.531546430856    15.994914619570
         C            1.436318412471     1.994059963226     1.121118569144    12.000000000000
         H            1.031595412471     1.127582963226     1.643697569144     1.007825032230
         H            2.217366412471     2.465119963226     1.726148569144     1.007825032230
         H            0.630717412471     2.707814963226     0.942309569144     1.007825032230

  Basis Set: AUG-CC-PVTZ
    Blend: AUG-CC-PVTZ
  Basis Set: (AUG-CC-PVTZ AUX)
    Blend: AUG-CC-PVTZ-JKFIT
	 Reference Energy          =   -1810.6895155499569228 [Eh]
	 Singles Energy            =      -0.0000000000000000 [Eh]
	 Same-Spin Energy          =      -0.9128815168165270 [Eh]
	 Opposite-Spin Energy      =      -2.5253951961601886 [Eh]
	 Correlation Energy        =      -3.4382767129767156 [Eh]
	 Total Energy              =   -1814.1277922629335535 [Eh]

	 ================> DF-SCS-MP2 Energies <==================
	-----------------------------------------------------------
	 SCS Same-Spin Scale       =       0.3333333333333333 [-]
	 SCS Opposite-Spin Scale   =       1.2000000000000000 [-]
	 SCS Same-Spin Energy      =      -0.3042938389388423 [Eh]
	 SCS Opposite-Spin Energy  =      -3.0304742353922260 [Eh]
	 SCS Correlation Energy    =      -3.3347680743310684 [Eh]
	 SCS Total Energy          =   -1814.0242836242880458 [Eh]
	-----------------------------------------------------------

  Dipole Moment: [D]
     X:     9.1731      Y:     2.4002      Z:     1.5689     Total:     9.6108

*** Psi4 exiting successfully. Buy a developer a beer!
