                               Psi4 1.3.2 release

  ==> Input File <==

--------------------------------------------------------------------------
#psi4
#
memory 32 gb

molecule  {
-4 1
  P        2.5828670     0.0826120    -0.3559070
  P       -0.1833470    -1.1435920     0.2927960
  P       -2.7088530     0.4754690    -0.2006980
  O        1.9882043     1.6097669    -0.1047728
  O        1.2509400    -0.8782220    -0.5450080
  O        3.2679280     0.0927970    -1.6978490
  O        3.3097766    -0.2228061     0.9322573
  O       -0.9881700     0.1612780    -0.2225170
  O        0.0932830    -1.0798150     1.7822090
  O       -0.7150640    -2.4305380    -0.3003910
  O       -3.2327710    -0.2685190     1.0414150
  O       -2.7128520     2.0086770    -0.0959300
  O       -3.2113930    -0.0752120    -1.5473660
  C        1.4216660     1.9681570     1.1052990
  H        1.0169430     1.1016800     1.6278780
  H        2.2027140     2.4392170     1.7103290
  H        0.6160650     2.6819120     0.9264900
units angstrom
no_reorient  #important for SAPT in psi4, default
symmetry c1  #important for SAPT in psi4, default
}

set PROPERTIES_ORIGIN ["COM"]
properties('MP2/aug-cc-pvtz', properties = ['dipole'])
--------------------------------------------------------------------------

    Molecular point group: c1
  Charge       = -4
  Multiplicity = 1
  Basis Set: AUG-CC-PVTZ
    Blend: AUG-CC-PVTZ
  Basis Set: (AUG-CC-PVTZ AUX)
    Blend: AUG-CC-PVTZ-JKFIT

    Orbital Energies [Eh]
    ---------------------

    Doubly Occupied:

       1A    -79.575624     2A    -79.528116     3A    -79.480096
       4A    -20.076987     5A    -20.042887     6A    -20.009835
       7A    -19.999393     8A    -19.993812     9A    -19.950148
      10A    -19.946532    11A    -19.923836    12A    -19.919560
      13A    -19.917500    14A    -10.802209    15A     -7.089173
      16A     -7.041074    17A     -6.993604    18A     -4.988223
      19A     -4.987229    20A     -4.986280    21A     -4.940378
      22A     -4.938942    23A     -4.938001    24A     -4.893072
      25A     -4.890870    26A     -4.890727    27A     -0.911441
      28A     -0.851134    29A     -0.809180    30A     -0.780144
      31A     -0.759488    32A     -0.743061    33A     -0.713986
      34A     -0.700329    35A     -0.663493    36A     -0.659290
      37A     -0.462006    38A     -0.296048    39A     -0.238385
      40A     -0.186872    41A     -0.167833    42A     -0.158619
      43A     -0.126010    44A     -0.099183    45A     -0.086155
      46A     -0.065584    47A     -0.054443    48A     -0.041163
      49A     -0.029896    50A     -0.017783    51A     -0.001871
      52A      0.000676    53A      0.012153    54A      0.014485
      55A      0.021991    56A      0.033947    57A      0.046611
      58A      0.058055    59A      0.065546    60A      0.069257
      61A      0.089889    62A      0.100267    63A      0.102041
      64A      0.103598    65A      0.113332    66A      0.124850
      67A      0.144396    68A      0.150171    69A      0.171927

  @DF-RHF Final Energy: -1810.68853120894391

   => Energetics <=

    Nuclear Repulsion Energy =           1463.8345035832705889
    One-Electron Energy =               -5503.1574427018877032
    Two-Electron Energy =                2228.6344079096729729
    Total Energy =                      -1810.6885312089439140
  Basis Set: (AUG-CC-PVTZ AUX)
    Blend: AUG-CC-PVTZ-RI
    Molecular point group: c1

    Geometry (in Angstrom), charge = -4, multiplicity = 1:

       Center              X                  Y                   Z               Mass
    ------------   -----------------  -----------------  -----------------  -----------------
         P            2.597247827093     0.103374239569    -0.345705624618    30.973761998420
         P           -0.168966172907    -1.122829760431     0.302997375382    30.973761998420
         P           -2.694472172907     0.496231239569    -0.190496624618    30.973761998420
         O            2.002585127093     1.630529139569    -0.094571424618    15.994914619570
         O            1.265320827093    -0.857459760431    -0.534806624618    15.994914619570
         O            3.282308827093     0.113559239569    -1.687647624618    15.994914619570
         O            3.324157427093    -0.202043860431     0.942458675382    15.994914619570
         O           -0.973789172907     0.182040239569    -0.212315624618    15.994914619570
         O            0.107663827093    -1.059052760431     1.792410375382    15.994914619570
         O           -0.700683172907    -2.409775760431    -0.290189624618    15.994914619570
         O           -3.218390172907    -0.247756760431     1.051616375382    15.994914619570
         O           -2.698471172907     2.029439239569    -0.085728624618    15.994914619570
         O           -3.197012172907    -0.054449760431    -1.537164624618    15.994914619570
         C            1.436046827093     1.988919239569     1.115500375382    12.000000000000
         H            1.031323827093     1.122442239569     1.638079375382     1.007825032230
         H            2.217094827093     2.459979239569     1.720530375382     1.007825032230
         H            0.630445827093     2.702674239569     0.936691375382     1.007825032230

  Basis Set: AUG-CC-PVTZ
    Blend: AUG-CC-PVTZ
  Basis Set: (AUG-CC-PVTZ AUX)
    Blend: AUG-CC-PVTZ-JKFIT
	 Reference Energy          =   -1810.6885312089439140 [Eh]
	 Singles Energy            =      -0.0000000000000000 [Eh]
	 Same-Spin Energy          =      -0.9128112301918186 [Eh]
	 Opposite-Spin Energy      =      -2.5244520359637299 [Eh]
	 Correlation Energy        =      -3.4372632661555484 [Eh]
	 Total Energy              =   -1814.1257944750993829 [Eh]

	 ================> DF-SCS-MP2 Energies <==================
	-----------------------------------------------------------
	 SCS Same-Spin Scale       =       0.3333333333333333 [-]
	 SCS Opposite-Spin Scale   =       1.2000000000000000 [-]
	 SCS Same-Spin Energy      =      -0.3042704100639395 [Eh]
	 SCS Opposite-Spin Energy  =      -3.0293424431564757 [Eh]
	 SCS Correlation Energy    =      -3.3336128532204152 [Eh]
	 SCS Total Energy          =   -1814.0221440621642159 [Eh]
	-----------------------------------------------------------

  Dipole Moment: [D]
     X:     9.2969      Y:     2.0675      Z:     1.2990     Total:     9.6122

*** Psi4 exiting successfully. Buy a developer a beer!
