                               Psi4 1.3.2 release

  ==> Input File <==

--------------------------------------------------------------------------
#psi4
#
memory 32 gb

molecule  {
-4 1
  P        2.5828670     0.0826120    -0.3559070
  P       -0.1833470    -1.1435920     0.2927960
  P       -2.7088530     0.4754690    -0.2006980
  O        1.9312399     1.6025668    -0.2375280
  O        1.2509400    -0.8782220    -0.5450080
  O        3.2679280     0.0927970    -1.6978490
  O        3.3405675    -0.3399385     0.8803721
  O       -0.9881700     0.1612780    -0.2225170
  O        0.0932830    -1.0798150     1.7822090
  O       -0.7150640    -2.4305380    -0.3003910
  O       -3.2327710    -0.2685190     1.0414150
  O       -2.7128520     2.0086770    -0.0959300
  O       -3.2113930    -0.0752120    -1.5473660
  C        1.4216660     1.9681570     1.1052990
  H        1.0169430     1.1016800     1.6278780
  H        2.2027140     2.4392170     1.7103290
  H        0.6160650     2.6819120     0.9264900
units angstrom
no_reorient  #important for SAPT in psi4, default
symmetry c1  #important for SAPT in psi4, default
}

set PROPERTIES_ORIGIN ["COM"]
properties('MP2/aug-cc-pvtz', properties = ['dipole'])
--------------------------------------------------------------------------

    Molecular point group: c1
  Charge       = -4
  Multiplicity = 1
  Basis Set: AUG-CC-PVTZ
    Blend: AUG-CC-PVTZ
  Basis Set: (AUG-CC-PVTZ AUX)
    Blend: AUG-CC-PVTZ-JKFIT

    Orbital Energies [Eh]
    ---------------------

    Doubly Occupied:

       1A    -79.570774     2A    -79.526124     3A    -79.479678
       4A    -20.090814     5A    -20.035281     6A    -20.004922
       7A    -19.997720     8A    -19.992398     9A    -19.950093
      10A    -19.944404    11A    -19.923943    12A    -19.918948
      13A    -19.917275    14A    -10.818079    15A     -7.084773
      16A     -7.039043    17A     -6.993181    18A     -4.983694
      19A     -4.982731    20A     -4.981975    21A     -4.938304
      22A     -4.936945    23A     -4.936025    24A     -4.892638
      25A     -4.890461    26A     -4.890308    27A     -0.896493
      28A     -0.841963    29A     -0.805011    30A     -0.776909
      31A     -0.755690    32A     -0.741326    33A     -0.713220
      34A     -0.699137    35A     -0.663394    36A     -0.658878
      37A     -0.470327    38A     -0.292251    39A     -0.232070
      40A     -0.182194    41A     -0.161800    42A     -0.141888
      43A     -0.126152    44A     -0.098799    45A     -0.080779
      46A     -0.064913    47A     -0.051547    48A     -0.045520
      49A     -0.033220    50A     -0.015037    51A     -0.009965
      52A     -0.000251    53A      0.008819    54A      0.015517
      55A      0.021809    56A      0.039090    57A      0.047827
      58A      0.053208    59A      0.068265    60A      0.072285
      61A      0.091892    62A      0.100672    63A      0.102557
      64A      0.104151    65A      0.114364    66A      0.125602
      67A      0.144620    68A      0.150728    69A      0.172173

  @DF-RHF Final Energy: -1810.68401028391941

   => Energetics <=

    Nuclear Repulsion Energy =           1462.3816077636329283
    One-Electron Energy =               -5500.4398624994446436
    Two-Electron Energy =                2227.3742444518925367
    Total Energy =                      -1810.6840102839191786
  Basis Set: (AUG-CC-PVTZ AUX)
    Blend: AUG-CC-PVTZ-RI
    Molecular point group: c1

    Geometry (in Angstrom), charge = -4, multiplicity = 1:

       Center              X                  Y                   Z               Mass
    ------------   -----------------  -----------------  -----------------  -----------------
         P            2.598810546089     0.110797654838    -0.334681456643    30.973761998420
         P           -0.167403453911    -1.115406345162     0.314021543357    30.973761998420
         P           -2.692909453911     0.503654654838    -0.179472456643    30.973761998420
         O            1.947183446089     1.630752454838    -0.216302456643    15.994914619570
         O            1.266883546089    -0.850036345162    -0.523782456643    15.994914619570
         O            3.283871546089     0.120982654838    -1.676623456643    15.994914619570
         O            3.356511046089    -0.311752845162     0.901597643357    15.994914619570
         O           -0.972226453911     0.189463654838    -0.201291456643    15.994914619570
         O            0.109226546089    -1.051629345162     1.803434543357    15.994914619570
         O           -0.699120453911    -2.402352345162    -0.279165456643    15.994914619570
         O           -3.216827453911    -0.240333345162     1.062640543357    15.994914619570
         O           -2.696908453911     2.036862654838    -0.074704456643    15.994914619570
         O           -3.195449453911    -0.047026345162    -1.526140456643    15.994914619570
         C            1.437609546089     1.996342654838     1.126524543357    12.000000000000
         H            1.032886546089     1.129865654838     1.649103543357     1.007825032230
         H            2.218657546089     2.467402654838     1.731554543357     1.007825032230
         H            0.632008546089     2.710097654838     0.947715543357     1.007825032230

  Basis Set: AUG-CC-PVTZ
    Blend: AUG-CC-PVTZ
  Basis Set: (AUG-CC-PVTZ AUX)
    Blend: AUG-CC-PVTZ-JKFIT
	 Reference Energy          =   -1810.6840102839194060 [Eh]
	 Singles Energy            =      -0.0000000000000000 [Eh]
	 Same-Spin Energy          =      -0.9133706013297811 [Eh]
	 Opposite-Spin Energy      =      -2.5271120489383718 [Eh]
	 Correlation Energy        =      -3.4404826502681529 [Eh]
	 Total Energy              =   -1814.1244929341876286 [Eh]

	 ================> DF-SCS-MP2 Energies <==================
	-----------------------------------------------------------
	 SCS Same-Spin Scale       =       0.3333333333333333 [-]
	 SCS Opposite-Spin Scale   =       1.2000000000000000 [-]
	 SCS Same-Spin Energy      =      -0.3044568671099270 [Eh]
	 SCS Opposite-Spin Energy  =      -3.0325344587260461 [Eh]
	 SCS Correlation Energy    =      -3.3369913258359731 [Eh]
	 SCS Total Energy          =   -1814.0210016097553307 [Eh]
	-----------------------------------------------------------

  Dipole Moment: [D]
     X:     9.2327      Y:     2.5063      Z:     1.7999     Total:     9.7347

*** Psi4 exiting successfully. Buy a developer a beer!
