                               Psi4 1.3.2 release

  ==> Input File <==

--------------------------------------------------------------------------
#psi4
#
memory 32 gb

molecule  {
-4 1
  P        2.5828670     0.0826120    -0.3559070
  P       -0.1833470    -1.1435920     0.2927960
  P       -2.7088530     0.4754690    -0.2006980
  O        1.9534540     1.6068400    -0.1842610
  O        1.2509400    -0.8782220    -0.5450080
  O        3.2679280     0.0927970    -1.6978490
  O        3.3289310    -0.2934220     0.9022790
  O       -0.9985117     0.1237449    -0.3054109
  O        0.0932830    -1.0798150     1.7822090
  O       -0.7150640    -2.4305380    -0.3003910
  O       -3.2327710    -0.2685190     1.0414150
  O       -2.7128520     2.0086770    -0.0959300
  O       -3.1356249    -0.0966991    -1.5644429
  C        1.4216660     1.9681570     1.1052990
  H        1.0169430     1.1016800     1.6278780
  H        2.2027140     2.4392170     1.7103290
  H        0.6160650     2.6819120     0.9264900
units angstrom
no_reorient  #important for SAPT in psi4, default
symmetry c1  #important for SAPT in psi4, default
}

set PROPERTIES_ORIGIN ["COM"]
properties('MP2/aug-cc-pvtz', properties = ['dipole'])
--------------------------------------------------------------------------

    Molecular point group: c1
  Charge       = -4
  Multiplicity = 1
  Basis Set: AUG-CC-PVTZ
    Blend: AUG-CC-PVTZ
  Basis Set: (AUG-CC-PVTZ AUX)
    Blend: AUG-CC-PVTZ-JKFIT

    Orbital Energies [Eh]
    ---------------------

    Doubly Occupied:

       1A    -79.571528     2A    -79.525161     3A    -79.479478
       4A    -20.085400     5A    -20.036068     6A    -20.002210
       7A    -20.001530     8A    -19.987903     9A    -19.953137
      10A    -19.940054    11A    -19.927425    12A    -19.921778
      13A    -19.914363    14A    -10.812371    15A     -7.085356
      16A     -7.038021    17A     -6.993062    18A     -4.984311
      19A     -4.983351    20A     -4.982550    21A     -4.937350
      22A     -4.935859    23A     -4.934983    24A     -4.892577
      25A     -4.890372    26A     -4.890115    27A     -0.901335
      28A     -0.843837    29A     -0.804618    30A     -0.776342
      31A     -0.756821    32A     -0.741509    33A     -0.712284
      34A     -0.696968    35A     -0.665647    36A     -0.658903
      37A     -0.467287    38A     -0.292184    39A     -0.233037
      40A     -0.181484    41A     -0.163694    42A     -0.148598
      43A     -0.125641    44A     -0.098497    45A     -0.081441
      46A     -0.064171    47A     -0.050795    48A     -0.043070
      49A     -0.029511    50A     -0.015642    51A     -0.005687
      52A      0.000534    53A      0.010829    54A      0.015285
      55A      0.022435    56A      0.038560    57A      0.047974
      58A      0.054085    59A      0.067901    60A      0.072298
      61A      0.093504    62A      0.097965    63A      0.102283
      64A      0.105105    65A      0.116069    66A      0.126996
      67A      0.142407    68A      0.153990    69A      0.170833

  @DF-RHF Final Energy: -1810.68450420032400

   => Energetics <=

    Nuclear Repulsion Energy =           1463.5993100679099825
    One-Electron Energy =               -5502.9151001583759353
    Two-Electron Energy =                2228.6312858901419531
    Total Energy =                      -1810.6845042003242270
  Basis Set: (AUG-CC-PVTZ AUX)
    Blend: AUG-CC-PVTZ-RI
    Molecular point group: c1

    Geometry (in Angstrom), charge = -4, multiplicity = 1:

       Center              X                  Y                   Z               Mass
    ------------   -----------------  -----------------  -----------------  -----------------
         P            2.594272639635     0.111289066331    -0.333200929138    30.973761998420
         P           -0.171941360365    -1.114914933669     0.315502070862    30.973761998420
         P           -2.697447360365     0.504146066331    -0.177991929138    30.973761998420
         O            1.964859639635     1.635517066331    -0.161554929138    15.994914619570
         O            1.262345639635    -0.849544933669    -0.522301929138    15.994914619570
         O            3.279333639635     0.121474066331    -1.675142929138    15.994914619570
         O            3.340336639635    -0.264744933669     0.924985070862    15.994914619570
         O           -0.987106060365     0.152421966331    -0.282704829138    15.994914619570
         O            0.104688639635    -1.051137933669     1.804915070862    15.994914619570
         O           -0.703658360365    -2.401860933669    -0.277684929138    15.994914619570
         O           -3.221365360365    -0.239841933669     1.064121070862    15.994914619570
         O           -2.701446360365     2.037354066331    -0.073223929138    15.994914619570
         O           -3.124219260365    -0.068022033669    -1.541736829138    15.994914619570
         C            1.433071639635     1.996834066331     1.128005070862    12.000000000000
         H            1.028348639635     1.130357066331     1.650584070862     1.007825032230
         H            2.214119639635     2.467894066331     1.733035070862     1.007825032230
         H            0.627470639635     2.710589066331     0.949196070862     1.007825032230

  Basis Set: AUG-CC-PVTZ
    Blend: AUG-CC-PVTZ
  Basis Set: (AUG-CC-PVTZ AUX)
    Blend: AUG-CC-PVTZ-JKFIT
	 Reference Energy          =   -1810.6845042003239996 [Eh]
	 Singles Energy            =      -0.0000000000000000 [Eh]
	 Same-Spin Energy          =      -0.9134062732704117 [Eh]
	 Opposite-Spin Energy      =      -2.5265793551377747 [Eh]
	 Correlation Energy        =      -3.4399856284081864 [Eh]
	 Total Energy              =   -1814.1244898287322940 [Eh]

	 ================> DF-SCS-MP2 Energies <==================
	-----------------------------------------------------------
	 SCS Same-Spin Scale       =       0.3333333333333333 [-]
	 SCS Opposite-Spin Scale   =       1.2000000000000000 [-]
	 SCS Same-Spin Energy      =      -0.3044687577568039 [Eh]
	 SCS Opposite-Spin Energy  =      -3.0318952261653296 [Eh]
	 SCS Correlation Energy    =      -3.3363639839221335 [Eh]
	 SCS Total Energy          =   -1814.0208681842461829 [Eh]
	-----------------------------------------------------------

  Dipole Moment: [D]
     X:     9.0918      Y:     2.4740      Z:     1.7871     Total:     9.5903

*** Psi4 exiting successfully. Buy a developer a beer!
