                               Psi4 1.3.2 release

  ==> Input File <==

--------------------------------------------------------------------------
#psi4
#
memory 32 gb

molecule  {
-4 1
  P        2.5471421     0.1140046    -0.2835940
  P       -0.1571776    -1.0837909     0.3519102
  P       -2.7088530     0.4754690    -0.2006980
  O        1.9534540     1.6068400    -0.1842610
  O        1.2509400    -0.8782220    -0.5450080
  O        3.2679280     0.0927970    -1.6978490
  O        3.3289310    -0.2934220     0.9022790
  O       -0.9881700     0.1612780    -0.2225170
  O        0.0932830    -1.0798150     1.7822090
  O       -0.7150640    -2.4305380    -0.3003910
  O       -3.2327710    -0.2685190     1.0414150
  O       -2.7128520     2.0086770    -0.0959300
  O       -3.2113930    -0.0752120    -1.5473660
  C        1.4216660     1.9681570     1.1052990
  H        1.0169430     1.1016800     1.6278780
  H        2.2027140     2.4392170     1.7103290
  H        0.6160650     2.6819120     0.9264900
units angstrom
no_reorient  #important for SAPT in psi4, default
symmetry c1  #important for SAPT in psi4, default
}

set PROPERTIES_ORIGIN ["COM"]
properties('MP2/aug-cc-pvtz', properties = ['dipole'])
--------------------------------------------------------------------------

    Molecular point group: c1
  Charge       = -4
  Multiplicity = 1
  Basis Set: AUG-CC-PVTZ
    Blend: AUG-CC-PVTZ
  Basis Set: (AUG-CC-PVTZ AUX)
    Blend: AUG-CC-PVTZ-JKFIT

    Orbital Energies [Eh]
    ---------------------

    Doubly Occupied:

       1A    -79.573747     2A    -79.526990     3A    -79.482736
       4A    -20.103744     5A    -20.044266     6A    -20.011098
       7A    -19.997835     8A    -19.986100     9A    -19.966059
      10A    -19.928905    11A    -19.926822    12A    -19.919930
      13A    -19.919727    14A    -10.826951    15A     -7.088145
      16A     -7.041048    17A     -6.996204    18A     -4.987100
      19A     -4.986136    20A     -4.985091    21A     -4.940125
      22A     -4.939122    23A     -4.937802    24A     -4.895714
      25A     -4.893442    26A     -4.893286    27A     -0.925455
      28A     -0.855717    29A     -0.814232    30A     -0.786922
      31A     -0.765538    32A     -0.725788    33A     -0.722877
      34A     -0.666288    35A     -0.664156    36A     -0.660478
      37A     -0.484910    38A     -0.296975    39A     -0.250137
      40A     -0.196334    41A     -0.177944    42A     -0.164673
      43A     -0.131834    44A     -0.104048    45A     -0.083483
      46A     -0.070252    47A     -0.059893    48A     -0.046786
      49A     -0.040720    50A     -0.017267    51A     -0.016355
      52A     -0.008834    53A      0.008368    54A      0.013961
      55A      0.020847    56A      0.034534    57A      0.042087
      58A      0.062918    59A      0.073476    60A      0.077079
      61A      0.087444    62A      0.097157    63A      0.100374
      64A      0.102510    65A      0.132493    66A      0.136012
      67A      0.143605    68A      0.149463    69A      0.170289

  @DF-RHF Final Energy: -1810.66566313980775

   => Energetics <=

    Nuclear Repulsion Energy =           1466.3456652451006903
    One-Electron Energy =               -5507.8558417489384738
    Two-Electron Energy =                2230.8445133640302629
    Total Energy =                      -1810.6656631398077479
  Basis Set: (AUG-CC-PVTZ AUX)
    Blend: AUG-CC-PVTZ-RI
    Molecular point group: c1

    Geometry (in Angstrom), charge = -4, multiplicity = 1:

       Center              X                  Y                   Z               Mass
    ------------   -----------------  -----------------  -----------------  -----------------
         P            2.563558900502     0.128614026430    -0.282052349340    30.973761998420
         P           -0.140760799498    -1.069181473570     0.353451850660    30.973761998420
         P           -2.692436199498     0.490078426430    -0.199156349340    30.973761998420
         O            1.969870800502     1.621449426430    -0.182719349340    15.994914619570
         O            1.267356800502    -0.863612573570    -0.543466349340    15.994914619570
         O            3.284344800502     0.107406426430    -1.696307349340    15.994914619570
         O            3.345347800502    -0.278812573570     0.903820650660    15.994914619570
         O           -0.971753199498     0.175887426430    -0.220975349340    15.994914619570
         O            0.109699800502    -1.065205573570     1.783750650660    15.994914619570
         O           -0.698647199498    -2.415928573570    -0.298849349340    15.994914619570
         O           -3.216354199498    -0.253909573570     1.042956650660    15.994914619570
         O           -2.696435199498     2.023286426430    -0.094388349340    15.994914619570
         O           -3.194976199498    -0.060602573570    -1.545824349340    15.994914619570
         C            1.438082800502     1.982766426430     1.106840650660    12.000000000000
         H            1.033359800502     1.116289426430     1.629419650660     1.007825032230
         H            2.219130800502     2.453826426430     1.711870650660     1.007825032230
         H            0.632481800502     2.696521426430     0.928031650660     1.007825032230

  Basis Set: AUG-CC-PVTZ
    Blend: AUG-CC-PVTZ
  Basis Set: (AUG-CC-PVTZ AUX)
    Blend: AUG-CC-PVTZ-JKFIT
	 Reference Energy          =   -1810.6656631398077479 [Eh]
	 Singles Energy            =      -0.0000000000000000 [Eh]
	 Same-Spin Energy          =      -0.9141451642375271 [Eh]
	 Opposite-Spin Energy      =      -2.5281574207455852 [Eh]
	 Correlation Energy        =      -3.4423025849831124 [Eh]
	 Total Energy              =   -1814.1079657247908017 [Eh]

	 ================> DF-SCS-MP2 Energies <==================
	-----------------------------------------------------------
	 SCS Same-Spin Scale       =       0.3333333333333333 [-]
	 SCS Opposite-Spin Scale   =       1.2000000000000000 [-]
	 SCS Same-Spin Energy      =      -0.3047150547458424 [Eh]
	 SCS Opposite-Spin Energy  =      -3.0337889048947022 [Eh]
	 SCS Correlation Energy    =      -3.3385039596405446 [Eh]
	 SCS Total Energy          =   -1814.0041670994482956 [Eh]
	-----------------------------------------------------------

  Dipole Moment: [D]
     X:     8.9879      Y:     3.5732      Z:     3.3617     Total:    10.2397

*** Psi4 exiting successfully. Buy a developer a beer!
