                               Psi4 1.3.2 release

  ==> Input File <==

--------------------------------------------------------------------------
#psi4
#
memory 32 gb

molecule  {
-4 1
  P        2.5828670     0.0826120    -0.3559070
  P       -0.1833470    -1.1435920     0.2927960
  P       -2.7088530     0.4754690    -0.2006980
  O        1.9534540     1.6068400    -0.1842610
  O        1.2577039    -0.8919761    -0.5205628
  O        3.2679280     0.0927970    -1.6978490
  O        3.3110021    -0.3121502     0.9070368
  O       -0.9881700     0.1612780    -0.2225170
  O        0.0932830    -1.0798150     1.7822090
  O       -0.7150640    -2.4305380    -0.3003910
  O       -3.2327710    -0.2685190     1.0414150
  O       -2.7128520     2.0086770    -0.0959300
  O       -3.2113930    -0.0752120    -1.5473660
  C        1.4216660     1.9681570     1.1052990
  H        1.0169430     1.1016800     1.6278780
  H        2.2027140     2.4392170     1.7103290
  H        0.6160650     2.6819120     0.9264900
units angstrom
no_reorient  #important for SAPT in psi4, default
symmetry c1  #important for SAPT in psi4, default
}

set PROPERTIES_ORIGIN ["COM"]
properties('MP2/aug-cc-pvtz', properties = ['dipole'])
--------------------------------------------------------------------------

    Molecular point group: c1
  Charge       = -4
  Multiplicity = 1
  Basis Set: AUG-CC-PVTZ
    Blend: AUG-CC-PVTZ
  Basis Set: (AUG-CC-PVTZ AUX)
    Blend: AUG-CC-PVTZ-JKFIT

    Orbital Energies [Eh]
    ---------------------

    Doubly Occupied:

       1A    -79.573250     2A    -79.525312     3A    -79.479720
       4A    -20.087163     5A    -20.036704     6A    -20.004778
       7A    -20.001646     8A    -19.992855     9A    -19.947391
      10A    -19.943910    11A    -19.923836    12A    -19.919058
      13A    -19.917095    14A    -10.812137    15A     -7.087024
      16A     -7.038304    17A     -6.993222    18A     -4.985976
      19A     -4.985067    20A     -4.984183    21A     -4.937599
      22A     -4.936216    23A     -4.935255    24A     -4.892685
      25A     -4.890496    26A     -4.890345    27A     -0.902762
      28A     -0.846366    29A     -0.806781    30A     -0.778196
      31A     -0.758140    32A     -0.740762    33A     -0.712873
      34A     -0.697967    35A     -0.663315    36A     -0.658829
      37A     -0.467432    38A     -0.294696    39A     -0.235016
      40A     -0.185021    41A     -0.164709    42A     -0.149774
      43A     -0.125109    44A     -0.098097    45A     -0.083686
      46A     -0.064610    47A     -0.051881    48A     -0.044427
      49A     -0.031303    50A     -0.016164    51A     -0.006761
      52A      0.000563    53A      0.009138    54A      0.014972
      55A      0.022100    56A      0.035972    57A      0.047915
      58A      0.054065    59A      0.068046    60A      0.071255
      61A      0.091989    62A      0.101014    63A      0.102773
      64A      0.104281    65A      0.115418    66A      0.126746
      67A      0.144732    68A      0.150776    69A      0.172245

  @DF-RHF Final Energy: -1810.68868597431879

   => Energetics <=

    Nuclear Repulsion Energy =           1463.3880452105806853
    One-Electron Energy =               -5502.4096588926158802
    Two-Electron Energy =                2228.3329277077168626
    Total Energy =                      -1810.6886859743185596
  Basis Set: (AUG-CC-PVTZ AUX)
    Blend: AUG-CC-PVTZ-RI
    Molecular point group: c1

    Geometry (in Angstrom), charge = -4, multiplicity = 1:

       Center              X                  Y                   Z               Mass
    ------------   -----------------  -----------------  -----------------  -----------------
         P            2.598845617483     0.109704590413    -0.340913399806    30.973761998420
         P           -0.167368382517    -1.116499409587     0.307789600194    30.973761998420
         P           -2.692874382517     0.502561590413    -0.185704399806    30.973761998420
         O            1.969432617483     1.633932590413    -0.169267399806    15.994914619570
         O            1.273682517483    -0.864883509587    -0.505569199806    15.994914619570
         O            3.283906617483     0.119889590413    -1.682855399806    15.994914619570
         O            3.326980717483    -0.285057609587     0.922030400194    15.994914619570
         O           -0.972191382517     0.188370590413    -0.207523399806    15.994914619570
         O            0.109261617483    -1.052722409587     1.797202600194    15.994914619570
         O           -0.699085382517    -2.403445409587    -0.285397399806    15.994914619570
         O           -3.216792382517    -0.241426409587     1.056408600194    15.994914619570
         O           -2.696873382517     2.035769590413    -0.080936399806    15.994914619570
         O           -3.195414382517    -0.048119409587    -1.532372399806    15.994914619570
         C            1.437644617483     1.995249590413     1.120292600194    12.000000000000
         H            1.032921617483     1.128772590413     1.642871600194     1.007825032230
         H            2.218692617483     2.466309590413     1.725322600194     1.007825032230
         H            0.632043617483     2.709004590413     0.941483600194     1.007825032230

  Basis Set: AUG-CC-PVTZ
    Blend: AUG-CC-PVTZ
  Basis Set: (AUG-CC-PVTZ AUX)
    Blend: AUG-CC-PVTZ-JKFIT
	 Reference Energy          =   -1810.6886859743187870 [Eh]
	 Singles Energy            =      -0.0000000000000000 [Eh]
	 Same-Spin Energy          =      -0.9129258317852883 [Eh]
	 Opposite-Spin Energy      =      -2.5254910324882753 [Eh]
	 Correlation Energy        =      -3.4384168642735635 [Eh]
	 Total Energy              =   -1814.1271028385924637 [Eh]

	 ================> DF-SCS-MP2 Energies <==================
	-----------------------------------------------------------
	 SCS Same-Spin Scale       =       0.3333333333333333 [-]
	 SCS Opposite-Spin Scale   =       1.2000000000000000 [-]
	 SCS Same-Spin Energy      =      -0.3043086105950961 [Eh]
	 SCS Opposite-Spin Energy  =      -3.0305892389859301 [Eh]
	 SCS Correlation Energy    =      -3.3348978495810262 [Eh]
	 SCS Total Energy          =   -1814.0235838238997985 [Eh]
	-----------------------------------------------------------

  Dipole Moment: [D]
     X:     9.3455      Y:     2.4180      Z:     1.5416     Total:     9.7756

*** Psi4 exiting successfully. Buy a developer a beer!
