                               Psi4 1.3.2 release

  ==> Input File <==

--------------------------------------------------------------------------
#psi4
#
memory 32 gb

molecule  {
-4 1
  P        2.5828670     0.0826120    -0.3559070
  P       -0.1833470    -1.1435920     0.2927960
  P       -2.7088530     0.4754690    -0.2006980
  O        1.9591284     1.6076183    -0.1709744
  O        1.2509400    -0.8782220    -0.5450080
  O        3.2679280     0.0927970    -1.6978490
  O        3.3258793    -0.2817191     0.9075172
  O       -0.9881700     0.1612780    -0.2225170
  O        0.0932830    -1.0798150     1.7822090
  O       -0.7150640    -2.4305380    -0.3003910
  O       -3.2327710    -0.2685190     1.0414150
  O       -2.7128520     2.0086770    -0.0959300
  O       -3.2113930    -0.0752120    -1.5473660
  C        1.4216660     1.9681570     1.1052990
  H        1.0169430     1.1016800     1.6278780
  H        2.2027140     2.4392170     1.7103290
  H        0.6160650     2.6819120     0.9264900
units angstrom
no_reorient  #important for SAPT in psi4, default
symmetry c1  #important for SAPT in psi4, default
}

set PROPERTIES_ORIGIN ["COM"]
properties('MP2/aug-cc-pvtz', properties = ['dipole'])
--------------------------------------------------------------------------

    Molecular point group: c1
  Charge       = -4
  Multiplicity = 1
  Basis Set: AUG-CC-PVTZ
    Blend: AUG-CC-PVTZ
  Basis Set: (AUG-CC-PVTZ AUX)
    Blend: AUG-CC-PVTZ-JKFIT

    Orbital Energies [Eh]
    ---------------------

    Doubly Occupied:

       1A    -79.573032     2A    -79.527112     3A    -79.479890
       4A    -20.084277     5A    -20.039056     6A    -20.003758
       7A    -20.002288     8A    -19.993102     9A    -19.950106
      10A    -19.945458    11A    -19.923896    12A    -19.919255
      13A    -19.917390    14A    -10.810102    15A     -7.086809
      16A     -7.040050    17A     -6.993395    18A     -4.985772
      19A     -4.984824    20A     -4.983987    21A     -4.939333
      22A     -4.937935    23A     -4.937004    24A     -4.892858
      25A     -4.890669    26A     -4.890520    27A     -0.903400
      28A     -0.846575    29A     -0.807055    30A     -0.778341
      31A     -0.758006    32A     -0.742221    33A     -0.713597
      34A     -0.699732    35A     -0.663448    36A     -0.659087
      37A     -0.465972    38A     -0.294202    39A     -0.235254
      40A     -0.184527    41A     -0.164592    42A     -0.150476
      43A     -0.125958    44A     -0.098961    45A     -0.083370
      46A     -0.065082    47A     -0.052260    48A     -0.043525
      49A     -0.031535    50A     -0.016430    51A     -0.005805
      52A      0.000256    53A      0.010074    54A      0.014610
      55A      0.021597    56A      0.036860    57A      0.047272
      58A      0.053941    59A      0.066730    60A      0.070611
      61A      0.090860    62A      0.100476    63A      0.102288
      64A      0.103860    65A      0.113836    66A      0.125217
      67A      0.144502    68A      0.150448    69A      0.172046

  @DF-RHF Final Energy: -1810.68960512698345

   => Energetics <=

    Nuclear Repulsion Energy =           1463.0656142660984642
    One-Electron Energy =               -5501.7188272030934968
    Two-Electron Energy =                2227.9636078100120358
    Total Energy =                      -1810.6896051269832242
  Basis Set: (AUG-CC-PVTZ AUX)
    Blend: AUG-CC-PVTZ-RI
    Molecular point group: c1

    Geometry (in Angstrom), charge = -4, multiplicity = 1:

       Center              X                  Y                   Z               Mass
    ------------   -----------------  -----------------  -----------------  -----------------
         P            2.598022406957     0.107019992802    -0.340275845563    30.973761998420
         P           -0.168191593043    -1.119184007198     0.308427154437    30.973761998420
         P           -2.693697593043     0.499876992802    -0.185066845563    30.973761998420
         O            1.974283806957     1.632026292802    -0.155343245563    15.994914619570
         O            1.266095406957    -0.853814007198    -0.529376845563    15.994914619570
         O            3.283083406957     0.117204992802    -1.682217845563    15.994914619570
         O            3.341034706957    -0.257311107198     0.923148354437    15.994914619570
         O           -0.973014593043     0.185685992802    -0.206885845563    15.994914619570
         O            0.108438406957    -1.055407007198     1.797840154437    15.994914619570
         O           -0.699908593043    -2.406130007198    -0.284759845563    15.994914619570
         O           -3.217615593043    -0.244111007198     1.057046154437    15.994914619570
         O           -2.697696593043     2.033084992802    -0.080298845563    15.994914619570
         O           -3.196237593043    -0.050804007198    -1.531734845563    15.994914619570
         C            1.436821406957     1.992564992802     1.120930154437    12.000000000000
         H            1.032098406957     1.126087992802     1.643509154437     1.007825032230
         H            2.217869406957     2.463624992802     1.725960154437     1.007825032230
         H            0.631220406957     2.706319992802     0.942121154437     1.007825032230

  Basis Set: AUG-CC-PVTZ
    Blend: AUG-CC-PVTZ
  Basis Set: (AUG-CC-PVTZ AUX)
    Blend: AUG-CC-PVTZ-JKFIT
	 Reference Energy          =   -1810.6896051269834516 [Eh]
	 Singles Energy            =      -0.0000000000000000 [Eh]
	 Same-Spin Energy          =      -0.9129447234484157 [Eh]
	 Opposite-Spin Energy      =      -2.5254855563865108 [Eh]
	 Correlation Energy        =      -3.4384302798349267 [Eh]
	 Total Energy              =   -1814.1280354068182987 [Eh]

	 ================> DF-SCS-MP2 Energies <==================
	-----------------------------------------------------------
	 SCS Same-Spin Scale       =       0.3333333333333333 [-]
	 SCS Opposite-Spin Scale   =       1.2000000000000000 [-]
	 SCS Same-Spin Energy      =      -0.3043149078161386 [Eh]
	 SCS Opposite-Spin Energy  =      -3.0305826676638130 [Eh]
	 SCS Correlation Energy    =      -3.3348975754799515 [Eh]
	 SCS Total Energy          =   -1814.0245027024634510 [Eh]
	-----------------------------------------------------------

  Dipole Moment: [D]
     X:     9.2629      Y:     2.2946      Z:     1.5589     Total:     9.6693

*** Psi4 exiting successfully. Buy a developer a beer!
