                               Psi4 1.4a3.dev225

  ==> Input File <==

--------------------------------------------------------------------------
#psi4
#
memory 32 gb

molecule  {
-4 1
  P       -2.5202440    -0.2449420     0.3712220
  P        0.3565170    -0.5960480    -0.3589090
  P        3.1750170     0.3881900     0.1554910
  O       -2.7927880     1.3311510    -0.1150520
  O       -0.9169740    -0.0836090     0.6422800
  O       -3.1856250    -0.4605710     1.7148300
  O       -2.8507450    -1.1694890    -0.7786080
  O        1.4898640     0.0841660     0.5723090
  O        0.2127210     0.0849480    -1.7048820
  O        0.4027150    -2.1095660    -0.2874290
  O        3.5327910    -0.6840640    -0.8835370
  O        3.1643710     1.8286230    -0.3742880
  O        3.8338960     0.2099350     1.5311200
  C       -4.1398760     1.5889580    -0.5252390
  H       -4.4344925     0.9189047    -1.3646893
  H       -4.8386320     1.4471050     0.3059850
  H       -4.1840730     2.6280350    -0.8559160
units angstrom
no_reorient  #important for SAPT in psi4, default
symmetry c1  #important for SAPT in psi4, default
}

set PROPERTIES_ORIGIN ["COM"]
properties('MP2/aug-cc-pvtz', properties = ['dipole'])
--------------------------------------------------------------------------

    Molecular point group: c1
  Charge       = -4
  Multiplicity = 1
  Basis Set: AUG-CC-PVTZ
    Blend: AUG-CC-PVTZ
  Basis Set: (AUG-CC-PVTZ AUX)
    Blend: AUG-CC-PVTZ-JKFIT

    Orbital Energies [Eh]
    ---------------------

    Doubly Occupied:

       1A    -79.580874     2A    -79.517277     3A    -79.475480
       4A    -20.119681     5A    -20.041923     6A    -20.015179
       7A    -20.005038     8A    -19.984332     9A    -19.936991
      10A    -19.935302    11A    -19.922012    12A    -19.917086
      13A    -19.913245    14A    -10.885882    15A     -7.095153
      16A     -7.030342    17A     -6.989237    18A     -4.994302
      19A     -4.992987    20A     -4.992080    21A     -4.929744
      22A     -4.928161    23A     -4.927020    24A     -4.888632
      25A     -4.886524    26A     -4.886396    27A     -0.931597
      28A     -0.853622    29A     -0.807094    30A     -0.777925
      31A     -0.761312    32A     -0.736553    33A     -0.705978
      34A     -0.687030    35A     -0.662020    36A     -0.657309
      37A     -0.526235    38A     -0.308338    39A     -0.251950
      40A     -0.218606    41A     -0.196601    42A     -0.165296
      43A     -0.139841    44A     -0.108407    45A     -0.093989
      46A     -0.079052    47A     -0.063025    48A     -0.051848
      49A     -0.035073    50A     -0.025195    51A     -0.012644
      52A     -0.009798    53A      0.009363    54A      0.011576
      55A      0.022945    56A      0.034220    57A      0.047969
      58A      0.054716    59A      0.062027    60A      0.081145
      61A      0.097387    62A      0.103323    63A      0.107038
      64A      0.108110    65A      0.124780    66A      0.135236
      67A      0.147949    68A      0.154314    69A      0.174490

  @DF-RHF Final Energy: -1810.67511019860422

   => Energetics <=

    Nuclear Repulsion Energy =           1425.5607479837262872
    One-Electron Energy =               -5426.1104593221034520
    Two-Electron Energy =                2189.8746011397729490
    Total Energy =                      -1810.6751101986042158
  Basis Set: (AUG-CC-PVTZ AUX)
    Blend: AUG-CC-PVTZ-RI
    Molecular point group: c1

    Geometry (in Angstrom), charge = -4, multiplicity = 1:

       Center              X                  Y                   Z               Mass
    ------------   -----------------  -----------------  -----------------  -----------------
         P           -2.573665750100    -0.224728807553     0.363639415705    30.973761998420
         P            0.303095249900    -0.575834807553    -0.366491584295    30.973761998420
         P            3.121595249900     0.408403192447     0.147908415705    30.973761998420
         O           -2.846209750100     1.351364192447    -0.122634584295    15.994914619570
         O           -0.970395750100    -0.063395807553     0.634697415705    15.994914619570
         O           -3.239046750100    -0.440357807553     1.707247415705    15.994914619570
         O           -2.904166750100    -1.149275807553    -0.786190584295    15.994914619570
         O            1.436442249900     0.104379192447     0.564726415705    15.994914619570
         O            0.159299249900     0.105161192447    -1.712464584295    15.994914619570
         O            0.349293249900    -2.089352807553    -0.295011584295    15.994914619570
         O            3.479369249900    -0.663850807553    -0.891119584295    15.994914619570
         O            3.110949249900     1.848836192447    -0.381870584295    15.994914619570
         O            3.780474249900     0.230148192447     1.523537415705    15.994914619570
         C           -4.193297750100     1.609171192447    -0.532821584295    12.000000000000
         H           -4.487914250100     0.939117892447    -1.372271884295     1.007825032230
         H           -4.892053750100     1.467318192447     0.298402415705     1.007825032230
         H           -4.237494750100     2.648248192447    -0.863498584295     1.007825032230

  Basis Set: AUG-CC-PVTZ
    Blend: AUG-CC-PVTZ
  Basis Set: (AUG-CC-PVTZ AUX)
    Blend: AUG-CC-PVTZ-JKFIT
	 Reference Energy          =   -1810.6751101986042158 [Eh]
	 Singles Energy            =      -0.0000000000000000 [Eh]
	 Same-Spin Energy          =      -0.9124212449237263 [Eh]
	 Opposite-Spin Energy      =      -2.5254043624476674 [Eh]
	 Correlation Energy        =      -3.4378256073713938 [Eh]
	 Total Energy              =   -1814.1129358059756669 [Eh]

	 ================> DF-SCS-MP2 Energies <==================
	-----------------------------------------------------------
	 SCS Same-Spin Scale       =       0.3333333333333333 [-]
	 SCS Opposite-Spin Scale   =       1.2000000000000000 [-]
	 SCS Same-Spin Energy      =      -0.3041404149745754 [Eh]
	 SCS Opposite-Spin Energy  =      -3.0304852349372009 [Eh]
	 SCS Correlation Energy    =      -3.3346256499117763 [Eh]
	 SCS Total Energy          =   -1814.0097358485159020 [Eh]
	-----------------------------------------------------------

  Dipole Moment: [D]
     X:   -14.9641      Y:     2.7131      Z:     0.0225     Total:    15.2081

*** Psi4 exiting successfully. Buy a developer a beer!
