                               Psi4 1.3.2 release

  ==> Input File <==

--------------------------------------------------------------------------
#psi4
#
memory 32 gb

molecule  {
-4 1
  P        2.5828670     0.0826120    -0.3559070
  P       -0.1833470    -1.1435920     0.2927960
  P       -2.7088530     0.4754690    -0.2006980
  O        1.9534540     1.6068400    -0.1842610
  O        1.2509400    -0.8782220    -0.5450080
  O        3.2679280     0.0927970    -1.6978490
  O        3.3289310    -0.2934220     0.9022790
  O       -0.9881700     0.1612780    -0.2225170
  O        0.0932830    -1.0798150     1.7822090
  O       -0.7150640    -2.4305380    -0.3003910
  O       -3.2327710    -0.2685190     1.0414150
  O       -2.7128520     2.0086770    -0.0959300
  O       -3.2113930    -0.0752120    -1.5473660
  C        1.4216660     1.9681570     1.1052990
  H        1.0530997     1.1124798     1.6706726
  H        2.1938871     2.3990782     1.7502612
  H        0.6160650     2.6819120     0.9264900
units angstrom
no_reorient  #important for SAPT in psi4, default
symmetry c1  #important for SAPT in psi4, default
}

set PROPERTIES_ORIGIN ["COM"]
properties('MP2/aug-cc-pvtz', properties = ['dipole'])
--------------------------------------------------------------------------

    Molecular point group: c1
  Charge       = -4
  Multiplicity = 1
  Basis Set: AUG-CC-PVTZ
    Blend: AUG-CC-PVTZ
  Basis Set: (AUG-CC-PVTZ AUX)
    Blend: AUG-CC-PVTZ-JKFIT

    Orbital Energies [Eh]
    ---------------------

    Doubly Occupied:

       1A    -79.573016     2A    -79.526585     3A    -79.479661
       4A    -20.087419     5A    -20.038269     6A    -20.003285
       7A    -20.002898     8A    -19.992562     9A    -19.949517
      10A    -19.945032    11A    -19.923778    12A    -19.919041
      13A    -19.917176    14A    -10.812255    15A     -7.086836
      16A     -7.039509    17A     -6.993164    18A     -4.985795
      19A     -4.984833    20A     -4.984020    21A     -4.938793
      22A     -4.937397    23A     -4.936464    24A     -4.892623
      25A     -4.890441    26A     -4.890291    27A     -0.902513
      28A     -0.845677    29A     -0.806678    30A     -0.778027
      31A     -0.758020    32A     -0.741772    33A     -0.713197
      34A     -0.699209    35A     -0.663291    36A     -0.658870
      37A     -0.467897    38A     -0.294431    39A     -0.236681
      40A     -0.185244    41A     -0.158510    42A     -0.149225
      43A     -0.127219    44A     -0.098755    45A     -0.082325
      46A     -0.064845    47A     -0.052528    48A     -0.044402
      49A     -0.032522    50A     -0.016008    51A     -0.007756
      52A      0.000774    53A      0.010062    54A      0.014548
      55A      0.021927    56A      0.037202    57A      0.047676
      58A      0.053023    59A      0.066887    60A      0.071050
      61A      0.091295    62A      0.100728    63A      0.102566
      64A      0.104118    65A      0.114251    66A      0.125662
      67A      0.144709    68A      0.150716    69A      0.172227

  @DF-RHF Final Energy: -1810.68802816547509

   => Energetics <=

    Nuclear Repulsion Energy =           1462.7542805189282262
    One-Electron Energy =               -5501.1109383205539416
    Two-Electron Energy =                2227.6686296361508539
    Total Energy =                      -1810.6880281654748615
  Basis Set: (AUG-CC-PVTZ AUX)
    Blend: AUG-CC-PVTZ-RI
    Molecular point group: c1

    Geometry (in Angstrom), charge = -4, multiplicity = 1:

       Center              X                  Y                   Z               Mass
    ------------   -----------------  -----------------  -----------------  -----------------
         P            2.598076182745     0.107875571450    -0.339481021759    30.973761998420
         P           -0.168137817255    -1.118328428550     0.309221978241    30.973761998420
         P           -2.693643817255     0.500732571450    -0.184272021759    30.973761998420
         O            1.968663182745     1.632103571450    -0.167835021759    15.994914619570
         O            1.266149182745    -0.852958428550    -0.528582021759    15.994914619570
         O            3.283137182745     0.118060571450    -1.681423021759    15.994914619570
         O            3.344140182745    -0.268158428550     0.918704978241    15.994914619570
         O           -0.972960817255     0.186541571450    -0.206091021759    15.994914619570
         O            0.108492182745    -1.054551428550     1.798634978241    15.994914619570
         O           -0.699854817255    -2.405274428550    -0.283965021759    15.994914619570
         O           -3.217561817255    -0.243255428550     1.057840978241    15.994914619570
         O           -2.697642817255     2.033940571450    -0.079504021759    15.994914619570
         O           -3.196183817255    -0.049948428550    -1.530940021759    15.994914619570
         C            1.436875182745     1.993420571450     1.121724978241    12.000000000000
         H            1.068308882745     1.137743371450     1.687098578241     1.007825032230
         H            2.209096282745     2.424341771450     1.766687178241     1.007825032230
         H            0.631274182745     2.707175571450     0.942915978241     1.007825032230

  Basis Set: AUG-CC-PVTZ
    Blend: AUG-CC-PVTZ
  Basis Set: (AUG-CC-PVTZ AUX)
    Blend: AUG-CC-PVTZ-JKFIT
	 Reference Energy          =   -1810.6880281654750888 [Eh]
	 Singles Energy            =      -0.0000000000000000 [Eh]
	 Same-Spin Energy          =      -0.9129981571684705 [Eh]
	 Opposite-Spin Energy      =      -2.5257054344940633 [Eh]
	 Correlation Energy        =      -3.4387035916625339 [Eh]
	 Total Energy              =   -1814.1267317571375770 [Eh]

	 ================> DF-SCS-MP2 Energies <==================
	-----------------------------------------------------------
	 SCS Same-Spin Scale       =       0.3333333333333333 [-]
	 SCS Opposite-Spin Scale   =       1.2000000000000000 [-]
	 SCS Same-Spin Energy      =      -0.3043327190561568 [Eh]
	 SCS Opposite-Spin Energy  =      -3.0308465213928759 [Eh]
	 SCS Correlation Energy    =      -3.3351792404490328 [Eh]
	 SCS Total Energy          =   -1814.0232074059240404 [Eh]
	-----------------------------------------------------------

  Dipole Moment: [D]
     X:     9.2883      Y:     2.3250      Z:     1.6170     Total:     9.7104

*** Psi4 exiting successfully. Buy a developer a beer!
