                               Psi4 1.4a3.dev225

  ==> Input File <==

--------------------------------------------------------------------------
#psi4
#
memory 32 gb

molecule  {
-4 1
  P       -2.5202440    -0.2449420     0.3712220
  P        0.3565170    -0.5960480    -0.3589090
  P        3.1750170     0.3881900     0.1554910
  O       -2.7927880     1.3311510    -0.1150520
  O       -0.9169740    -0.0836090     0.6422800
  O       -3.1856250    -0.4605710     1.7148300
  O       -2.8398157    -1.1389152    -0.7405844
  O        1.4898640     0.0841660     0.5723090
  O        0.2127210     0.0849480    -1.7048820
  O        0.4027150    -2.1095660    -0.2874290
  O        3.5327910    -0.6840640    -0.8835370
  O        3.1643710     1.8286230    -0.3742880
  O        3.8338960     0.2099350     1.5311200
  C       -4.1398760     1.5889580    -0.5252390
  H       -4.4292020     0.9309370    -1.3496150
  H       -4.8386320     1.4471050     0.3059850
  H       -4.1840730     2.6280350    -0.8559160
units angstrom
no_reorient  #important for SAPT in psi4, default
symmetry c1  #important for SAPT in psi4, default
}

set PROPERTIES_ORIGIN ["COM"]
properties('MP2/aug-cc-pvtz', properties = ['dipole'])
--------------------------------------------------------------------------

    Molecular point group: c1
  Charge       = -4
  Multiplicity = 1
  Basis Set: AUG-CC-PVTZ
    Blend: AUG-CC-PVTZ
  Basis Set: (AUG-CC-PVTZ AUX)
    Blend: AUG-CC-PVTZ-JKFIT

    Orbital Energies [Eh]
    ---------------------

    Doubly Occupied:

       1A    -79.570789     2A    -79.516327     3A    -79.474946
       4A    -20.115655     5A    -20.037829     6A    -20.010643
       7A    -20.002843     8A    -19.983450     9A    -19.936623
      10A    -19.934811    11A    -19.921520    12A    -19.916595
      13A    -19.912832    14A    -10.882314    15A     -7.087193
      16A     -7.029371    17A     -6.988702    18A     -4.986106
      19A     -4.985057    20A     -4.984228    21A     -4.928753
      22A     -4.927209    23A     -4.926076    24A     -4.888093
      25A     -4.885993    26A     -4.885865    27A     -0.930340
      28A     -0.853209    29A     -0.812373    30A     -0.779101
      31A     -0.767485    32A     -0.735781    33A     -0.705377
      34A     -0.686607    35A     -0.661533    36A     -0.656867
      37A     -0.526758    38A     -0.305291    39A     -0.250896
      40A     -0.219345    41A     -0.194909    42A     -0.164084
      43A     -0.139258    44A     -0.108742    45A     -0.094554
      46A     -0.079763    47A     -0.063742    48A     -0.050524
      49A     -0.036115    50A     -0.026143    51A     -0.011439
      52A     -0.009487    53A      0.006361    54A      0.012282
      55A      0.023497    56A      0.034392    57A      0.044881
      58A      0.055289    59A      0.060186    60A      0.081577
      61A      0.098116    62A      0.103775    63A      0.107598
      64A      0.108592    65A      0.125329    66A      0.135698
      67A      0.148431    68A      0.154827    69A      0.174944

  @DF-RHF Final Energy: -1810.67710118082891

   => Energetics <=

    Nuclear Repulsion Energy =           1428.1025552862922723
    One-Electron Energy =               -5431.3317670894639377
    Two-Electron Energy =                2192.5521106223432071
    Total Energy =                      -1810.6771011808286858
  Basis Set: (AUG-CC-PVTZ AUX)
    Blend: AUG-CC-PVTZ-RI
    Molecular point group: c1

    Geometry (in Angstrom), charge = -4, multiplicity = 1:

       Center              X                  Y                   Z               Mass
    ------------   -----------------  -----------------  -----------------  -----------------
         P           -2.574338199580    -0.226599517413     0.361312462850    30.973761998420
         P            0.302422800420    -0.577705517413    -0.368818537150    30.973761998420
         P            3.120922800420     0.406532482587     0.145581462850    30.973761998420
         O           -2.846882199580     1.349493482587    -0.124961537150    15.994914619570
         O           -0.971068199580    -0.065266517413     0.632370462850    15.994914619570
         O           -3.239719199580    -0.442228517413     1.704920462850    15.994914619570
         O           -2.893909899580    -1.120572717413    -0.750493937150    15.994914619570
         O            1.435769800420     0.102508482587     0.562399462850    15.994914619570
         O            0.158626800420     0.103290482587    -1.714791537150    15.994914619570
         O            0.348620800420    -2.091223517413    -0.297338537150    15.994914619570
         O            3.478696800420    -0.665721517413    -0.893446537150    15.994914619570
         O            3.110276800420     1.846965482587    -0.384197537150    15.994914619570
         O            3.779801800420     0.228277482587     1.521210462850    15.994914619570
         C           -4.193970199580     1.607300482587    -0.535148537150    12.000000000000
         H           -4.483296199580     0.949279482587    -1.359524537150     1.007825032230
         H           -4.892726199580     1.465447482587     0.296075462850     1.007825032230
         H           -4.238167199580     2.646377482587    -0.865825537150     1.007825032230

  Basis Set: AUG-CC-PVTZ
    Blend: AUG-CC-PVTZ
  Basis Set: (AUG-CC-PVTZ AUX)
    Blend: AUG-CC-PVTZ-JKFIT
	 Reference Energy          =   -1810.6771011808289131 [Eh]
	 Singles Energy            =      -0.0000000000000000 [Eh]
	 Same-Spin Energy          =      -0.9113392273528739 [Eh]
	 Opposite-Spin Energy      =      -2.5226518722275348 [Eh]
	 Correlation Energy        =      -3.4339910995804086 [Eh]
	 Total Energy              =   -1814.1110922804093661 [Eh]

	 ================> DF-SCS-MP2 Energies <==================
	-----------------------------------------------------------
	 SCS Same-Spin Scale       =       0.3333333333333333 [-]
	 SCS Opposite-Spin Scale   =       1.2000000000000000 [-]
	 SCS Same-Spin Energy      =      -0.3037797424509580 [Eh]
	 SCS Opposite-Spin Energy  =      -3.0271822466730418 [Eh]
	 SCS Correlation Energy    =      -3.3309619891239999 [Eh]
	 SCS Total Energy          =   -1814.0080631699529476 [Eh]
	-----------------------------------------------------------

  Dipole Moment: [D]
     X:   -15.0898      Y:     2.5502      Z:    -0.1763     Total:    15.3048

*** Psi4 exiting successfully. Buy a developer a beer!
