                               Psi4 1.3.2 release

  ==> Input File <==

--------------------------------------------------------------------------
#psi4
#
memory 32 gb

molecule  {
-4 1
  P        2.5828670     0.0826120    -0.3559070
  P       -0.1833470    -1.1435920     0.2927960
  P       -2.7088530     0.4754690    -0.2006980
  O        1.9534540     1.6068400    -0.1842610
  O        1.2509400    -0.8782220    -0.5450080
  O        3.2679280     0.0927970    -1.6978490
  O        3.3289310    -0.2934220     0.9022790
  O       -1.0876908     0.3226323    -0.2862383
  O        0.0932830    -1.0798150     1.7822090
  O       -0.7150640    -2.4305380    -0.3003910
  O       -3.2327710    -0.2685190     1.0414150
  O       -2.7128520     2.0086770    -0.0959300
  O       -3.2113930    -0.0752120    -1.5473660
  C        1.4216660     1.9681570     1.1052990
  H        1.0169430     1.1016800     1.6278780
  H        2.2027140     2.4392170     1.7103290
  H        0.6160650     2.6819120     0.9264900
units angstrom
no_reorient  #important for SAPT in psi4, default
symmetry c1  #important for SAPT in psi4, default
}

set PROPERTIES_ORIGIN ["COM"]
properties('MP2/aug-cc-pvtz', properties = ['dipole'])
--------------------------------------------------------------------------

    Molecular point group: c1
  Charge       = -4
  Multiplicity = 1
  Basis Set: AUG-CC-PVTZ
    Blend: AUG-CC-PVTZ
  Basis Set: (AUG-CC-PVTZ AUX)
    Blend: AUG-CC-PVTZ-JKFIT

    Orbital Energies [Eh]
    ---------------------

    Doubly Occupied:

       1A    -79.580393     2A    -79.555347     3A    -79.454422
       4A    -20.090220     5A    -20.055021     6A    -20.009827
       7A    -20.008742     8A    -19.993532     9A    -19.970994
      10A    -19.965233    11A    -19.907841    12A    -19.902268
      13A    -19.900512    14A    -10.814746    15A     -7.094250
      16A     -7.066108    17A     -6.970011    18A     -4.993184
      19A     -4.992292    20A     -4.991379    21A     -4.965199
      22A     -4.963675    23A     -4.962922    24A     -4.869519
      25A     -4.867432    26A     -4.867252    27A     -0.908030
      28A     -0.851513    29A     -0.805582    30A     -0.782955
      31A     -0.764291    32A     -0.755329    33A     -0.717153
      34A     -0.692868    35A     -0.647941    36A     -0.645036
      37A     -0.470195    38A     -0.302907    39A     -0.235399
      40A     -0.181734    41A     -0.163237    42A     -0.151462
      43A     -0.133256    44A     -0.104909    45A     -0.089813
      46A     -0.065262    47A     -0.055007    48A     -0.046197
      49A     -0.031534    50A     -0.016740    51A     -0.012153
      52A     -0.003607    53A      0.004792    54A      0.007685
      55A      0.025825    56A      0.034344    57A      0.046615
      58A      0.054601    59A      0.057003    60A      0.063848
      61A      0.081496    62A      0.092003    63A      0.105559
      64A      0.115709    65A      0.118170    66A      0.122296
      67A      0.161984    68A      0.168781    69A      0.186791

  @DF-RHF Final Energy: -1810.65828609722075

   => Energetics <=

    Nuclear Repulsion Energy =           1459.5165865784977086
    One-Electron Energy =               -5494.3518831407773177
    Two-Electron Energy =                2224.1770104650590838
    Total Energy =                      -1810.6582860972207527
  Basis Set: (AUG-CC-PVTZ AUX)
    Blend: AUG-CC-PVTZ-RI
    Molecular point group: c1

    Geometry (in Angstrom), charge = -4, multiplicity = 1:

       Center              X                  Y                   Z               Mass
    ------------   -----------------  -----------------  -----------------  -----------------
         P            2.604121002398     0.098131352714    -0.335365247331    30.973761998420
         P           -0.162092997602    -1.128072647286     0.313337752669    30.973761998420
         P           -2.687598997602     0.490988352714    -0.180156247331    30.973761998420
         O            1.974708002398     1.622359352714    -0.163719247331    15.994914619570
         O            1.272194002398    -0.862702647286    -0.524466247331    15.994914619570
         O            3.289182002398     0.108316352714    -1.677307247331    15.994914619570
         O            3.350185002398    -0.277902647286     0.922820752669    15.994914619570
         O           -1.066436797602     0.338151652714    -0.265696547331    15.994914619570
         O            0.114537002398    -1.064295647286     1.802750752669    15.994914619570
         O           -0.693809997602    -2.415018647286    -0.279849247331    15.994914619570
         O           -3.211516997602    -0.252999647286     1.061956752669    15.994914619570
         O           -2.691597997602     2.024196352714    -0.075388247331    15.994914619570
         O           -3.190138997602    -0.059692647286    -1.526824247331    15.994914619570
         C            1.442920002398     1.983676352714     1.125840752669    12.000000000000
         H            1.038197002398     1.117199352714     1.648419752669     1.007825032230
         H            2.223968002398     2.454736352714     1.730870752669     1.007825032230
         H            0.637319002398     2.697431352714     0.947031752669     1.007825032230

  Basis Set: AUG-CC-PVTZ
    Blend: AUG-CC-PVTZ
  Basis Set: (AUG-CC-PVTZ AUX)
    Blend: AUG-CC-PVTZ-JKFIT
	 Reference Energy          =   -1810.6582860972207527 [Eh]
	 Singles Energy            =      -0.0000000000000000 [Eh]
	 Same-Spin Energy          =      -0.9149783887311921 [Eh]
	 Opposite-Spin Energy      =      -2.5307208350509223 [Eh]
	 Correlation Energy        =      -3.4456992237821145 [Eh]
	 Total Energy              =   -1814.1039853210029378 [Eh]

	 ================> DF-SCS-MP2 Energies <==================
	-----------------------------------------------------------
	 SCS Same-Spin Scale       =       0.3333333333333333 [-]
	 SCS Opposite-Spin Scale   =       1.2000000000000000 [-]
	 SCS Same-Spin Energy      =      -0.3049927962437307 [Eh]
	 SCS Opposite-Spin Energy  =      -3.0368650020611065 [Eh]
	 SCS Correlation Energy    =      -3.3418577983048374 [Eh]
	 SCS Total Energy          =   -1814.0001438955255253 [Eh]
	-----------------------------------------------------------

  Dipole Moment: [D]
     X:    10.9040      Y:     1.3131      Z:     1.9989     Total:    11.1632

*** Psi4 exiting successfully. Buy a developer a beer!
