                               Psi4 1.3.2 release

  ==> Input File <==

--------------------------------------------------------------------------
#psi4
#
memory 32 gb

molecule  {
-4 1
  P        2.5828670     0.0826120    -0.3559070
  P       -0.1833470    -1.1435920     0.2927960
  P       -2.7088530     0.4754690    -0.2006980
  O        1.9534540     1.6068400    -0.1842610
  O        1.2509400    -0.8782220    -0.5450080
  O        3.2679280     0.0927970    -1.6978490
  O        3.3289310    -0.2934220     0.9022790
  O       -0.9881633     0.1663998    -0.2093647
  O        0.0871469    -1.0681066     1.7827885
  O       -0.7150640    -2.4305380    -0.3003910
  O       -3.2327710    -0.2685190     1.0414150
  O       -2.7128520     2.0086770    -0.0959300
  O       -3.2113930    -0.0752120    -1.5473660
  C        1.4216660     1.9681570     1.1052990
  H        1.0169430     1.1016800     1.6278780
  H        2.2027140     2.4392170     1.7103290
  H        0.6160650     2.6819120     0.9264900
units angstrom
no_reorient  #important for SAPT in psi4, default
symmetry c1  #important for SAPT in psi4, default
}

set PROPERTIES_ORIGIN ["COM"]
properties('MP2/aug-cc-pvtz', properties = ['dipole'])
--------------------------------------------------------------------------

    Molecular point group: c1
  Charge       = -4
  Multiplicity = 1
  Basis Set: AUG-CC-PVTZ
    Blend: AUG-CC-PVTZ
  Basis Set: (AUG-CC-PVTZ AUX)
    Blend: AUG-CC-PVTZ-JKFIT

    Orbital Energies [Eh]
    ---------------------

    Doubly Occupied:

       1A    -79.572691     2A    -79.527027     3A    -79.479467
       4A    -20.085496     5A    -20.038766     6A    -20.002947
       7A    -20.002668     8A    -19.992262     9A    -19.949466
      10A    -19.946406    11A    -19.923334    12A    -19.919458
      13A    -19.916649    14A    -10.811217    15A     -7.086511
      16A     -7.039959    17A     -6.992971    18A     -4.985459
      19A     -4.984518    20A     -4.983697    21A     -4.939227
      22A     -4.937867    23A     -4.936913    24A     -4.892433
      25A     -4.890249    26A     -4.890100    27A     -0.901876
      28A     -0.845733    29A     -0.806650    30A     -0.778092
      31A     -0.757723    32A     -0.742040    33A     -0.713010
      34A     -0.700156    35A     -0.663065    36A     -0.658767
      37A     -0.466437    38A     -0.293958    39A     -0.234453
      40A     -0.184111    41A     -0.163772    42A     -0.148578
      43A     -0.125964    44A     -0.098780    45A     -0.082936
      46A     -0.064918    47A     -0.051872    48A     -0.044056
      49A     -0.031915    50A     -0.015949    51A     -0.006670
      52A      0.000331    53A      0.009661    54A      0.014745
      55A      0.021803    56A      0.037336    57A      0.047596
      58A      0.053447    59A      0.066858    60A      0.070829
      61A      0.090849    62A      0.100721    63A      0.102894
      64A      0.104298    65A      0.113670    66A      0.124976
      67A      0.144997    68A      0.150725    69A      0.172384

  @DF-RHF Final Energy: -1810.68896418337636

   => Energetics <=

    Nuclear Repulsion Energy =           1463.0992049919098008
    One-Electron Energy =               -5501.8140986088192221
    Two-Electron Energy =                2228.0259294335332925
    Total Energy =                      -1810.6889641833763562
  Basis Set: (AUG-CC-PVTZ AUX)
    Blend: AUG-CC-PVTZ-RI
    Molecular point group: c1

    Geometry (in Angstrom), charge = -4, multiplicity = 1:

       Center              X                  Y                   Z               Mass
    ------------   -----------------  -----------------  -----------------  -----------------
         P            2.598544961179     0.106760330742    -0.339989673971    30.973761998420
         P           -0.167669038821    -1.119443669258     0.308713326029    30.973761998420
         P           -2.693175038821     0.499617330742    -0.184780673971    30.973761998420
         O            1.969131961179     1.630988330742    -0.168343673971    15.994914619570
         O            1.266617961179    -0.854073669258    -0.529090673971    15.994914619570
         O            3.283605961179     0.116945330742    -1.681931673971    15.994914619570
         O            3.344608961179    -0.269273669258     0.918196326029    15.994914619570
         O           -0.972485338821     0.190548130742    -0.193447373971    15.994914619570
         O            0.102824861179    -1.043958269258     1.798705826029    15.994914619570
         O           -0.699386038821    -2.406389669258    -0.284473673971    15.994914619570
         O           -3.217093038821    -0.244370669258     1.057332326029    15.994914619570
         O           -2.697174038821     2.032825330742    -0.080012673971    15.994914619570
         O           -3.195715038821    -0.051063669258    -1.531448673971    15.994914619570
         C            1.437343961179     1.992305330742     1.121216326029    12.000000000000
         H            1.032620961179     1.125828330742     1.643795326029     1.007825032230
         H            2.218391961179     2.463365330742     1.726246326029     1.007825032230
         H            0.631742961179     2.706060330742     0.942407326029     1.007825032230

  Basis Set: AUG-CC-PVTZ
    Blend: AUG-CC-PVTZ
  Basis Set: (AUG-CC-PVTZ AUX)
    Blend: AUG-CC-PVTZ-JKFIT
	 Reference Energy          =   -1810.6889641833763562 [Eh]
	 Singles Energy            =      -0.0000000000000000 [Eh]
	 Same-Spin Energy          =      -0.9130191765832334 [Eh]
	 Opposite-Spin Energy      =      -2.5257655706438973 [Eh]
	 Correlation Energy        =      -3.4387847472271309 [Eh]
	 Total Energy              =   -1814.1277489306035022 [Eh]

	 ================> DF-SCS-MP2 Energies <==================
	-----------------------------------------------------------
	 SCS Same-Spin Scale       =       0.3333333333333333 [-]
	 SCS Opposite-Spin Scale   =       1.2000000000000000 [-]
	 SCS Same-Spin Energy      =      -0.3043397255277445 [Eh]
	 SCS Opposite-Spin Energy  =      -3.0309186847726766 [Eh]
	 SCS Correlation Energy    =      -3.3352584103004208 [Eh]
	 SCS Total Energy          =   -1814.0242225936767682 [Eh]
	-----------------------------------------------------------

  Dipole Moment: [D]
     X:     9.2789      Y:     2.2948      Z:     1.5880     Total:     9.6895

*** Psi4 exiting successfully. Buy a developer a beer!
