                               Psi4 1.3.2 release

  ==> Input File <==

--------------------------------------------------------------------------
#psi4
#
memory 32 gb

molecule  {
-4 1
  P        2.5828670     0.0826120    -0.3559070
  P       -0.1833470    -1.1435920     0.2927960
  P       -2.7088530     0.4754690    -0.2006980
  O        1.9478275     1.6059456    -0.1975607
  O        1.2509400    -0.8782220    -0.5450080
  O        3.2679280     0.0927970    -1.6978490
  O        3.3319259    -0.3050963     0.8969450
  O       -0.9881700     0.1612780    -0.2225170
  O        0.0932830    -1.0798150     1.7822090
  O       -0.7150640    -2.4305380    -0.3003910
  O       -3.2327710    -0.2685190     1.0414150
  O       -2.7128520     2.0086770    -0.0959300
  O       -3.2113930    -0.0752120    -1.5473660
  C        1.4216660     1.9681570     1.1052990
  H        1.0169430     1.1016800     1.6278780
  H        2.2027140     2.4392170     1.7103290
  H        0.6160650     2.6819120     0.9264900
units angstrom
no_reorient  #important for SAPT in psi4, default
symmetry c1  #important for SAPT in psi4, default
}

set PROPERTIES_ORIGIN ["COM"]
properties('MP2/aug-cc-pvtz', properties = ['dipole'])
--------------------------------------------------------------------------

    Molecular point group: c1
  Charge       = -4
  Multiplicity = 1
  Basis Set: AUG-CC-PVTZ
    Blend: AUG-CC-PVTZ
  Basis Set: (AUG-CC-PVTZ AUX)
    Blend: AUG-CC-PVTZ-JKFIT

    Orbital Energies [Eh]
    ---------------------

    Doubly Occupied:

       1A    -79.572087     2A    -79.526715     3A    -79.479806
       4A    -20.086987     5A    -20.037538     6A    -20.003373
       7A    -20.001334     8A    -19.992819     9A    -19.950098
      10A    -19.945033    11A    -19.923917    12A    -19.919132
      13A    -19.917345    14A    -10.813293    15A     -7.085954
      16A     -7.039645    17A     -6.993310    18A     -4.984894
      19A     -4.983948    20A     -4.983147    21A     -4.938919
      22A     -4.937537    23A     -4.936610    24A     -4.892771
      25A     -4.890586    26A     -4.890436    27A     -0.900497
      28A     -0.844727    29A     -0.806229    30A     -0.777725
      31A     -0.757179    32A     -0.741871    33A     -0.713445
      34A     -0.699493    35A     -0.663428    36A     -0.659004
      37A     -0.467669    38A     -0.293432    39A     -0.233979
      40A     -0.183590    41A     -0.163414    42A     -0.147074
      43A     -0.126007    44A     -0.098892    45A     -0.082302
      46A     -0.064966    47A     -0.051643    48A     -0.044565
      49A     -0.032193    50A     -0.015877    51A     -0.007523
      52A      0.000072    53A      0.009401    54A      0.014940
      55A      0.021630    56A      0.037897    57A      0.047529
      58A      0.053223    59A      0.067304    60A      0.071239
      61A      0.091266    62A      0.100556    63A      0.102393
      64A      0.103973    65A      0.114045    66A      0.125369
      67A      0.144548    68A      0.150560    69A      0.172096

  @DF-RHF Final Energy: -1810.68812470389730

   => Energetics <=

    Nuclear Repulsion Energy =           1462.7816432768429422
    One-Electron Energy =               -5501.1877050610228252
    Two-Electron Energy =                2227.7179370802823541
    Total Energy =                      -1810.6881247038973015
  Basis Set: (AUG-CC-PVTZ AUX)
    Blend: AUG-CC-PVTZ-RI
    Molecular point group: c1

    Geometry (in Angstrom), charge = -4, multiplicity = 1:

       Center              X                  Y                   Z               Mass
    ------------   -----------------  -----------------  -----------------  -----------------
         P            2.598336120997     0.108515625964    -0.338057254476    30.973761998420
         P           -0.167877879003    -1.117688374036     0.310645745524    30.973761998420
         P           -2.693383879003     0.501372625964    -0.182848254476    30.973761998420
         O            1.963296620997     1.631849225964    -0.179710954476    15.994914619570
         O            1.266409120997    -0.852318374036    -0.527158254476    15.994914619570
         O            3.283397120997     0.118700625964    -1.679999254476    15.994914619570
         O            3.347395020997    -0.279192674036     0.914794745524    15.994914619570
         O           -0.972700879003     0.187181625964    -0.204667254476    15.994914619570
         O            0.108752120997    -1.053911374036     1.800058745524    15.994914619570
         O           -0.699594879003    -2.404634374036    -0.282541254476    15.994914619570
         O           -3.217301879003    -0.242615374036     1.059264745524    15.994914619570
         O           -2.697382879003     2.034580625964    -0.078080254476    15.994914619570
         O           -3.195923879003    -0.049308374036    -1.529516254476    15.994914619570
         C            1.437135120997     1.994060625964     1.123148745524    12.000000000000
         H            1.032412120997     1.127583625964     1.645727745524     1.007825032230
         H            2.218183120997     2.465120625964     1.728178745524     1.007825032230
         H            0.631534120997     2.707815625964     0.944339745524     1.007825032230

  Basis Set: AUG-CC-PVTZ
    Blend: AUG-CC-PVTZ
  Basis Set: (AUG-CC-PVTZ AUX)
    Blend: AUG-CC-PVTZ-JKFIT
	 Reference Energy          =   -1810.6881247038973015 [Eh]
	 Singles Energy            =      -0.0000000000000000 [Eh]
	 Same-Spin Energy          =      -0.9130811661461536 [Eh]
	 Opposite-Spin Energy      =      -2.5260669312222719 [Eh]
	 Correlation Energy        =      -3.4391480973684256 [Eh]
	 Total Energy              =   -1814.1272728012656898 [Eh]

	 ================> DF-SCS-MP2 Energies <==================
	-----------------------------------------------------------
	 SCS Same-Spin Scale       =       0.3333333333333333 [-]
	 SCS Opposite-Spin Scale   =       1.2000000000000000 [-]
	 SCS Same-Spin Energy      =      -0.3043603887153845 [Eh]
	 SCS Opposite-Spin Energy  =      -3.0312803174667260 [Eh]
	 SCS Correlation Energy    =      -3.3356407061821107 [Eh]
	 SCS Total Energy          =   -1814.0237654100794771 [Eh]
	-----------------------------------------------------------

  Dipole Moment: [D]
     X:     9.2503      Y:     2.3813      Z:     1.6578     Total:     9.6947

*** Psi4 exiting successfully. Buy a developer a beer!
