                               Psi4 1.3.2 release

  ==> Input File <==

--------------------------------------------------------------------------
#psi4
#
memory 32 gb

molecule  {
-4 1
  P        2.5828670     0.0826120    -0.3559070
  P       -0.1833470    -1.1435920     0.2927960
  P       -2.7088530     0.4754690    -0.2006980
  O        1.9534540     1.6068400    -0.1842610
  O        1.2509400    -0.8782220    -0.5450080
  O        3.2679280     0.0927970    -1.6978490
  O        3.3289310    -0.2934220     0.9022790
  O       -0.9881700     0.1612780    -0.2225170
  O        0.0932830    -1.0798150     1.7822090
  O       -0.7150640    -2.4305380    -0.3003910
  O       -3.2327710    -0.2685190     1.0414150
  O       -2.7123316     1.8091430    -0.1095647
  O       -3.2113930    -0.0752120    -1.5473660
  C        1.4216660     1.9681570     1.1052990
  H        1.0169430     1.1016800     1.6278780
  H        2.2027140     2.4392170     1.7103290
  H        0.6160650     2.6819120     0.9264900
units angstrom
no_reorient  #important for SAPT in psi4, default
symmetry c1  #important for SAPT in psi4, default
}

set PROPERTIES_ORIGIN ["COM"]
properties('MP2/aug-cc-pvtz', properties = ['dipole'])
--------------------------------------------------------------------------

    Molecular point group: c1
  Charge       = -4
  Multiplicity = 1
  Basis Set: AUG-CC-PVTZ
    Blend: AUG-CC-PVTZ
  Basis Set: (AUG-CC-PVTZ AUX)
    Blend: AUG-CC-PVTZ-JKFIT

    Orbital Energies [Eh]
    ---------------------

    Doubly Occupied:

       1A    -79.570545     2A    -79.518972     3A    -79.432373
       4A    -20.085212     5A    -20.033712     6A    -20.001111
       7A    -20.000904     8A    -19.979043     9A    -19.944451
      10A    -19.938489    11A    -19.908674    12A    -19.899971
      13A    -19.898138    14A    -10.812662    15A     -7.084360
      16A     -7.032008    17A     -6.957871    18A     -4.983325
      19A     -4.982344    20A     -4.981559    21A     -4.931328
      22A     -4.929801    23A     -4.929007    24A     -4.857909
      25A     -4.855243    26A     -4.853075    27A     -0.900677
      28A     -0.842262    29A     -0.817508    30A     -0.792471
      31A     -0.756196    32A     -0.753679    33A     -0.717990
      34A     -0.693295    35A     -0.670198    36A     -0.642448
      37A     -0.467367    38A     -0.289521    39A     -0.230291
      40A     -0.178533    41A     -0.161755    42A     -0.148600
      43A     -0.122718    44A     -0.093646    45A     -0.080295
      46A     -0.065166    47A     -0.048067    48A     -0.043009
      49A     -0.031175    50A     -0.015254    51A     -0.009709
      52A     -0.004717    53A      0.007951    54A      0.015405
      55A      0.020142    56A      0.038020    57A      0.049869
      58A      0.055240    59A      0.069968    60A      0.073183
      61A      0.084180    62A      0.095785    63A      0.102556
      64A      0.112144    65A      0.120413    66A      0.131101
      67A      0.147937    68A      0.163991    69A      0.184289

  @DF-RHF Final Energy: -1810.64793804466262

   => Energetics <=

    Nuclear Repulsion Energy =           1473.1832189196297804
    One-Electron Energy =               -5522.6493922868185109
    Two-Electron Energy =                2238.8182353225261068
    Total Energy =                      -1810.6479380446626237
  Basis Set: (AUG-CC-PVTZ AUX)
    Blend: AUG-CC-PVTZ-RI
    Molecular point group: c1

    Geometry (in Angstrom), charge = -4, multiplicity = 1:

       Center              X                  Y                   Z               Mass
    ------------   -----------------  -----------------  -----------------  -----------------
         P            2.598147927203     0.119678604774    -0.338355725535    30.973761998420
         P           -0.168066072797    -1.106525395226     0.310347274465    30.973761998420
         P           -2.693572072797     0.512535604774    -0.183146725535    30.973761998420
         O            1.968734927203     1.643906604774    -0.166709725535    15.994914619570
         O            1.266220927203    -0.841155395226    -0.527456725535    15.994914619570
         O            3.283208927203     0.129863604774    -1.680297725535    15.994914619570
         O            3.344211927203    -0.256355395226     0.919830274465    15.994914619570
         O           -0.972889072797     0.198344604774    -0.204965725535    15.994914619570
         O            0.108563927203    -1.042748395226     1.799760274465    15.994914619570
         O           -0.699783072797    -2.393471395226    -0.282839725535    15.994914619570
         O           -3.217490072797    -0.231452395226     1.058966274465    15.994914619570
         O           -2.697050672797     1.846209604774    -0.092013425535    15.994914619570
         O           -3.196112072797    -0.038145395226    -1.529814725535    15.994914619570
         C            1.436946927203     2.005223604774     1.122850274465    12.000000000000
         H            1.032223927203     1.138746604774     1.645429274465     1.007825032230
         H            2.217994927203     2.476283604774     1.727880274465     1.007825032230
         H            0.631345927203     2.718978604774     0.944041274465     1.007825032230

  Basis Set: AUG-CC-PVTZ
    Blend: AUG-CC-PVTZ
  Basis Set: (AUG-CC-PVTZ AUX)
    Blend: AUG-CC-PVTZ-JKFIT
	 Reference Energy          =   -1810.6479380446626237 [Eh]
	 Singles Energy            =      -0.0000000000000000 [Eh]
	 Same-Spin Energy          =      -0.9097386683728216 [Eh]
	 Opposite-Spin Energy      =      -2.5172087538287573 [Eh]
	 Correlation Energy        =      -3.4269474222015788 [Eh]
	 Total Energy              =   -1814.0748854668640888 [Eh]

	 ================> DF-SCS-MP2 Energies <==================
	-----------------------------------------------------------
	 SCS Same-Spin Scale       =       0.3333333333333333 [-]
	 SCS Opposite-Spin Scale   =       1.2000000000000000 [-]
	 SCS Same-Spin Energy      =      -0.3032462227909405 [Eh]
	 SCS Opposite-Spin Energy  =      -3.0206505045945087 [Eh]
	 SCS Correlation Energy    =      -3.3238967273854492 [Eh]
	 SCS Total Energy          =   -1813.9718347720481688 [Eh]
	-----------------------------------------------------------

  Dipole Moment: [D]
     X:     9.1129      Y:     3.8825      Z:     1.6897     Total:    10.0486

*** Psi4 exiting successfully. Buy a developer a beer!
