                               Psi4 1.3.2 release

  ==> Input File <==

--------------------------------------------------------------------------
#psi4
#
memory 32 gb

molecule  {
-4 1
  P        2.5828670     0.0826120    -0.3559070
  P       -0.1833470    -1.1435920     0.2927960
  P       -2.7088530     0.4754690    -0.2006980
  O        1.9534540     1.6068400    -0.1842610
  O        1.2509400    -0.8782220    -0.5450080
  O        3.2679280     0.0927970    -1.6978490
  O        3.3289310    -0.2934220     0.9022790
  O       -1.0209424     0.1275209    -0.2537195
  O        0.0932830    -1.0798150     1.7822090
  O       -0.7510086    -2.4023629    -0.3269459
  O       -3.2327710    -0.2685190     1.0414150
  O       -2.7128520     2.0086770    -0.0959300
  O       -3.2113930    -0.0752120    -1.5473660
  C        1.4216660     1.9681570     1.1052990
  H        1.0169430     1.1016800     1.6278780
  H        2.2027140     2.4392170     1.7103290
  H        0.6160650     2.6819120     0.9264900
units angstrom
no_reorient  #important for SAPT in psi4, default
symmetry c1  #important for SAPT in psi4, default
}

set PROPERTIES_ORIGIN ["COM"]
properties('MP2/aug-cc-pvtz', properties = ['dipole'])
--------------------------------------------------------------------------

    Molecular point group: c1
  Charge       = -4
  Multiplicity = 1
  Basis Set: AUG-CC-PVTZ
    Blend: AUG-CC-PVTZ
  Basis Set: (AUG-CC-PVTZ AUX)
    Blend: AUG-CC-PVTZ-JKFIT

    Orbital Energies [Eh]
    ---------------------

    Doubly Occupied:

       1A    -79.574420     2A    -79.528826     3A    -79.475728
       4A    -20.087510     5A    -20.041468     6A    -20.004591
       7A    -20.004018     8A    -19.989821     9A    -19.955251
      10A    -19.942897    11A    -19.922239    12A    -19.914042
      13A    -19.913562    14A    -10.813586    15A     -7.088256
      16A     -7.041596    17A     -6.989379    18A     -4.987204
      19A     -4.986266    20A     -4.985431    21A     -4.940846
      22A     -4.939617    23A     -4.938489    24A     -4.888877
      25A     -4.886699    26A     -4.886533    27A     -0.903846
      28A     -0.847641    29A     -0.808532    30A     -0.779978
      31A     -0.759237    32A     -0.742451    33A     -0.712234
      34A     -0.700099    35A     -0.660849    36A     -0.655115
      37A     -0.468710    38A     -0.296338    39A     -0.237375
      40A     -0.186876    41A     -0.166331    42A     -0.150604
      43A     -0.127587    44A     -0.098831    45A     -0.083945
      46A     -0.064299    47A     -0.053620    48A     -0.045437
      49A     -0.032976    50A     -0.016953    51A     -0.008466
      52A      0.000238    53A      0.009200    54A      0.013751
      55A      0.024113    56A      0.036000    57A      0.047461
      58A      0.051745    59A      0.065718    60A      0.069848
      61A      0.091222    62A      0.101035    63A      0.104326
      64A      0.106040    65A      0.114835    66A      0.125187
      67A      0.147770    68A      0.154826    69A      0.175458

  @DF-RHF Final Energy: -1810.68827560684394

   => Energetics <=

    Nuclear Repulsion Energy =           1463.5964907469278842
    One-Electron Energy =               -5502.7761165108067871
    Two-Electron Energy =                2228.4913501570349581
    Total Energy =                      -1810.6882756068439448
  Basis Set: (AUG-CC-PVTZ AUX)
    Blend: AUG-CC-PVTZ-RI
    Molecular point group: c1

    Geometry (in Angstrom), charge = -4, multiplicity = 1:

       Center              X                  Y                   Z               Mass
    ------------   -----------------  -----------------  -----------------  -----------------
         P            2.602281826001     0.108098476985    -0.335721328857    30.973761998420
         P           -0.163932173999    -1.118105523015     0.312981671143    30.973761998420
         P           -2.689438173999     0.500955476985    -0.180512328857    30.973761998420
         O            1.972868826001     1.632326476985    -0.164075328857    15.994914619570
         O            1.270354826001    -0.852735523015    -0.524822328857    15.994914619570
         O            3.287342826001     0.118283476985    -1.677663328857    15.994914619570
         O            3.348345826001    -0.267935523015     0.922464671143    15.994914619570
         O           -1.001527573999     0.153007376985    -0.233533828857    15.994914619570
         O            0.112697826001    -1.054328523015     1.802394671143    15.994914619570
         O           -0.731593773999    -2.376876423015    -0.306760228857    15.994914619570
         O           -3.213356173999    -0.243032523015     1.061600671143    15.994914619570
         O           -2.693437173999     2.034163476985    -0.075744328857    15.994914619570
         O           -3.191978173999    -0.049725523015    -1.527180328857    15.994914619570
         C            1.441080826001     1.993643476985     1.125484671143    12.000000000000
         H            1.036357826001     1.127166476985     1.648063671143     1.007825032230
         H            2.222128826001     2.464703476985     1.730514671143     1.007825032230
         H            0.635479826001     2.707398476985     0.946675671143     1.007825032230

  Basis Set: AUG-CC-PVTZ
    Blend: AUG-CC-PVTZ
  Basis Set: (AUG-CC-PVTZ AUX)
    Blend: AUG-CC-PVTZ-JKFIT
	 Reference Energy          =   -1810.6882756068439448 [Eh]
	 Singles Energy            =      -0.0000000000000000 [Eh]
	 Same-Spin Energy          =      -0.9128396563335330 [Eh]
	 Opposite-Spin Energy      =      -2.5252286053684294 [Eh]
	 Correlation Energy        =      -3.4380682617019627 [Eh]
	 Total Energy              =   -1814.1263438685459732 [Eh]

	 ================> DF-SCS-MP2 Energies <==================
	-----------------------------------------------------------
	 SCS Same-Spin Scale       =       0.3333333333333333 [-]
	 SCS Opposite-Spin Scale   =       1.2000000000000000 [-]
	 SCS Same-Spin Energy      =      -0.3042798854445110 [Eh]
	 SCS Opposite-Spin Energy  =      -3.0302743264421150 [Eh]
	 SCS Correlation Energy    =      -3.3345542118866263 [Eh]
	 SCS Total Energy          =   -1814.0228298187305427 [Eh]
	-----------------------------------------------------------

  Dipole Moment: [D]
     X:     9.6165      Y:     2.2817      Z:     1.7450     Total:    10.0363

*** Psi4 exiting successfully. Buy a developer a beer!
