                               Psi4 1.3.2 release

  ==> Input File <==

--------------------------------------------------------------------------
#psi4
#
memory 32 gb

molecule  {
-4 1
  P        2.5828670     0.0826120    -0.3559070
  P       -0.1833470    -1.1435920     0.2927960
  P       -2.7088530     0.4754690    -0.2006980
  O        1.9648504     1.6082805    -0.1577019
  O        1.2509400    -0.8782220    -0.5450080
  O        3.2679280     0.0927970    -1.6978490
  O        3.3227709    -0.2699884     0.9126592
  O       -0.9881700     0.1612780    -0.2225170
  O        0.0932830    -1.0798150     1.7822090
  O       -0.7150640    -2.4305380    -0.3003910
  O       -3.2327710    -0.2685190     1.0414150
  O       -2.7128520     2.0086770    -0.0959300
  O       -3.2113930    -0.0752120    -1.5473660
  C        1.4216660     1.9681570     1.1052990
  H        1.0169430     1.1016800     1.6278780
  H        2.2027140     2.4392170     1.7103290
  H        0.6160650     2.6819120     0.9264900
units angstrom
no_reorient  #important for SAPT in psi4, default
symmetry c1  #important for SAPT in psi4, default
}

set PROPERTIES_ORIGIN ["COM"]
properties('MP2/aug-cc-pvtz', properties = ['dipole'])
--------------------------------------------------------------------------

    Molecular point group: c1
  Charge       = -4
  Multiplicity = 1
  Basis Set: AUG-CC-PVTZ
    Blend: AUG-CC-PVTZ
  Basis Set: (AUG-CC-PVTZ AUX)
    Blend: AUG-CC-PVTZ-JKFIT

    Orbital Energies [Eh]
    ---------------------

    Doubly Occupied:

       1A    -79.573525     2A    -79.527312     3A    -79.479932
       4A    -20.082876     5A    -20.039818     6A    -20.004972
       7A    -20.001730     8A    -19.993243     9A    -19.950112
      10A    -19.945671    11A    -19.923886    12A    -19.919316
      13A    -19.917413    14A    -10.808511    15A     -7.087256
      16A     -7.040254    17A     -6.993438    18A     -4.986233
      19A     -4.985281    20A     -4.984423    21A     -4.939541
      22A     -4.938136    23A     -4.937202    24A     -4.892901
      25A     -4.890710    26A     -4.890562    27A     -0.904920
      28A     -0.847496    29A     -0.807473    30A     -0.778672
      31A     -0.758369    32A     -0.742393    33A     -0.713674
      34A     -0.699851    35A     -0.663458    36A     -0.659128
      37A     -0.465146    38A     -0.294581    39A     -0.235889
      40A     -0.184996    41A     -0.165208    42A     -0.152150
      43A     -0.125948    44A     -0.098998    45A     -0.083916
      46A     -0.065160    47A     -0.052652    48A     -0.042991
      49A     -0.031207    50A     -0.016704    51A     -0.004947
      52A      0.000335    53A      0.010485    54A      0.014476
      55A      0.021613    56A      0.036289    57A      0.047136
      58A      0.054507    59A      0.066463    60A      0.070316
      61A      0.090661    62A      0.100435    63A      0.102236
      64A      0.103805    65A      0.113733    66A      0.125142
      67A      0.144480    68A      0.150392    69A      0.172022

  @DF-RHF Final Energy: -1810.68994775712099

   => Energetics <=

    Nuclear Repulsion Energy =           1463.2127137849954579
    One-Electron Energy =               -5501.9940082830789834
    Two-Electron Energy =                2228.0913467409623081
    Total Energy =                      -1810.6899477571209900
  Basis Set: (AUG-CC-PVTZ AUX)
    Blend: AUG-CC-PVTZ-RI
    Molecular point group: c1

    Geometry (in Angstrom), charge = -4, multiplicity = 1:

       Center              X                  Y                   Z               Mass
    ------------   -----------------  -----------------  -----------------  -----------------
         P            2.597866358956     0.106280060418    -0.341375304517    30.973761998420
         P           -0.168347641044    -1.119923939582     0.307327695483    30.973761998420
         P           -2.693853641044     0.499137060418    -0.186166304517    30.973761998420
         O            1.979849758956     1.631948560418    -0.143170204517    15.994914619570
         O            1.265939358956    -0.854553939582    -0.530476304517    15.994914619570
         O            3.282927358956     0.116465060418    -1.683317304517    15.994914619570
         O            3.337770258956    -0.246320339582     0.927190895483    15.994914619570
         O           -0.973170641044     0.184946060418    -0.207985304517    15.994914619570
         O            0.108282358956    -1.056146939582     1.796740695483    15.994914619570
         O           -0.700064641044    -2.406869939582    -0.285859304517    15.994914619570
         O           -3.217771641044    -0.244850939582     1.055946695483    15.994914619570
         O           -2.697852641044     2.032345060418    -0.081398304517    15.994914619570
         O           -3.196393641044    -0.051543939582    -1.532834304517    15.994914619570
         C            1.436665358956     1.991825060418     1.119830695483    12.000000000000
         H            1.031942358956     1.125348060418     1.642409695483     1.007825032230
         H            2.217713358956     2.462885060418     1.724860695483     1.007825032230
         H            0.631064358956     2.705580060418     0.941021695483     1.007825032230

  Basis Set: AUG-CC-PVTZ
    Blend: AUG-CC-PVTZ
  Basis Set: (AUG-CC-PVTZ AUX)
    Blend: AUG-CC-PVTZ-JKFIT
	 Reference Energy          =   -1810.6899477571209900 [Eh]
	 Singles Energy            =      -0.0000000000000000 [Eh]
	 Same-Spin Energy          =      -0.9128939707532220 [Eh]
	 Opposite-Spin Energy      =      -2.5252303106065561 [Eh]
	 Correlation Energy        =      -3.4381242813597783 [Eh]
	 Total Energy              =   -1814.1280720384806955 [Eh]

	 ================> DF-SCS-MP2 Energies <==================
	-----------------------------------------------------------
	 SCS Same-Spin Scale       =       0.3333333333333333 [-]
	 SCS Opposite-Spin Scale   =       1.2000000000000000 [-]
	 SCS Same-Spin Energy      =      -0.3042979902510740 [Eh]
	 SCS Opposite-Spin Energy  =      -3.0302763727278674 [Eh]
	 SCS Correlation Energy    =      -3.3345743629789415 [Eh]
	 SCS Total Energy          =   -1814.0245221200998458 [Eh]
	-----------------------------------------------------------

  Dipole Moment: [D]
     X:     9.2694      Y:     2.2504      Z:     1.5083     Total:     9.6571

*** Psi4 exiting successfully. Buy a developer a beer!
