                               Psi4 1.4a3.dev225

  ==> Input File <==

--------------------------------------------------------------------------
#psi4
#
memory 32 gb

molecule  {
-4 1
  P       -2.5202440    -0.2449420     0.3712220
  P        0.3565170    -0.5960480    -0.3589090
  P        3.1750170     0.3881900     0.1554910
  O       -2.7927880     1.3311510    -0.1150520
  O       -0.9169740    -0.0836090     0.6422800
  O       -3.1856250    -0.4605710     1.7148300
  O       -2.8507450    -1.1694890    -0.7786080
  O        1.4898640     0.0841660     0.5723090
  O        0.2079761     0.1074189    -1.7492953
  O        0.4027150    -2.1095660    -0.2874290
  O        3.5327910    -0.6840640    -0.8835370
  O        3.1643710     1.8286230    -0.3742880
  O        3.8338960     0.2099350     1.5311200
  C       -4.1398760     1.5889580    -0.5252390
  H       -4.4292020     0.9309370    -1.3496150
  H       -4.8386320     1.4471050     0.3059850
  H       -4.1840730     2.6280350    -0.8559160
units angstrom
no_reorient  #important for SAPT in psi4, default
symmetry c1  #important for SAPT in psi4, default
}

set PROPERTIES_ORIGIN ["COM"]
properties('MP2/aug-cc-pvtz', properties = ['dipole'])
--------------------------------------------------------------------------

    Molecular point group: c1
  Charge       = -4
  Multiplicity = 1
  Basis Set: AUG-CC-PVTZ
    Blend: AUG-CC-PVTZ
  Basis Set: (AUG-CC-PVTZ AUX)
    Blend: AUG-CC-PVTZ-JKFIT

    Orbital Energies [Eh]
    ---------------------

    Doubly Occupied:

       1A    -79.581853     2A    -79.526124     3A    -79.476501
       4A    -20.119348     5A    -20.045095     6A    -20.016010
       7A    -20.005583     8A    -19.988129     9A    -19.941440
      10A    -19.937225    11A    -19.923023    12A    -19.917514
      13A    -19.913965    14A    -10.883475    15A     -7.096128
      16A     -7.037642    17A     -6.990280    18A     -4.995269
      19A     -4.993978    20A     -4.993047    21A     -4.937159
      22A     -4.935517    23A     -4.934128    24A     -4.889695
      25A     -4.887552    26A     -4.887416    27A     -0.931734
      28A     -0.854798    29A     -0.807521    30A     -0.779837
      31A     -0.761952    32A     -0.734413    33A     -0.706196
      34A     -0.676399    35A     -0.662807    36A     -0.657929
      37A     -0.528330    38A     -0.310233    39A     -0.253818
      40A     -0.220799    41A     -0.197401    42A     -0.166251
      43A     -0.141356    44A     -0.109864    45A     -0.094881
      46A     -0.079909    47A     -0.063587    48A     -0.052921
      49A     -0.035723    50A     -0.025759    51A     -0.013702
      52A     -0.009674    53A      0.008618    54A      0.012336
      55A      0.023007    56A      0.033848    57A      0.047701
      58A      0.055693    59A      0.062009    60A      0.083651
      61A      0.098052    62A      0.102894    63A      0.105826
      64A      0.107681    65A      0.127680    66A      0.136688
      67A      0.147147    68A      0.153328    69A      0.173844

  @DF-RHF Final Energy: -1810.66952379633244

   => Energetics <=

    Nuclear Repulsion Energy =           1423.2030842784624838
    One-Electron Energy =               -5421.2434485930198207
    Two-Electron Energy =                2187.3708405182246679
    Total Energy =                      -1810.6695237963326690
  Basis Set: (AUG-CC-PVTZ AUX)
    Blend: AUG-CC-PVTZ-RI
    Molecular point group: c1

    Geometry (in Angstrom), charge = -4, multiplicity = 1:

       Center              X                  Y                   Z               Mass
    ------------   -----------------  -----------------  -----------------  -----------------
         P           -2.573402353397    -0.226115724426     0.366234453015    30.973761998420
         P            0.303358646603    -0.577221724426    -0.363896546985    30.973761998420
         P            3.121858646603     0.407016275574     0.150503453015    30.973761998420
         O           -2.845946353397     1.349977275574    -0.120039546985    15.994914619570
         O           -0.970132353397    -0.064782724426     0.637292453015    15.994914619570
         O           -3.238783353397    -0.441744724426     1.709842453015    15.994914619570
         O           -2.903903353397    -1.150662724426    -0.783595546985    15.994914619570
         O            1.436705646603     0.102992275574     0.567321453015    15.994914619570
         O            0.154817746603     0.126245175574    -1.754282846985    15.994914619570
         O            0.349556646603    -2.090739724426    -0.292416546985    15.994914619570
         O            3.479632646603    -0.665237724426    -0.888524546985    15.994914619570
         O            3.111212646603     1.847449275574    -0.379275546985    15.994914619570
         O            3.780737646603     0.228761275574     1.526132453015    15.994914619570
         C           -4.193034353397     1.607784275574    -0.530226546985    12.000000000000
         H           -4.482360353397     0.949763275574    -1.354602546985     1.007825032230
         H           -4.891790353397     1.465931275574     0.300997453015     1.007825032230
         H           -4.237231353397     2.646861275574    -0.860903546985     1.007825032230

  Basis Set: AUG-CC-PVTZ
    Blend: AUG-CC-PVTZ
  Basis Set: (AUG-CC-PVTZ AUX)
    Blend: AUG-CC-PVTZ-JKFIT
	 Reference Energy          =   -1810.6695237963324416 [Eh]
	 Singles Energy            =      -0.0000000000000000 [Eh]
	 Same-Spin Energy          =      -0.9133248469145586 [Eh]
	 Opposite-Spin Energy      =      -2.5276736858742588 [Eh]
	 Correlation Energy        =      -3.4409985327888175 [Eh]
	 Total Energy              =   -1814.1105223291212951 [Eh]

	 ================> DF-SCS-MP2 Energies <==================
	-----------------------------------------------------------
	 SCS Same-Spin Scale       =       0.3333333333333333 [-]
	 SCS Opposite-Spin Scale   =       1.2000000000000000 [-]
	 SCS Same-Spin Energy      =      -0.3044416156381862 [Eh]
	 SCS Opposite-Spin Energy  =      -3.0332084230491105 [Eh]
	 SCS Correlation Energy    =      -3.3376500386872969 [Eh]
	 SCS Total Energy          =   -1814.0071738350197847 [Eh]
	-----------------------------------------------------------

  Dipole Moment: [D]
     X:   -14.9387      Y:     2.6025      Z:     0.2600     Total:    15.1659

*** Psi4 exiting successfully. Buy a developer a beer!
