                               Psi4 1.3.2 release

  ==> Input File <==

--------------------------------------------------------------------------
#psi4
#
memory 32 gb

molecule  {
-4 1
  P        2.5828670     0.0826120    -0.3559070
  P       -0.1351206    -1.1188753     0.2769702
  P       -2.6981710     0.5298205    -0.2263861
  O        1.9534540     1.6068400    -0.1842610
  O        1.2509400    -0.8782220    -0.5450080
  O        3.2679280     0.0927970    -1.6978490
  O        3.3289310    -0.2934220     0.9022790
  O       -0.9881700     0.1612780    -0.2225170
  O        0.0932830    -1.0798150     1.7822090
  O       -0.7150640    -2.4305380    -0.3003910
  O       -3.2327710    -0.2685190     1.0414150
  O       -2.7128520     2.0086770    -0.0959300
  O       -3.2113930    -0.0752120    -1.5473660
  C        1.4216660     1.9681570     1.1052990
  H        1.0169430     1.1016800     1.6278780
  H        2.2027140     2.4392170     1.7103290
  H        0.6160650     2.6819120     0.9264900
units angstrom
no_reorient  #important for SAPT in psi4, default
symmetry c1  #important for SAPT in psi4, default
}

set PROPERTIES_ORIGIN ["COM"]
properties('MP2/aug-cc-pvtz', properties = ['dipole'])
--------------------------------------------------------------------------

    Molecular point group: c1
  Charge       = -4
  Multiplicity = 1
  Basis Set: AUG-CC-PVTZ
    Blend: AUG-CC-PVTZ
  Basis Set: (AUG-CC-PVTZ AUX)
    Blend: AUG-CC-PVTZ-JKFIT

    Orbital Energies [Eh]
    ---------------------

    Doubly Occupied:

       1A    -79.580707     2A    -79.526418     3A    -79.477954
       4A    -20.091525     5A    -20.051890     6A    -20.008778
       7A    -20.008661     8A    -19.988303     9A    -19.945851
      10A    -19.934621    11A    -19.932716    12A    -19.917758
      13A    -19.905010    14A    -10.815643    15A     -7.094538
      16A     -7.038711    17A     -6.991836    18A     -4.993474
      19A     -4.992598    20A     -4.991646    21A     -4.938113
      22A     -4.936701    23A     -4.935584    24A     -4.891250
      25A     -4.889417    26A     -4.888630    27A     -0.910555
      28A     -0.858724    29A     -0.807726    30A     -0.785382
      31A     -0.763585    32A     -0.742418    33A     -0.712427
      34A     -0.681546    35A     -0.672473    36A     -0.635965
      37A     -0.471367    38A     -0.308726    39A     -0.240073
      40A     -0.191099    41A     -0.169329    42A     -0.154378
      43A     -0.131901    44A     -0.098698    45A     -0.088743
      46A     -0.069987    47A     -0.055651    48A     -0.047372
      49A     -0.030658    50A     -0.017050    51A     -0.013232
      52A     -0.001184    53A      0.005399    54A      0.012545
      55A      0.026663    56A      0.031430    57A      0.047307
      58A      0.052129    59A      0.062860    60A      0.075296
      61A      0.089359    62A      0.099702    63A      0.104412
      64A      0.113986    65A      0.124292    66A      0.134063
      67A      0.145712    68A      0.162706    69A      0.178801

  @DF-RHF Final Energy: -1810.67852929266610

   => Energetics <=

    Nuclear Repulsion Energy =           1463.6059362980627157
    One-Electron Energy =               -5502.6450922554286080
    Two-Electron Energy =                2228.3606266646997938
    Total Energy =                      -1810.6785292926660986
  Basis Set: (AUG-CC-PVTZ AUX)
    Blend: AUG-CC-PVTZ-RI
    Molecular point group: c1

    Geometry (in Angstrom), charge = -4, multiplicity = 1:

       Center              X                  Y                   Z               Mass
    ------------   -----------------  -----------------  -----------------  -----------------
         P            2.591368038007     0.098623370785    -0.334369984289    30.973761998420
         P           -0.126619561993    -1.102863929215     0.298507215711    30.973761998420
         P           -2.689669961993     0.545831870785    -0.204849084289    30.973761998420
         O            1.961955038007     1.622851370785    -0.162723984289    15.994914619570
         O            1.259441038007    -0.862210629215    -0.523470984289    15.994914619570
         O            3.276429038007     0.108808370785    -1.676311984289    15.994914619570
         O            3.337432038007    -0.277410629215     0.923816015711    15.994914619570
         O           -0.979668961993     0.177289370785    -0.200979984289    15.994914619570
         O            0.101784038007    -1.063803629215     1.803746015711    15.994914619570
         O           -0.706562961993    -2.414526629215    -0.278853984289    15.994914619570
         O           -3.224269961993    -0.252507629215     1.062952015711    15.994914619570
         O           -2.704350961993     2.024688370785    -0.074392984289    15.994914619570
         O           -3.202891961993    -0.059200629215    -1.525828984289    15.994914619570
         C            1.430167038007     1.984168370785     1.126836015711    12.000000000000
         H            1.025444038007     1.117691370785     1.649415015711     1.007825032230
         H            2.211215038007     2.455228370785     1.731866015711     1.007825032230
         H            0.624566038007     2.697923370785     0.948027015711     1.007825032230

  Basis Set: AUG-CC-PVTZ
    Blend: AUG-CC-PVTZ
  Basis Set: (AUG-CC-PVTZ AUX)
    Blend: AUG-CC-PVTZ-JKFIT
	 Reference Energy          =   -1810.6785292926660986 [Eh]
	 Singles Energy            =      -0.0000000000000000 [Eh]
	 Same-Spin Energy          =      -0.9133056506702379 [Eh]
	 Opposite-Spin Energy      =      -2.5263054683918531 [Eh]
	 Correlation Energy        =      -3.4396111190620910 [Eh]
	 Total Energy              =   -1814.1181404117282909 [Eh]

	 ================> DF-SCS-MP2 Energies <==================
	-----------------------------------------------------------
	 SCS Same-Spin Scale       =       0.3333333333333333 [-]
	 SCS Opposite-Spin Scale   =       1.2000000000000000 [-]
	 SCS Same-Spin Energy      =      -0.3044352168900793 [Eh]
	 SCS Opposite-Spin Energy  =      -3.0315665620702235 [Eh]
	 SCS Correlation Energy    =      -3.3360017789603029 [Eh]
	 SCS Total Energy          =   -1814.0145310716263793 [Eh]
	-----------------------------------------------------------

  Dipole Moment: [D]
     X:    10.1833      Y:     3.4900      Z:     1.1215     Total:    10.8230

*** Psi4 exiting successfully. Buy a developer a beer!
