                               Psi4 1.3.2 release

  ==> Input File <==

--------------------------------------------------------------------------
#psi4
#
memory 32 gb

molecule  {
-4 1
  P        2.5884687     0.0771214    -0.3680149
  P       -0.1873281    -1.1534925     0.2827159
  P       -2.7088530     0.4754690    -0.2006980
  O        1.9534540     1.6068400    -0.1842610
  O        1.2509400    -0.8782220    -0.5450080
  O        3.2679280     0.0927970    -1.6978490
  O        3.3289310    -0.2934220     0.9022790
  O       -0.9881700     0.1612780    -0.2225170
  O        0.0932830    -1.0798150     1.7822090
  O       -0.7150640    -2.4305380    -0.3003910
  O       -3.2327710    -0.2685190     1.0414150
  O       -2.7128520     2.0086770    -0.0959300
  O       -3.2113930    -0.0752120    -1.5473660
  C        1.4216660     1.9681570     1.1052990
  H        1.0169430     1.1016800     1.6278780
  H        2.2027140     2.4392170     1.7103290
  H        0.6160650     2.6819120     0.9264900
units angstrom
no_reorient  #important for SAPT in psi4, default
symmetry c1  #important for SAPT in psi4, default
}

set PROPERTIES_ORIGIN ["COM"]
properties('MP2/aug-cc-pvtz', properties = ['dipole'])
--------------------------------------------------------------------------

    Molecular point group: c1
  Charge       = -4
  Multiplicity = 1
  Basis Set: AUG-CC-PVTZ
    Blend: AUG-CC-PVTZ
  Basis Set: (AUG-CC-PVTZ AUX)
    Blend: AUG-CC-PVTZ-JKFIT

    Orbital Energies [Eh]
    ---------------------

    Doubly Occupied:

       1A    -79.572342     2A    -79.526747     3A    -79.479353
       4A    -20.082607     5A    -20.037580     6A    -20.005314
       7A    -20.001565     8A    -19.992181     9A    -19.948000
      10A    -19.947498    11A    -19.923418    12A    -19.919078
      13A    -19.916960    14A    -10.809207    15A     -7.086224
      16A     -7.039708    17A     -6.992864    18A     -4.985154
      19A     -4.984245    20A     -4.983426    21A     -4.938986
      22A     -4.937607    23A     -4.936655    24A     -4.892317
      25A     -4.890145    26A     -4.889997    27A     -0.898826
      28A     -0.844286    29A     -0.807479    30A     -0.778759
      31A     -0.758530    32A     -0.742516    33A     -0.713547
      34A     -0.699553    35A     -0.663044    36A     -0.658784
      37A     -0.463809    38A     -0.293655    39A     -0.232048
      40A     -0.182337    41A     -0.161582    42A     -0.146264
      43A     -0.125637    44A     -0.098840    45A     -0.083601
      46A     -0.064715    47A     -0.052200    48A     -0.042544
      49A     -0.030414    50A     -0.016497    51A     -0.005502
      52A      0.000671    53A      0.010205    54A      0.014295
      55A      0.021609    56A      0.035621    57A      0.047744
      58A      0.055034    59A      0.066420    60A      0.070312
      61A      0.089311    62A      0.100925    63A      0.103275
      64A      0.104671    65A      0.113906    66A      0.124973
      67A      0.144892    68A      0.150919    69A      0.172379

  @DF-RHF Final Energy: -1810.68859760175746

   => Energetics <=

    Nuclear Repulsion Energy =           1462.3846186358414343
    One-Electron Energy =               -5500.4324630165137933
    Two-Electron Energy =                2227.3592467789148941
    Total Energy =                      -1810.6885976017574649
  Basis Set: (AUG-CC-PVTZ AUX)
    Blend: AUG-CC-PVTZ-RI
    Molecular point group: c1

    Geometry (in Angstrom), charge = -4, multiplicity = 1:

       Center              X                  Y                   Z               Mass
    ------------   -----------------  -----------------  -----------------  -----------------
         P            2.603593325309     0.104054108662    -0.348712335356    30.973761998420
         P           -0.172203474691    -1.126559791338     0.302018464644    30.973761998420
         P           -2.693728374691     0.502401708662    -0.181395435356    30.973761998420
         O            1.968578625309     1.633772708662    -0.164958435356    15.994914619570
         O            1.266064625309    -0.851289291338    -0.525705435356    15.994914619570
         O            3.283052625309     0.119729708662    -1.678546435356    15.994914619570
         O            3.344055625309    -0.266489291338     0.921581564644    15.994914619570
         O           -0.973045374691     0.188210708662    -0.203214435356    15.994914619570
         O            0.108407625309    -1.052882291338     1.801511564644    15.994914619570
         O           -0.699939374691    -2.403605291338    -0.281088435356    15.994914619570
         O           -3.217646374691    -0.241586291338     1.060717564644    15.994914619570
         O           -2.697727374691     2.035609708662    -0.076627435356    15.994914619570
         O           -3.196268374691    -0.048279291338    -1.528063435356    15.994914619570
         C            1.436790625309     1.995089708662     1.124601564644    12.000000000000
         H            1.032067625309     1.128612708662     1.647180564644     1.007825032230
         H            2.217838625309     2.466149708662     1.729631564644     1.007825032230
         H            0.631189625309     2.708844708662     0.945792564644     1.007825032230

  Basis Set: AUG-CC-PVTZ
    Blend: AUG-CC-PVTZ
  Basis Set: (AUG-CC-PVTZ AUX)
    Blend: AUG-CC-PVTZ-JKFIT
	 Reference Energy          =   -1810.6885976017574649 [Eh]
	 Singles Energy            =      -0.0000000000000000 [Eh]
	 Same-Spin Energy          =      -0.9128810045331651 [Eh]
	 Opposite-Spin Energy      =      -2.5255348028570195 [Eh]
	 Correlation Energy        =      -3.4384158073901845 [Eh]
	 Total Energy              =   -1814.1270134091475938 [Eh]

	 ================> DF-SCS-MP2 Energies <==================
	-----------------------------------------------------------
	 SCS Same-Spin Scale       =       0.3333333333333333 [-]
	 SCS Opposite-Spin Scale   =       1.2000000000000000 [-]
	 SCS Same-Spin Energy      =      -0.3042936681777217 [Eh]
	 SCS Opposite-Spin Energy  =      -3.0306417634284233 [Eh]
	 SCS Correlation Energy    =      -3.3349354316061448 [Eh]
	 SCS Total Energy          =   -1814.0235330333637194 [Eh]
	-----------------------------------------------------------

  Dipole Moment: [D]
     X:     9.2950      Y:     2.1367      Z:     1.3131     Total:     9.6274

*** Psi4 exiting successfully. Buy a developer a beer!
