                               Psi4 1.3.2 release

  ==> Input File <==

--------------------------------------------------------------------------
#psi4
#
memory 32 gb

molecule  {
-4 1
  P        2.5828670     0.0826120    -0.3559070
  P       -0.1833470    -1.1435920     0.2927960
  P       -2.7088530     0.4754690    -0.2006980
  O        1.9534540     1.6068400    -0.1842610
  O        1.2509400    -0.8782220    -0.5450080
  O        3.2679280     0.0927970    -1.6978490
  O        3.3289310    -0.2934220     0.9022790
  O       -1.0046813     0.1445957    -0.2381991
  O        0.0932830    -1.0798150     1.7822090
  O       -0.7331200    -2.4166443    -0.3137608
  O       -3.2327710    -0.2685190     1.0414150
  O       -2.7128520     2.0086770    -0.0959300
  O       -3.2113930    -0.0752120    -1.5473660
  C        1.4216660     1.9681570     1.1052990
  H        1.0169430     1.1016800     1.6278780
  H        2.2027140     2.4392170     1.7103290
  H        0.6160650     2.6819120     0.9264900
units angstrom
no_reorient  #important for SAPT in psi4, default
symmetry c1  #important for SAPT in psi4, default
}

set PROPERTIES_ORIGIN ["COM"]
properties('MP2/aug-cc-pvtz', properties = ['dipole'])
--------------------------------------------------------------------------

    Molecular point group: c1
  Charge       = -4
  Multiplicity = 1
  Basis Set: AUG-CC-PVTZ
    Blend: AUG-CC-PVTZ
  Basis Set: (AUG-CC-PVTZ AUX)
    Blend: AUG-CC-PVTZ-JKFIT

    Orbital Energies [Eh]
    ---------------------

    Doubly Occupied:

       1A    -79.573497     2A    -79.527890     3A    -79.477771
       4A    -20.086589     5A    -20.039903     6A    -20.003723
       7A    -20.003290     8A    -19.991457     9A    -19.952703
      10A    -19.944104    11A    -19.923045    12A    -19.916361
      13A    -19.915681    14A    -10.812652    15A     -7.087327
      16A     -7.040738    17A     -6.991347    18A     -4.986276
      19A     -4.985334    20A     -4.984507    21A     -4.940002
      22A     -4.938694    23A     -4.937666    24A     -4.890826
      25A     -4.888646    26A     -4.888488    27A     -0.902896
      28A     -0.846661    29A     -0.807606    30A     -0.779012
      31A     -0.758433    32A     -0.742208    33A     -0.712745
      34A     -0.700108    35A     -0.662118    36A     -0.657079
      37A     -0.467772    38A     -0.295104    39A     -0.236037
      40A     -0.185498    41A     -0.165181    42A     -0.149703
      43A     -0.126774    44A     -0.098823    45A     -0.083454
      46A     -0.064655    47A     -0.052778    48A     -0.044779
      49A     -0.032456    50A     -0.016552    51A     -0.007561
      52A      0.000221    53A      0.009499    54A      0.014200
      55A      0.022835    56A      0.036689    57A      0.047416
      58A      0.052609    59A      0.066360    60A      0.070349
      61A      0.091276    62A      0.100974    63A      0.103120
      64A      0.104959    65A      0.114268    66A      0.125066
      67A      0.146156    68A      0.152633    69A      0.173778

  @DF-RHF Final Energy: -1810.68898254748774

   => Energetics <=

    Nuclear Repulsion Energy =           1463.2559027465554209
    One-Electron Energy =               -5502.1055662784383458
    Two-Electron Energy =                2228.1606809843951851
    Total Energy =                      -1810.6889825474877398
  Basis Set: (AUG-CC-PVTZ AUX)
    Blend: AUG-CC-PVTZ-RI
    Molecular point group: c1

    Geometry (in Angstrom), charge = -4, multiplicity = 1:

       Center              X                  Y                   Z               Mass
    ------------   -----------------  -----------------  -----------------  -----------------
         P            2.600242878788     0.107931693817    -0.337435223833    30.973761998420
         P           -0.165971121212    -1.118272306183     0.311267776167    30.973761998420
         P           -2.691477121212     0.500788693817    -0.182226223833    30.973761998420
         O            1.970829878788     1.632159693817    -0.165789223833    15.994914619570
         O            1.268315878788    -0.852902306183    -0.526536223833    15.994914619570
         O            3.285303878788     0.118116693817    -1.679377223833    15.994914619570
         O            3.346306878788    -0.268102306183     0.920750776167    15.994914619570
         O           -0.987305421212     0.169915393817    -0.219727323833    15.994914619570
         O            0.110658878788    -1.054495306183     1.800680776167    15.994914619570
         O           -0.715744121212    -2.391324606183    -0.295289023833    15.994914619570
         O           -3.215395121212    -0.243199306183     1.059886776167    15.994914619570
         O           -2.695476121212     2.033996693817    -0.077458223833    15.994914619570
         O           -3.194017121212    -0.049892306183    -1.528894223833    15.994914619570
         C            1.439041878788     1.993476693817     1.123770776167    12.000000000000
         H            1.034318878788     1.126999693817     1.646349776167     1.007825032230
         H            2.220089878788     2.464536693817     1.728800776167     1.007825032230
         H            0.633440878788     2.707231693817     0.944961776167     1.007825032230

  Basis Set: AUG-CC-PVTZ
    Blend: AUG-CC-PVTZ
  Basis Set: (AUG-CC-PVTZ AUX)
    Blend: AUG-CC-PVTZ-JKFIT
	 Reference Energy          =   -1810.6889825474877398 [Eh]
	 Singles Energy            =      -0.0000000000000000 [Eh]
	 Same-Spin Energy          =      -0.9129015550921944 [Eh]
	 Opposite-Spin Energy      =      -2.5254548405583424 [Eh]
	 Correlation Energy        =      -3.4383563956505370 [Eh]
	 Total Energy              =   -1814.1273389431382839 [Eh]

	 ================> DF-SCS-MP2 Energies <==================
	-----------------------------------------------------------
	 SCS Same-Spin Scale       =       0.3333333333333333 [-]
	 SCS Opposite-Spin Scale   =       1.2000000000000000 [-]
	 SCS Same-Spin Energy      =      -0.3043005183640648 [Eh]
	 SCS Opposite-Spin Energy  =      -3.0305458086700106 [Eh]
	 SCS Correlation Energy    =      -3.3348463270340751 [Eh]
	 SCS Total Energy          =   -1814.0238288745217687 [Eh]
	-----------------------------------------------------------

  Dipole Moment: [D]
     X:     9.4383      Y:     2.3095      Z:     1.6773     Total:     9.8604

*** Psi4 exiting successfully. Buy a developer a beer!
