                               Psi4 1.4a3.dev225

  ==> Input File <==

--------------------------------------------------------------------------
#psi4
#
memory 32 gb

molecule  {
-4 1
  P       -2.5202440    -0.2449420     0.3712220
  P        0.3565170    -0.5960480    -0.3589090
  P        3.1750170     0.3881900     0.1554910
  O       -2.7927880     1.3311510    -0.1150520
  O       -0.9169740    -0.0836090     0.6422800
  O       -3.1856250    -0.4605710     1.7148300
  O       -2.8507450    -1.1694890    -0.7786080
  O        1.4898640     0.0841660     0.5723090
  O        0.2127210     0.0849480    -1.7048820
  O        0.4027150    -2.1095660    -0.2874290
  O        3.5327910    -0.6840640    -0.8835370
  O        3.1645097     1.8098528    -0.3673845
  O        3.8338960     0.2099350     1.5311200
  C       -4.1398760     1.5889580    -0.5252390
  H       -4.4292020     0.9309370    -1.3496150
  H       -4.8386320     1.4471050     0.3059850
  H       -4.1840730     2.6280350    -0.8559160
units angstrom
no_reorient  #important for SAPT in psi4, default
symmetry c1  #important for SAPT in psi4, default
}

set PROPERTIES_ORIGIN ["COM"]
properties('MP2/aug-cc-pvtz', properties = ['dipole'])
--------------------------------------------------------------------------

    Molecular point group: c1
  Charge       = -4
  Multiplicity = 1
  Basis Set: AUG-CC-PVTZ
    Blend: AUG-CC-PVTZ
  Basis Set: (AUG-CC-PVTZ AUX)
    Blend: AUG-CC-PVTZ-JKFIT

    Orbital Energies [Eh]
    ---------------------

    Doubly Occupied:

       1A    -79.580498     2A    -79.516573     3A    -79.471513
       4A    -20.119013     5A    -20.041424     6A    -20.014864
       7A    -20.004800     8A    -19.982839     9A    -19.936348
      10A    -19.934882    11A    -19.920133    12A    -19.915827
      13A    -19.911292    14A    -10.883337    15A     -7.094777
      16A     -7.029637    17A     -6.985975    18A     -4.993924
      19A     -4.992611    20A     -4.991708    21A     -4.929043
      22A     -4.927450    23A     -4.926321    24A     -4.885310
      25A     -4.883291    26A     -4.883146    27A     -0.931169
      28A     -0.853117    29A     -0.806675    30A     -0.777983
      31A     -0.761038    32A     -0.737297    33A     -0.705997
      34A     -0.686510    35A     -0.663897    36A     -0.657179
      37A     -0.528137    38A     -0.308254    39A     -0.251796
      40A     -0.220638    41A     -0.195997    42A     -0.164774
      43A     -0.139325    44A     -0.107950    45A     -0.093643
      46A     -0.079093    47A     -0.062663    48A     -0.051369
      49A     -0.034835    50A     -0.025261    51A     -0.012387
      52A     -0.009490    53A      0.009591    54A      0.011476
      55A      0.022905    56A      0.034564    57A      0.048283
      58A      0.054879    59A      0.062337    60A      0.081539
      61A      0.097468    62A      0.102546    63A      0.106977
      64A      0.108700    65A      0.125088    66A      0.135340
      67A      0.149264    68A      0.154200    69A      0.175338

  @DF-RHF Final Energy: -1810.67627239913486

   => Energetics <=

    Nuclear Repulsion Energy =           1426.5768740432113191
    One-Electron Energy =               -5428.2212695620337399
    Two-Electron Energy =                2190.9681231196873341
    Total Energy =                      -1810.6762723991350867
  Basis Set: (AUG-CC-PVTZ AUX)
    Blend: AUG-CC-PVTZ-RI
    Molecular point group: c1

    Geometry (in Angstrom), charge = -4, multiplicity = 1:

       Center              X                  Y                   Z               Mass
    ------------   -----------------  -----------------  -----------------  -----------------
         P           -2.573693934366    -0.223653376999     0.363170524302    30.973761998420
         P            0.303067065634    -0.574759376999    -0.366960475698    30.973761998420
         P            3.121567065634     0.409478623001     0.147439524302    30.973761998420
         O           -2.846237934366     1.352439623001    -0.123103475698    15.994914619570
         O           -0.970423934366    -0.062320376999     0.634228524302    15.994914619570
         O           -3.239074934366    -0.439282376999     1.706778524302    15.994914619570
         O           -2.904194934366    -1.148200376999    -0.786659475698    15.994914619570
         O            1.436414065634     0.105454623001     0.564257524302    15.994914619570
         O            0.159271065634     0.106236623001    -1.712933475698    15.994914619570
         O            0.349265065634    -2.088277376999    -0.295480475698    15.994914619570
         O            3.479341065634    -0.662775376999    -0.891588475698    15.994914619570
         O            3.111059765634     1.831141423001    -0.375435975698    15.994914619570
         O            3.780446065634     0.231223623001     1.523068524302    15.994914619570
         C           -4.193325934366     1.610246623001    -0.533290475698    12.000000000000
         H           -4.482651934366     0.952225623001    -1.357666475698     1.007825032230
         H           -4.892081934366     1.468393623001     0.297933524302     1.007825032230
         H           -4.237522934366     2.649323623001    -0.863967475698     1.007825032230

  Basis Set: AUG-CC-PVTZ
    Blend: AUG-CC-PVTZ
  Basis Set: (AUG-CC-PVTZ AUX)
    Blend: AUG-CC-PVTZ-JKFIT
	 Reference Energy          =   -1810.6762723991348594 [Eh]
	 Singles Energy            =      -0.0000000000000000 [Eh]
	 Same-Spin Energy          =      -0.9120365194374149 [Eh]
	 Opposite-Spin Energy      =      -2.5243162982806715 [Eh]
	 Correlation Energy        =      -3.4363528177180864 [Eh]
	 Total Energy              =   -1814.1126252168528481 [Eh]

	 ================> DF-SCS-MP2 Energies <==================
	-----------------------------------------------------------
	 SCS Same-Spin Scale       =       0.3333333333333333 [-]
	 SCS Opposite-Spin Scale   =       1.2000000000000000 [-]
	 SCS Same-Spin Energy      =      -0.3040121731458050 [Eh]
	 SCS Opposite-Spin Energy  =      -3.0291795579368057 [Eh]
	 SCS Correlation Energy    =      -3.3331917310826107 [Eh]
	 SCS Total Energy          =   -1814.0094641302175660 [Eh]
	-----------------------------------------------------------

  Dipole Moment: [D]
     X:   -14.9556      Y:     2.8640      Z:    -0.0401     Total:    15.2274

*** Psi4 exiting successfully. Buy a developer a beer!
