                               Psi4 1.3.2 release

  ==> Input File <==

--------------------------------------------------------------------------
#psi4
#
memory 32 gb

molecule  {
-4 1
  P        2.5828670     0.0826120    -0.3559070
  P       -0.1833470    -1.1435920     0.2927960
  P       -2.7088530     0.4754690    -0.2006980
  O        1.9764350     1.6092562    -0.1312031
  O        1.2509400    -0.8782220    -0.5450080
  O        3.2679280     0.0927970    -1.6978490
  O        3.3163855    -0.2464474     0.9226530
  O       -0.9881700     0.1612780    -0.2225170
  O        0.0932830    -1.0798150     1.7822090
  O       -0.7150640    -2.4305380    -0.3003910
  O       -3.2327710    -0.2685190     1.0414150
  O       -2.7128520     2.0086770    -0.0959300
  O       -3.2113930    -0.0752120    -1.5473660
  C        1.4216660     1.9681570     1.1052990
  H        1.0169430     1.1016800     1.6278780
  H        2.2027140     2.4392170     1.7103290
  H        0.6160650     2.6819120     0.9264900
units angstrom
no_reorient  #important for SAPT in psi4, default
symmetry c1  #important for SAPT in psi4, default
}

set PROPERTIES_ORIGIN ["COM"]
properties('MP2/aug-cc-pvtz', properties = ['dipole'])
--------------------------------------------------------------------------

    Molecular point group: c1
  Charge       = -4
  Multiplicity = 1
  Basis Set: AUG-CC-PVTZ
    Blend: AUG-CC-PVTZ
  Basis Set: (AUG-CC-PVTZ AUX)
    Blend: AUG-CC-PVTZ-JKFIT

    Orbital Energies [Eh]
    ---------------------

    Doubly Occupied:

       1A    -79.574550     2A    -79.527713     3A    -79.480014
       4A    -20.079986     5A    -20.041349     6A    -20.007404
       7A    -20.000582     8A    -19.993527     9A    -19.950127
      10A    -19.946100    11A    -19.923862    12A    -19.919438
      13A    -19.917457    14A    -10.805344    15A     -7.088190
      16A     -7.040663    17A     -6.993522    18A     -4.987201
      19A     -4.986232    20A     -4.985330    21A     -4.939958
      22A     -4.938538    23A     -4.937600    24A     -4.892987
      25A     -4.890791    26A     -4.890645    27A     -0.908095
      28A     -0.849327    29A     -0.808319    30A     -0.779379
      31A     -0.758994    32A     -0.742731    33A     -0.713829
      34A     -0.700090    35A     -0.663477    36A     -0.659209
      37A     -0.463544    38A     -0.295325    39A     -0.237149
      40A     -0.185935    41A     -0.166490    42A     -0.155436
      43A     -0.125959    44A     -0.099082    45A     -0.085027
      46A     -0.065351    47A     -0.053521    48A     -0.041994
      49A     -0.030552    50A     -0.017247    51A     -0.003298
      52A      0.000478    53A      0.011379    54A      0.014327
      55A      0.021729    56A      0.035101    57A      0.046867
      58A      0.056033    59A      0.065973    60A      0.069763
      61A      0.090270    62A      0.100352    63A      0.102137
      64A      0.103699    65A      0.113530    66A      0.124994
      67A      0.144437    68A      0.150281    69A      0.171974

  @DF-RHF Final Energy: -1810.68980809986260

   => Energetics <=

    Nuclear Repulsion Energy =           1463.5169926037872301
    One-Electron Energy =               -5502.5633066765258263
    Two-Electron Energy =                2228.3565059728762208
    Total Energy =                      -1810.6898080998626028
  Basis Set: (AUG-CC-PVTZ AUX)
    Blend: AUG-CC-PVTZ-RI
    Molecular point group: c1

    Geometry (in Angstrom), charge = -4, multiplicity = 1:

       Center              X                  Y                   Z               Mass
    ------------   -----------------  -----------------  -----------------  -----------------
         P            2.597555934725     0.104816262577    -0.343554137277    30.973761998420
         P           -0.168658065275    -1.121387737423     0.305148862723    30.973761998420
         P           -2.694164065275     0.497673262577    -0.188345137277    30.973761998420
         O            1.991123934725     1.631460462577    -0.118850237277    15.994914619570
         O            1.265628934725    -0.856017737423    -0.532655137277    15.994914619570
         O            3.282616934725     0.115001262577    -1.685496137277    15.994914619570
         O            3.331074434725    -0.224243137423     0.935005862723    15.994914619570
         O           -0.973481065275     0.183482262577    -0.210164137277    15.994914619570
         O            0.107971934725    -1.057610737423     1.794561862723    15.994914619570
         O           -0.700375065275    -2.408333737423    -0.288038137277    15.994914619570
         O           -3.218082065275    -0.246314737423     1.053767862723    15.994914619570
         O           -2.698163065275     2.030881262577    -0.083577137277    15.994914619570
         O           -3.196704065275    -0.053007737423    -1.535013137277    15.994914619570
         C            1.436354934725     1.990361262577     1.117651862723    12.000000000000
         H            1.031631934725     1.123884262577     1.640230862723     1.007825032230
         H            2.217402934725     2.461421262577     1.722681862723     1.007825032230
         H            0.630753934725     2.704116262577     0.938842862723     1.007825032230

  Basis Set: AUG-CC-PVTZ
    Blend: AUG-CC-PVTZ
  Basis Set: (AUG-CC-PVTZ AUX)
    Blend: AUG-CC-PVTZ-JKFIT
	 Reference Energy          =   -1810.6898080998626028 [Eh]
	 Singles Energy            =      -0.0000000000000000 [Eh]
	 Same-Spin Energy          =      -0.9128282292732784 [Eh]
	 Opposite-Spin Energy      =      -2.5247920889250790 [Eh]
	 Correlation Energy        =      -3.4376203181983573 [Eh]
	 Total Energy              =   -1814.1274284180610721 [Eh]

	 ================> DF-SCS-MP2 Energies <==================
	-----------------------------------------------------------
	 SCS Same-Spin Scale       =       0.3333333333333333 [-]
	 SCS Opposite-Spin Scale   =       1.2000000000000000 [-]
	 SCS Same-Spin Energy      =      -0.3042760764244261 [Eh]
	 SCS Opposite-Spin Energy  =      -3.0297505067100947 [Eh]
	 SCS Correlation Energy    =      -3.3340265831345208 [Eh]
	 SCS Total Energy          =   -1814.0238346829971761 [Eh]
	-----------------------------------------------------------

  Dipole Moment: [D]
     X:     9.2828      Y:     2.1600      Z:     1.4050     Total:     9.6338

*** Psi4 exiting successfully. Buy a developer a beer!
