                               Psi4 1.3.2 release

  ==> Input File <==

--------------------------------------------------------------------------
#psi4
#
memory 32 gb

molecule  {
-4 1
  P        2.5828670     0.0826120    -0.3559070
  P       -0.1833470    -1.1435920     0.2927960
  P       -2.7088530     0.4754690    -0.2006980
  O        1.9534540     1.6068400    -0.1842610
  O        1.2545617    -0.8804201    -0.5587986
  O        3.2585705     0.0848884    -1.7026216
  O        3.3289310    -0.2934220     0.9022790
  O       -0.9881700     0.1612780    -0.2225170
  O        0.0932830    -1.0798150     1.7822090
  O       -0.7150640    -2.4305380    -0.3003910
  O       -3.2327710    -0.2685190     1.0414150
  O       -2.7128520     2.0086770    -0.0959300
  O       -3.2113930    -0.0752120    -1.5473660
  C        1.4216660     1.9681570     1.1052990
  H        1.0169430     1.1016800     1.6278780
  H        2.2027140     2.4392170     1.7103290
  H        0.6160650     2.6819120     0.9264900
units angstrom
no_reorient  #important for SAPT in psi4, default
symmetry c1  #important for SAPT in psi4, default
}

set PROPERTIES_ORIGIN ["COM"]
properties('MP2/aug-cc-pvtz', properties = ['dipole'])
--------------------------------------------------------------------------

    Molecular point group: c1
  Charge       = -4
  Multiplicity = 1
  Basis Set: AUG-CC-PVTZ
    Blend: AUG-CC-PVTZ
  Basis Set: (AUG-CC-PVTZ AUX)
    Blend: AUG-CC-PVTZ-JKFIT

    Orbital Energies [Eh]
    ---------------------

    Doubly Occupied:

       1A    -79.571657     2A    -79.527568     3A    -79.480024
       4A    -20.085899     5A    -20.037573     6A    -20.003356
       7A    -20.001205     8A    -19.993312     9A    -19.951277
      10A    -19.945405    11A    -19.924048    12A    -19.919288
      13A    -19.917548    14A    -10.811942    15A     -7.085556
      16A     -7.040421    17A     -6.993530    18A     -4.984486
      19A     -4.983573    20A     -4.982732    21A     -4.939665
      22A     -4.938307    23A     -4.937385    24A     -4.892993
      25A     -4.890802    26A     -4.890653    27A     -0.901596
      28A     -0.844254    29A     -0.806671    30A     -0.777072
      31A     -0.757414    32A     -0.742185    33A     -0.713820
      34A     -0.700035    35A     -0.663576    36A     -0.659185
      37A     -0.466992    38A     -0.291447    39A     -0.234754
      40A     -0.183590    41A     -0.163985    42A     -0.148748
      43A     -0.125845    44A     -0.098988    45A     -0.081820
      46A     -0.064679    47A     -0.051656    48A     -0.044066
      49A     -0.032230    50A     -0.015850    51A     -0.006188
      52A      0.000191    53A      0.009831    54A      0.015028
      55A      0.021592    56A      0.038002    57A      0.047256
      58A      0.053406    59A      0.066908    60A      0.071275
      61A      0.091040    62A      0.100258    63A      0.102168
      64A      0.103711    65A      0.113494    66A      0.124838
      67A      0.144359    68A      0.150339    69A      0.171935

  @DF-RHF Final Energy: -1810.68812494831900

   => Energetics <=

    Nuclear Repulsion Energy =           1462.6184301783223418
    One-Electron Energy =               -5500.8506769395853553
    Two-Electron Energy =                2227.5441218129440131
    Total Energy =                      -1810.6881249483190004
  Basis Set: (AUG-CC-PVTZ AUX)
    Blend: AUG-CC-PVTZ-RI
    Molecular point group: c1

    Geometry (in Angstrom), charge = -4, multiplicity = 1:

       Center              X                  Y                   Z               Mass
    ------------   -----------------  -----------------  -----------------  -----------------
         P            2.598521460837     0.108368629415    -0.338061463760    30.973761998420
         P           -0.167692539163    -1.117835370585     0.310641536240    30.973761998420
         P           -2.693198539163     0.501225629415    -0.182852463760    30.973761998420
         O            1.969108460837     1.632596629415    -0.166415463760    15.994914619570
         O            1.270216160837    -0.854663470585    -0.540953063760    15.994914619570
         O            3.274224960837     0.110645029415    -1.684776063760    15.994914619570
         O            3.344585460837    -0.267665370585     0.920124536240    15.994914619570
         O           -0.972515539163     0.187034629415    -0.204671463760    15.994914619570
         O            0.108937460837    -1.054058370585     1.800054536240    15.994914619570
         O           -0.699409539163    -2.404781370585    -0.282545463760    15.994914619570
         O           -3.217116539163    -0.242762370585     1.059260536240    15.994914619570
         O           -2.697197539163     2.034433629415    -0.078084463760    15.994914619570
         O           -3.195738539163    -0.049455370585    -1.529520463760    15.994914619570
         C            1.437320460837     1.993913629415     1.123144536240    12.000000000000
         H            1.032597460837     1.127436629415     1.645723536240     1.007825032230
         H            2.218368460837     2.464973629415     1.728174536240     1.007825032230
         H            0.631719460837     2.707668629415     0.944335536240     1.007825032230

  Basis Set: AUG-CC-PVTZ
    Blend: AUG-CC-PVTZ
  Basis Set: (AUG-CC-PVTZ AUX)
    Blend: AUG-CC-PVTZ-JKFIT
	 Reference Energy          =   -1810.6881249483190004 [Eh]
	 Singles Energy            =      -0.0000000000000000 [Eh]
	 Same-Spin Energy          =      -0.9131492982278983 [Eh]
	 Opposite-Spin Energy      =      -2.5261501272618707 [Eh]
	 Correlation Energy        =      -3.4392994254897689 [Eh]
	 Total Energy              =   -1814.1274243738087080 [Eh]

	 ================> DF-SCS-MP2 Energies <==================
	-----------------------------------------------------------
	 SCS Same-Spin Scale       =       0.3333333333333333 [-]
	 SCS Opposite-Spin Scale   =       1.2000000000000000 [-]
	 SCS Same-Spin Energy      =      -0.3043830994092994 [Eh]
	 SCS Opposite-Spin Energy  =      -3.0313801527142448 [Eh]
	 SCS Correlation Energy    =      -3.3357632521235443 [Eh]
	 SCS Total Energy          =   -1814.0238882004425705 [Eh]
	-----------------------------------------------------------

  Dipole Moment: [D]
     X:     9.2249      Y:     2.3464      Z:     1.6607     Total:     9.6624

*** Psi4 exiting successfully. Buy a developer a beer!
