                               Psi4 1.3.2 release

  ==> Input File <==

--------------------------------------------------------------------------
#psi4
#
memory 32 gb

molecule  {
-4 1
  P        2.5828670     0.0826120    -0.3559070
  P       -0.1833470    -1.1435920     0.2927960
  P       -2.7088530     0.4754690    -0.2006980
  O        1.9534540     1.6068400    -0.1842610
  O        1.1656732    -0.8939980    -0.4952015
  O        3.2679280     0.0927970    -1.6978490
  O        3.3289310    -0.2934220     0.9022790
  O       -0.9881700     0.1612780    -0.2225170
  O        0.0932830    -1.0798150     1.7822090
  O       -0.7150640    -2.4305380    -0.3003910
  O       -3.2327710    -0.2685190     1.0414150
  O       -2.7128520     2.0086770    -0.0959300
  O       -3.2113930    -0.0752120    -1.5473660
  C        1.4216660     1.9681570     1.1052990
  H        1.0169430     1.1016800     1.6278780
  H        2.2027140     2.4392170     1.7103290
  H        0.6160650     2.6819120     0.9264900
units angstrom
no_reorient  #important for SAPT in psi4, default
symmetry c1  #important for SAPT in psi4, default
}

set PROPERTIES_ORIGIN ["COM"]
properties('MP2/aug-cc-pvtz', properties = ['dipole'])
--------------------------------------------------------------------------

    Molecular point group: c1
  Charge       = -4
  Multiplicity = 1
  Basis Set: AUG-CC-PVTZ
    Blend: AUG-CC-PVTZ
  Basis Set: (AUG-CC-PVTZ AUX)
    Blend: AUG-CC-PVTZ-JKFIT

    Orbital Energies [Eh]
    ---------------------

    Doubly Occupied:

       1A    -79.589516     2A    -79.509427     3A    -79.474808
       4A    -20.092530     5A    -20.036874     6A    -20.017573
       7A    -20.012838     8A    -19.983448     9A    -19.938340
      10A    -19.932891    11A    -19.920152    12A    -19.915118
      13A    -19.912764    14A    -10.814220    15A     -7.102082
      16A     -7.024224    17A     -6.988298    18A     -5.001021
      19A     -5.000003    20A     -4.999225    21A     -4.923782
      22A     -4.922079    23A     -4.921151    24A     -4.887708
      25A     -4.885627    26A     -4.885469    27A     -0.907032
      28A     -0.854035    29A     -0.810645    30A     -0.779160
      31A     -0.768262    32A     -0.732865    33A     -0.706327
      34A     -0.689405    35A     -0.659476    36A     -0.654657
      37A     -0.470378    38A     -0.301011    39A     -0.235119
      40A     -0.185466    41A     -0.166022    42A     -0.153321
      43A     -0.131878    44A     -0.095403    45A     -0.085625
      46A     -0.065306    47A     -0.057410    48A     -0.043054
      49A     -0.029119    50A     -0.013336    51A     -0.010449
      52A     -0.000167    53A      0.005074    54A      0.017047
      55A      0.025153    56A      0.029155    57A      0.045085
      58A      0.053513    59A      0.059023    60A      0.076058
      61A      0.099284    62A      0.105379    63A      0.107852
      64A      0.109664    65A      0.124281    66A      0.135026
      67A      0.149217    68A      0.155621    69A      0.176178

  @DF-RHF Final Energy: -1810.67915109270234

   => Energetics <=

    Nuclear Repulsion Energy =           1464.7436782967370164
    One-Electron Energy =               -5505.1986783588727121
    Two-Electron Energy =                2229.7758489694333548
    Total Energy =                      -1810.6791510927023410
  Basis Set: (AUG-CC-PVTZ AUX)
    Blend: AUG-CC-PVTZ-RI
    Molecular point group: c1

    Geometry (in Angstrom), charge = -4, multiplicity = 1:

       Center              X                  Y                   Z               Mass
    ------------   -----------------  -----------------  -----------------  -----------------
         P            2.603269950892     0.108707121509    -0.342143555529    30.973761998420
         P           -0.162944049108    -1.117496878491     0.306559444471    30.973761998420
         P           -2.688450049108     0.501564121509    -0.186934555529    30.973761998420
         O            1.973856950892     1.632935121509    -0.170497555529    15.994914619570
         O            1.186076150892    -0.867902878491    -0.481438055529    15.994914619570
         O            3.288330950892     0.118892121509    -1.684085555529    15.994914619570
         O            3.349333950892    -0.267326878491     0.916042444471    15.994914619570
         O           -0.967767049108     0.187373121509    -0.208753555529    15.994914619570
         O            0.113685950892    -1.053719878491     1.795972444471    15.994914619570
         O           -0.694661049108    -2.404442878491    -0.286627555529    15.994914619570
         O           -3.212368049108    -0.242423878491     1.055178444471    15.994914619570
         O           -2.692449049108     2.034772121509    -0.082166555529    15.994914619570
         O           -3.190990049108    -0.049116878491    -1.533602555529    15.994914619570
         C            1.442068950892     1.994252121509     1.119062444471    12.000000000000
         H            1.037345950892     1.127775121509     1.641641444471     1.007825032230
         H            2.223116950892     2.465312121509     1.724092444471     1.007825032230
         H            0.636467950892     2.708007121509     0.940253444471     1.007825032230

  Basis Set: AUG-CC-PVTZ
    Blend: AUG-CC-PVTZ
  Basis Set: (AUG-CC-PVTZ AUX)
    Blend: AUG-CC-PVTZ-JKFIT
	 Reference Energy          =   -1810.6791510927023410 [Eh]
	 Singles Energy            =      -0.0000000000000000 [Eh]
	 Same-Spin Energy          =      -0.9129020442557699 [Eh]
	 Opposite-Spin Energy      =      -2.5252762575074725 [Eh]
	 Correlation Energy        =      -3.4381783017632426 [Eh]
	 Total Energy              =   -1814.1173293944655143 [Eh]

	 ================> DF-SCS-MP2 Energies <==================
	-----------------------------------------------------------
	 SCS Same-Spin Scale       =       0.3333333333333333 [-]
	 SCS Opposite-Spin Scale   =       1.2000000000000000 [-]
	 SCS Same-Spin Energy      =      -0.3043006814185900 [Eh]
	 SCS Opposite-Spin Energy  =      -3.0303315090089669 [Eh]
	 SCS Correlation Energy    =      -3.3346321904275569 [Eh]
	 SCS Total Energy          =   -1814.0137832831298965 [Eh]
	-----------------------------------------------------------

  Dipole Moment: [D]
     X:    10.3546      Y:     2.6947      Z:     1.3362     Total:    10.7826

*** Psi4 exiting successfully. Buy a developer a beer!
