                               Psi4 1.3.2 release

  ==> Input File <==

--------------------------------------------------------------------------
#psi4
#
memory 32 gb

molecule  {
-4 1
  P        2.5828670     0.0826120    -0.3559070
  P       -0.1833470    -1.1435920     0.2927960
  P       -2.7088530     0.4754690    -0.2006980
  O        1.9534540     1.6068400    -0.1842610
  O        1.2509400    -0.8782220    -0.5450080
  O        3.2679280     0.0927970    -1.6978490
  O        3.3289310    -0.2934220     0.9022790
  O       -0.9881700     0.1612780    -0.2225170
  O        0.0932830    -1.0798150     1.7822090
  O       -0.7150640    -2.4305380    -0.3003910
  O       -3.2327710    -0.2685190     1.0414150
  O       -2.7128520     2.0086770    -0.0959300
  O       -3.2113930    -0.0752120    -1.5473660
  C        1.4216660     1.9681570     1.1052990
  H        0.9426685     0.9426647     1.7237813
  H        2.2027140     2.4392170     1.7103290
  H        0.6160650     2.6819120     0.9264900
units angstrom
no_reorient  #important for SAPT in psi4, default
symmetry c1  #important for SAPT in psi4, default
}

set PROPERTIES_ORIGIN ["COM"]
properties('MP2/aug-cc-pvtz', properties = ['dipole'])
--------------------------------------------------------------------------

    Molecular point group: c1
  Charge       = -4
  Multiplicity = 1
  Basis Set: AUG-CC-PVTZ
    Blend: AUG-CC-PVTZ
  Basis Set: (AUG-CC-PVTZ AUX)
    Blend: AUG-CC-PVTZ-JKFIT

    Orbital Energies [Eh]
    ---------------------

    Doubly Occupied:

       1A    -79.572583     2A    -79.528789     3A    -79.480165
       4A    -20.086338     5A    -20.039081     6A    -20.002586
       7A    -20.002315     8A    -19.993581     9A    -19.953625
      10A    -19.946614    11A    -19.923962    12A    -19.919500
      13A    -19.917806    14A    -10.824908    15A     -7.086403
      16A     -7.041718    17A     -6.993671    18A     -4.985354
      19A     -4.984412    20A     -4.983577    21A     -4.940983
      22A     -4.939599    23A     -4.938709    24A     -4.893135
      25A     -4.890941    26A     -4.890797    27A     -0.901507
      28A     -0.846291    29A     -0.806916    30A     -0.778324
      31A     -0.757376    32A     -0.743781    33A     -0.714615
      34A     -0.702111    35A     -0.663612    36A     -0.659434
      37A     -0.449963    38A     -0.292273    39A     -0.228730
      40A     -0.183895    41A     -0.150322    42A     -0.147779
      43A     -0.125891    44A     -0.099971    45A     -0.080828
      46A     -0.062523    47A     -0.052144    48A     -0.034791
      49A     -0.029394    50A     -0.016426    51A     -0.006461
      52A      0.002671    53A      0.012246    54A      0.014640
      55A      0.025294    56A      0.037399    57A      0.047012
      58A      0.053883    59A      0.066627    60A      0.071486
      61A      0.089680    62A      0.099573    63A      0.101630
      64A      0.103446    65A      0.112895    66A      0.124475
      67A      0.144214    68A      0.149997    69A      0.171789

  @DF-RHF Final Energy: -1810.66834264863951

   => Energetics <=

    Nuclear Repulsion Energy =           1462.5385698704644710
    One-Electron Energy =               -5500.6787145588368730
    Two-Electron Energy =                2227.4718020397331202
    Total Energy =                      -1810.6683426486392818
  Basis Set: (AUG-CC-PVTZ AUX)
    Blend: AUG-CC-PVTZ-RI
    Molecular point group: c1

    Geometry (in Angstrom), charge = -4, multiplicity = 1:

       Center              X                  Y                   Z               Mass
    ------------   -----------------  -----------------  -----------------  -----------------
         P            2.598458421214     0.108363417637    -0.339530592153    30.973761998420
         P           -0.167755578786    -1.117840582363     0.309172407847    30.973761998420
         P           -2.693261578786     0.501220417637    -0.184321592153    30.973761998420
         O            1.969045421214     1.632591417637    -0.167884592153    15.994914619570
         O            1.266531421214    -0.852470582363    -0.528631592153    15.994914619570
         O            3.283519421214     0.118548417637    -1.681472592153    15.994914619570
         O            3.344522421214    -0.267670582363     0.918655407847    15.994914619570
         O           -0.972578578786     0.187029417637    -0.206140592153    15.994914619570
         O            0.108874421214    -1.054063582363     1.798585407847    15.994914619570
         O           -0.699472578786    -2.404786582363    -0.284014592153    15.994914619570
         O           -3.217179578786    -0.242767582363     1.057791407847    15.994914619570
         O           -2.697260578786     2.034428417637    -0.079553592153    15.994914619570
         O           -3.195801578786    -0.049460582363    -1.530989592153    15.994914619570
         C            1.437257421214     1.993908417637     1.121675407847    12.000000000000
         H            0.958259921214     0.968416117637     1.740157707847     1.007825032230
         H            2.218305421214     2.464968417637     1.726705407847     1.007825032230
         H            0.631656421214     2.707663417637     0.942866407847     1.007825032230

  Basis Set: AUG-CC-PVTZ
    Blend: AUG-CC-PVTZ
  Basis Set: (AUG-CC-PVTZ AUX)
    Blend: AUG-CC-PVTZ-JKFIT
	 Reference Energy          =   -1810.6683426486395092 [Eh]
	 Singles Energy            =      -0.0000000000000000 [Eh]
	 Same-Spin Energy          =      -0.9142356788706658 [Eh]
	 Opposite-Spin Energy      =      -2.5283979283561235 [Eh]
	 Correlation Energy        =      -3.4426336072267896 [Eh]
	 Total Energy              =   -1814.1109762558662624 [Eh]

	 ================> DF-SCS-MP2 Energies <==================
	-----------------------------------------------------------
	 SCS Same-Spin Scale       =       0.3333333333333333 [-]
	 SCS Opposite-Spin Scale   =       1.2000000000000000 [-]
	 SCS Same-Spin Energy      =      -0.3047452262902219 [Eh]
	 SCS Opposite-Spin Energy  =      -3.0340775140273482 [Eh]
	 SCS Correlation Energy    =      -3.3388227403175703 [Eh]
	 SCS Total Energy          =   -1814.0071653889569916 [Eh]
	-----------------------------------------------------------

  Dipole Moment: [D]
     X:     9.1467      Y:     2.0958      Z:     1.5632     Total:     9.5130

*** Psi4 exiting successfully. Buy a developer a beer!
