                               Psi4 1.3.2 release

  ==> Input File <==

--------------------------------------------------------------------------
#psi4
#
memory 32 gb

molecule  {
-4 1
  P        2.5828670     0.0826120    -0.3559070
  P       -0.1833470    -1.1435920     0.2927960
  P       -2.7088530     0.4754690    -0.2006980
  O        1.9534540     1.6068400    -0.1842610
  O        1.2509400    -0.8782220    -0.5450080
  O        3.2453664     0.1003472    -1.7090517
  O        3.3068897    -0.2895880     0.9162185
  O       -0.9881700     0.1612780    -0.2225170
  O        0.0932830    -1.0798150     1.7822090
  O       -0.7150640    -2.4305380    -0.3003910
  O       -3.2327710    -0.2685190     1.0414150
  O       -2.7128520     2.0086770    -0.0959300
  O       -3.2113930    -0.0752120    -1.5473660
  C        1.4216660     1.9681570     1.1052990
  H        1.0169430     1.1016800     1.6278780
  H        2.2027140     2.4392170     1.7103290
  H        0.6160650     2.6819120     0.9264900
units angstrom
no_reorient  #important for SAPT in psi4, default
symmetry c1  #important for SAPT in psi4, default
}

set PROPERTIES_ORIGIN ["COM"]
properties('MP2/aug-cc-pvtz', properties = ['dipole'])
--------------------------------------------------------------------------

    Molecular point group: c1
  Charge       = -4
  Multiplicity = 1
  Basis Set: AUG-CC-PVTZ
    Blend: AUG-CC-PVTZ
  Basis Set: (AUG-CC-PVTZ AUX)
    Blend: AUG-CC-PVTZ-JKFIT

    Orbital Energies [Eh]
    ---------------------

    Doubly Occupied:

       1A    -79.572641     2A    -79.525968     3A    -79.479315
       4A    -20.084145     5A    -20.036514     6A    -20.004367
       7A    -20.003988     8A    -19.992189     9A    -19.949164
      10A    -19.944492    11A    -19.923399    12A    -19.918709
      13A    -19.916869    14A    -10.810530    15A     -7.086468
      16A     -7.038898    17A     -6.992817    18A     -4.985427
      19A     -4.984539    20A     -4.983605    21A     -4.938169
      22A     -4.936794    23A     -4.935863    24A     -4.892276
      25A     -4.890094    26A     -4.889945    27A     -0.901273
      28A     -0.844507    29A     -0.806253    30A     -0.777185
      31A     -0.759825    32A     -0.741200    33A     -0.712835
      34A     -0.698789    35A     -0.662933    36A     -0.658551
      37A     -0.465683    38A     -0.292786    39A     -0.233782
      40A     -0.183267    41A     -0.163186    42A     -0.147900
      43A     -0.125910    44A     -0.098293    45A     -0.082695
      46A     -0.064293    47A     -0.051852    48A     -0.043309
      49A     -0.031288    50A     -0.015654    51A     -0.005683
      52A      0.000726    53A      0.010317    54A      0.014759
      55A      0.022292    56A      0.037491    57A      0.048093
      58A      0.052642    59A      0.066122    60A      0.071096
      61A      0.091837    62A      0.101084    63A      0.102961
      64A      0.104487    65A      0.114697    66A      0.126066
      67A      0.145061    68A      0.151050    69A      0.172564

  @DF-RHF Final Energy: -1810.68774074518001

   => Energetics <=

    Nuclear Repulsion Energy =           1463.5324187583887579
    One-Electron Energy =               -5502.7347753435988125
    Two-Electron Energy =                2228.5146158400302738
    Total Energy =                      -1810.6877407451797808
  Basis Set: (AUG-CC-PVTZ AUX)
    Blend: AUG-CC-PVTZ-RI
    Molecular point group: c1

    Geometry (in Angstrom), charge = -4, multiplicity = 1:

       Center              X                  Y                   Z               Mass
    ------------   -----------------  -----------------  -----------------  -----------------
         P            2.600842065857     0.107085490452    -0.339333204819    30.973761998420
         P           -0.165371934143    -1.119118509548     0.309369795181    30.973761998420
         P           -2.690877934143     0.499942490452    -0.184124204819    30.973761998420
         O            1.971429065857     1.631313490452    -0.167687204819    15.994914619570
         O            1.268915065857    -0.853748509548    -0.528434204819    15.994914619570
         O            3.263341465857     0.124820690452    -1.692477904819    15.994914619570
         O            3.324864765857    -0.265114509548     0.932792295181    15.994914619570
         O           -0.970194934143     0.185751490452    -0.205943204819    15.994914619570
         O            0.111258065857    -1.055341509548     1.798782795181    15.994914619570
         O           -0.697088934143    -2.406064509548    -0.283817204819    15.994914619570
         O           -3.214795934143    -0.244045509548     1.057988795181    15.994914619570
         O           -2.694876934143     2.033150490452    -0.079356204819    15.994914619570
         O           -3.193417934143    -0.050738509548    -1.530792204819    15.994914619570
         C            1.439641065857     1.992630490452     1.121872795181    12.000000000000
         H            1.034918065857     1.126153490452     1.644451795181     1.007825032230
         H            2.220689065857     2.463690490452     1.726902795181     1.007825032230
         H            0.634040065857     2.706385490452     0.943063795181     1.007825032230

  Basis Set: AUG-CC-PVTZ
    Blend: AUG-CC-PVTZ
  Basis Set: (AUG-CC-PVTZ AUX)
    Blend: AUG-CC-PVTZ-JKFIT
	 Reference Energy          =   -1810.6877407451800082 [Eh]
	 Singles Energy            =      -0.0000000000000000 [Eh]
	 Same-Spin Energy          =      -0.9131563456125873 [Eh]
	 Opposite-Spin Energy      =      -2.5260378448492706 [Eh]
	 Correlation Energy        =      -3.4391941904618579 [Eh]
	 Total Energy              =   -1814.1269349356418843 [Eh]

	 ================> DF-SCS-MP2 Energies <==================
	-----------------------------------------------------------
	 SCS Same-Spin Scale       =       0.3333333333333333 [-]
	 SCS Opposite-Spin Scale   =       1.2000000000000000 [-]
	 SCS Same-Spin Energy      =      -0.3043854485375291 [Eh]
	 SCS Opposite-Spin Energy  =      -3.0312454138191245 [Eh]
	 SCS Correlation Energy    =      -3.3356308623566537 [Eh]
	 SCS Total Energy          =   -1814.0233716075367738 [Eh]
	-----------------------------------------------------------

  Dipole Moment: [D]
     X:     9.3988      Y:     2.3086      Z:     1.5947     Total:     9.8087

*** Psi4 exiting successfully. Buy a developer a beer!
