                               Psi4 1.3.2 release

  ==> Input File <==

--------------------------------------------------------------------------
#psi4
#
memory 32 gb

molecule  {
-4 1
  P        2.5828670     0.0826120    -0.3559070
  P       -0.1833470    -1.1435920     0.2927960
  P       -2.7088530     0.4754690    -0.2006980
  O        1.9534540     1.6068400    -0.1842610
  O        1.2509400    -0.8782220    -0.5450080
  O        3.2679280     0.0927970    -1.6978490
  O        3.3289310    -0.2934220     0.9022790
  O       -0.9881154     0.1560568    -0.2356301
  O        0.0993980    -1.0915282     1.7815160
  O       -0.7150640    -2.4305380    -0.3003910
  O       -3.2327710    -0.2685190     1.0414150
  O       -2.7128520     2.0086770    -0.0959300
  O       -3.2113930    -0.0752120    -1.5473660
  C        1.4216660     1.9681570     1.1052990
  H        1.0169430     1.1016800     1.6278780
  H        2.2027140     2.4392170     1.7103290
  H        0.6160650     2.6819120     0.9264900
units angstrom
no_reorient  #important for SAPT in psi4, default
symmetry c1  #important for SAPT in psi4, default
}

set PROPERTIES_ORIGIN ["COM"]
properties('MP2/aug-cc-pvtz', properties = ['dipole'])
--------------------------------------------------------------------------

    Molecular point group: c1
  Charge       = -4
  Multiplicity = 1
  Basis Set: AUG-CC-PVTZ
    Blend: AUG-CC-PVTZ
  Basis Set: (AUG-CC-PVTZ AUX)
    Blend: AUG-CC-PVTZ-JKFIT

    Orbital Energies [Eh]
    ---------------------

    Doubly Occupied:

       1A    -79.572409     2A    -79.526782     3A    -79.480242
       4A    -20.085796     5A    -20.037815     6A    -20.002722
       7A    -20.002416     8A    -19.993636     9A    -19.950713
      10A    -19.944072    11A    -19.924494    12A    -19.918939
      13A    -19.918098    14A    -10.812174    15A     -7.086233
      16A     -7.039721    17A     -6.993747    18A     -4.985186
      19A     -4.984235    20A     -4.983420    21A     -4.939010
      22A     -4.937590    23A     -4.936685    24A     -4.893208
      25A     -4.891019    26A     -4.890868    27A     -0.901972
      28A     -0.845561    29A     -0.806616    30A     -0.777944
      31A     -0.757491    32A     -0.742055    33A     -0.714066
      34A     -0.698992    35A     -0.663848    36A     -0.659303
      37A     -0.467186    38A     -0.293666    39A     -0.234755
      40A     -0.183980    41A     -0.164207    42A     -0.148983
      43A     -0.125990    44A     -0.099072    45A     -0.082722
      46A     -0.065121    47A     -0.051950    48A     -0.044058
      49A     -0.031787    50A     -0.016348    51A     -0.006657
      52A      0.000016    53A      0.009759    54A      0.014785
      55A      0.021416    56A      0.037467    57A      0.047216
      58A      0.053581    59A      0.067169    60A      0.071015
      61A      0.091246    62A      0.100220    63A      0.101878
      64A      0.103554    65A      0.114253    66A      0.125666
      67A      0.144022    68A      0.150318    69A      0.171751

  @DF-RHF Final Energy: -1810.68887662865677

   => Energetics <=

    Nuclear Repulsion Energy =           1462.7428698540409187
    One-Electron Energy =               -5501.0830368735632874
    Two-Electron Energy =                2227.6512903908660519
    Total Energy =                      -1810.6888766286565442
  Basis Set: (AUG-CC-PVTZ AUX)
    Blend: AUG-CC-PVTZ-RI
    Molecular point group: c1

    Geometry (in Angstrom), charge = -4, multiplicity = 1:

       Center              X                  Y                   Z               Mass
    ------------   -----------------  -----------------  -----------------  -----------------
         P            2.597810635203     0.108776285116    -0.338345491900    30.973761998420
         P           -0.168403364797    -1.117427714884     0.310357508100    30.973761998420
         P           -2.693909364797     0.501633285116    -0.183136491900    30.973761998420
         O            1.968397635203     1.633004285116    -0.166699491900    15.994914619570
         O            1.265883635203    -0.852057714884    -0.527446491900    15.994914619570
         O            3.282871635203     0.118961285116    -1.680287491900    15.994914619570
         O            3.343874635203    -0.267257714884     0.919840508100    15.994914619570
         O           -0.973171764797     0.182221085116    -0.218068591900    15.994914619570
         O            0.114341635203    -1.065363914884     1.799077508100    15.994914619570
         O           -0.700120364797    -2.404373714884    -0.282829491900    15.994914619570
         O           -3.217827364797    -0.242354714884     1.058976508100    15.994914619570
         O           -2.697908364797     2.034841285116    -0.078368491900    15.994914619570
         O           -3.196449364797    -0.049047714884    -1.529804491900    15.994914619570
         C            1.436609635203     1.994321285116     1.122860508100    12.000000000000
         H            1.031886635203     1.127844285116     1.645439508100     1.007825032230
         H            2.217657635203     2.465381285116     1.727890508100     1.007825032230
         H            0.631008635203     2.708076285116     0.944051508100     1.007825032230

  Basis Set: AUG-CC-PVTZ
    Blend: AUG-CC-PVTZ
  Basis Set: (AUG-CC-PVTZ AUX)
    Blend: AUG-CC-PVTZ-JKFIT
	 Reference Energy          =   -1810.6888766286567716 [Eh]
	 Singles Energy            =      -0.0000000000000000 [Eh]
	 Same-Spin Energy          =      -0.9130057602625159 [Eh]
	 Opposite-Spin Energy      =      -2.5257850600346643 [Eh]
	 Correlation Energy        =      -3.4387908202971804 [Eh]
	 Total Energy              =   -1814.1276674489538436 [Eh]

	 ================> DF-SCS-MP2 Energies <==================
	-----------------------------------------------------------
	 SCS Same-Spin Scale       =       0.3333333333333333 [-]
	 SCS Opposite-Spin Scale   =       1.2000000000000000 [-]
	 SCS Same-Spin Energy      =      -0.3043352534208386 [Eh]
	 SCS Opposite-Spin Energy  =      -3.0309420720415972 [Eh]
	 SCS Correlation Energy    =      -3.3352773254624357 [Eh]
	 SCS Total Energy          =   -1814.0241539541191287 [Eh]
	-----------------------------------------------------------

  Dipole Moment: [D]
     X:     9.2330      Y:     2.3822      Z:     1.6294     Total:     9.6736

*** Psi4 exiting successfully. Buy a developer a beer!
