                               Psi4 1.3.2 release

  ==> Input File <==

--------------------------------------------------------------------------
#psi4
#
memory 32 gb

molecule  {
-4 1
  P        2.5828670     0.0826120    -0.3559070
  P       -0.1833470    -1.1435920     0.2927960
  P       -2.7088530     0.4754690    -0.2006980
  O        1.9534540     1.6068400    -0.1842610
  O        1.2509400    -0.8782220    -0.5450080
  O        3.2679280     0.0927970    -1.6978490
  O        3.3289310    -0.2934220     0.9022790
  O       -0.9881700     0.1612780    -0.2225170
  O        0.0932830    -1.0798150     1.7822090
  O       -0.7150640    -2.4305380    -0.3003910
  O       -3.2327710    -0.2685190     1.0414150
  O       -2.7128520     2.0086770    -0.0959300
  O       -3.2113930    -0.0752120    -1.5473660
  C        1.4216660     1.9681570     1.1052990
  H        1.0288768     1.1050174     1.6423079
  H        2.2000085     2.4259755     1.7238295
  H        0.6160650     2.6819120     0.9264900
units angstrom
no_reorient  #important for SAPT in psi4, default
symmetry c1  #important for SAPT in psi4, default
}

set PROPERTIES_ORIGIN ["COM"]
properties('MP2/aug-cc-pvtz', properties = ['dipole'])
--------------------------------------------------------------------------

    Molecular point group: c1
  Charge       = -4
  Multiplicity = 1
  Basis Set: AUG-CC-PVTZ
    Blend: AUG-CC-PVTZ
  Basis Set: (AUG-CC-PVTZ AUX)
    Blend: AUG-CC-PVTZ-JKFIT

    Orbital Energies [Eh]
    ---------------------

    Doubly Occupied:

       1A    -79.572705     2A    -79.526804     3A    -79.479784
       4A    -20.086238     5A    -20.038286     6A    -20.002983
       7A    -20.002661     8A    -19.992824     9A    -19.949909
      10A    -19.945174    11A    -19.923863    12A    -19.919141
      13A    -19.917303    14A    -10.811874    15A     -7.086527
      16A     -7.039735    17A     -6.993288    18A     -4.985480
      19A     -4.984529    20A     -4.983713    21A     -4.939015
      22A     -4.937623    23A     -4.936693    24A     -4.892749
      25A     -4.890564    26A     -4.890414    27A     -0.902116
      28A     -0.845657    29A     -0.806650    30A     -0.778024
      31A     -0.757744    32A     -0.741956    33A     -0.713411
      34A     -0.699480    35A     -0.663388    36A     -0.658986
      37A     -0.467128    38A     -0.294009    39A     -0.235263
      40A     -0.184435    41A     -0.162161    42A     -0.148928
      43A     -0.126387    44A     -0.098868    45A     -0.082673
      46A     -0.064963    47A     -0.052093    48A     -0.044171
      49A     -0.032149    50A     -0.016103    51A     -0.007065
      52A      0.000352    53A      0.009800    54A      0.014691
      55A      0.021704    56A      0.037321    57A      0.047495
      58A      0.053347    59A      0.066974    60A      0.070955
      61A      0.091139    62A      0.100588    63A      0.102416
      64A      0.103984    65A      0.114042    66A      0.125413
      67A      0.144588    68A      0.150576    69A      0.172124

  @DF-RHF Final Energy: -1810.68891471061897

   => Energetics <=

    Nuclear Repulsion Energy =           1462.8653098965523895
    One-Electron Energy =               -5501.3360889917767054
    Two-Electron Energy =                2227.7818643846053419
    Total Energy =                      -1810.6889147106189739
  Basis Set: (AUG-CC-PVTZ AUX)
    Blend: AUG-CC-PVTZ-RI
    Molecular point group: c1

    Geometry (in Angstrom), charge = -4, multiplicity = 1:

       Center              X                  Y                   Z               Mass
    ------------   -----------------  -----------------  -----------------  -----------------
         P            2.598144281139     0.107802456764    -0.339274876034    30.973761998420
         P           -0.168069718861    -1.118401543236     0.309428123966    30.973761998420
         P           -2.693575718861     0.500659456764    -0.184065876034    30.973761998420
         O            1.968731281139     1.632030456764    -0.167628876034    15.994914619570
         O            1.266217281139    -0.853031543236    -0.528375876034    15.994914619570
         O            3.283205281139     0.117987456764    -1.681216876034    15.994914619570
         O            3.344208281139    -0.268231543236     0.918911123966    15.994914619570
         O           -0.972892718861     0.186468456764    -0.205884876034    15.994914619570
         O            0.108560281139    -1.054624543236     1.798841123966    15.994914619570
         O           -0.699786718861    -2.405347543236    -0.283758876034    15.994914619570
         O           -3.217493718861    -0.243328543236     1.058047123966    15.994914619570
         O           -2.697574718861     2.033867456764    -0.079297876034    15.994914619570
         O           -3.196115718861    -0.050021543236    -1.530733876034    15.994914619570
         C            1.436943281139     1.993347456764     1.121931123966    12.000000000000
         H            1.044154081139     1.130207856764     1.658940023966     1.007825032230
         H            2.215285781139     2.451165956764     1.740461623966     1.007825032230
         H            0.631342281139     2.707102456764     0.943122123966     1.007825032230

  Basis Set: AUG-CC-PVTZ
    Blend: AUG-CC-PVTZ
  Basis Set: (AUG-CC-PVTZ AUX)
    Blend: AUG-CC-PVTZ-JKFIT
	 Reference Energy          =   -1810.6889147106189739 [Eh]
	 Singles Energy            =      -0.0000000000000000 [Eh]
	 Same-Spin Energy          =      -0.9129937867497557 [Eh]
	 Opposite-Spin Energy      =      -2.5257303702979774 [Eh]
	 Correlation Energy        =      -3.4387241570477332 [Eh]
	 Total Energy              =   -1814.1276388676667466 [Eh]

	 ================> DF-SCS-MP2 Energies <==================
	-----------------------------------------------------------
	 SCS Same-Spin Scale       =       0.3333333333333333 [-]
	 SCS Opposite-Spin Scale   =       1.2000000000000000 [-]
	 SCS Same-Spin Energy      =      -0.3043312622499186 [Eh]
	 SCS Opposite-Spin Energy  =      -3.0308764443575726 [Eh]
	 SCS Correlation Energy    =      -3.3352077066074912 [Eh]
	 SCS Total Energy          =   -1814.0241224172264083 [Eh]
	-----------------------------------------------------------

  Dipole Moment: [D]
     X:     9.2673      Y:     2.3342      Z:     1.6118     Total:     9.6917

*** Psi4 exiting successfully. Buy a developer a beer!
