                               Psi4 1.3.2 release

  ==> Input File <==

--------------------------------------------------------------------------
#psi4
#
memory 32 gb

molecule  {
-4 1
  P        2.5828670     0.0826120    -0.3559070
  P       -0.1833470    -1.1435920     0.2927960
  P       -2.7088530     0.4754690    -0.2006980
  O        1.9534540     1.6068400    -0.1842610
  O        1.2509400    -0.8782220    -0.5450080
  O        3.2679280     0.0927970    -1.6978490
  O        3.3289310    -0.2934220     0.9022790
  O       -0.9856988     0.1780579    -0.2479023
  O        0.0932830    -1.0798150     1.7822090
  O       -0.7150640    -2.4305380    -0.3003910
  O       -3.2576091    -0.2599429     1.0357845
  O       -2.7128520     2.0086770    -0.0959300
  O       -3.2113930    -0.0752120    -1.5473660
  C        1.4216660     1.9681570     1.1052990
  H        1.0169430     1.1016800     1.6278780
  H        2.2027140     2.4392170     1.7103290
  H        0.6160650     2.6819120     0.9264900
units angstrom
no_reorient  #important for SAPT in psi4, default
symmetry c1  #important for SAPT in psi4, default
}

set PROPERTIES_ORIGIN ["COM"]
properties('MP2/aug-cc-pvtz', properties = ['dipole'])
--------------------------------------------------------------------------

    Molecular point group: c1
  Charge       = -4
  Multiplicity = 1
  Basis Set: AUG-CC-PVTZ
    Blend: AUG-CC-PVTZ
  Basis Set: (AUG-CC-PVTZ AUX)
    Blend: AUG-CC-PVTZ-JKFIT

    Orbital Energies [Eh]
    ---------------------

    Doubly Occupied:

       1A    -79.573148     2A    -79.530395     3A    -79.478364
       4A    -20.085968     5A    -20.039362     6A    -20.003466
       7A    -20.002982     8A    -19.994881     9A    -19.953693
      10A    -19.947741    11A    -19.921629    12A    -19.918176
      13A    -19.916863    14A    -10.812090    15A     -7.086970
      16A     -7.043026    17A     -6.991946    18A     -4.985918
      19A     -4.984978    20A     -4.984155    21A     -4.942331
      22A     -4.940824    23A     -4.939998    24A     -4.891357
      25A     -4.889236    26A     -4.889097    27A     -0.902349
      28A     -0.845602    29A     -0.805469    30A     -0.777473
      31A     -0.758160    32A     -0.743364    33A     -0.712796
      34A     -0.702136    35A     -0.661944    36A     -0.657960
      37A     -0.467179    38A     -0.294333    39A     -0.233885
      40A     -0.182565    41A     -0.163659    42A     -0.148944
      43A     -0.126905    44A     -0.100055    45A     -0.083412
      46A     -0.065039    47A     -0.051939    48A     -0.044231
      49A     -0.031318    50A     -0.016076    51A     -0.006910
      52A     -0.000037    53A      0.009347    54A      0.014388
      55A      0.021272    56A      0.037218    57A      0.047077
      58A      0.052871    59A      0.065641    60A      0.069888
      61A      0.089812    62A      0.100217    63A      0.103761
      64A      0.104428    65A      0.112520    66A      0.123194
      67A      0.145222    68A      0.151658    69A      0.173396

  @DF-RHF Final Energy: -1810.68721009271712

   => Energetics <=

    Nuclear Repulsion Energy =           1461.8155157593641889
    One-Electron Energy =               -5499.1846072044718312
    Two-Electron Energy =                2226.6818813523905192
    Total Energy =                      -1810.6872100927171232
  Basis Set: (AUG-CC-PVTZ AUX)
    Blend: AUG-CC-PVTZ-RI
    Molecular point group: c1

    Geometry (in Angstrom), charge = -4, multiplicity = 1:

       Center              X                  Y                   Z               Mass
    ------------   -----------------  -----------------  -----------------  -----------------
         P            2.599514439839     0.106251288023    -0.337317966919    30.973761998420
         P           -0.166699560161    -1.119952711977     0.311385033081    30.973761998420
         P           -2.692205560161     0.499108288023    -0.182108966919    30.973761998420
         O            1.970101439839     1.630479288023    -0.165671966919    15.994914619570
         O            1.267587439839    -0.854582711977    -0.526418966919    15.994914619570
         O            3.284575439839     0.116436288023    -1.679259966919    15.994914619570
         O            3.345578439839    -0.269782711977     0.920868033081    15.994914619570
         O           -0.969051360161     0.201697188023    -0.229313266919    15.994914619570
         O            0.109930439839    -1.056175711977     1.800798033081    15.994914619570
         O           -0.698416560161    -2.406898711977    -0.281801966919    15.994914619570
         O           -3.240961660161    -0.236303611977     1.054373533081    15.994914619570
         O           -2.696204560161     2.032316288023    -0.077340966919    15.994914619570
         O           -3.194745560161    -0.051572711977    -1.528776966919    15.994914619570
         C            1.438313439839     1.991796288023     1.123888033081    12.000000000000
         H            1.033590439839     1.125319288023     1.646467033081     1.007825032230
         H            2.219361439839     2.462856288023     1.728918033081     1.007825032230
         H            0.632712439839     2.705551288023     0.945079033081     1.007825032230

  Basis Set: AUG-CC-PVTZ
    Blend: AUG-CC-PVTZ
  Basis Set: (AUG-CC-PVTZ AUX)
    Blend: AUG-CC-PVTZ-JKFIT
	 Reference Energy          =   -1810.6872100927171232 [Eh]
	 Singles Energy            =      -0.0000000000000000 [Eh]
	 Same-Spin Energy          =      -0.9132934576924380 [Eh]
	 Opposite-Spin Energy      =      -2.5265776247412193 [Eh]
	 Correlation Energy        =      -3.4398710824336574 [Eh]
	 Total Energy              =   -1814.1270811751508063 [Eh]

	 ================> DF-SCS-MP2 Energies <==================
	-----------------------------------------------------------
	 SCS Same-Spin Scale       =       0.3333333333333333 [-]
	 SCS Opposite-Spin Scale   =       1.2000000000000000 [-]
	 SCS Same-Spin Energy      =      -0.3044311525641460 [Eh]
	 SCS Opposite-Spin Energy  =      -3.0318931496894632 [Eh]
	 SCS Correlation Energy    =      -3.3363243022536091 [Eh]
	 SCS Total Energy          =   -1814.0235343949707385 [Eh]
	-----------------------------------------------------------

  Dipole Moment: [D]
     X:     9.4239      Y:     2.2145      Z:     1.6881     Total:     9.8267

*** Psi4 exiting successfully. Buy a developer a beer!
