                               Psi4 1.3.2 release

  ==> Input File <==

--------------------------------------------------------------------------
#psi4
#
memory 32 gb

molecule  {
-4 1
  P        2.5828670     0.0826120    -0.3559070
  P       -0.1833470    -1.1435920     0.2927960
  P       -2.7088530     0.4754690    -0.2006980
  O        1.9534540     1.6068400    -0.1842610
  O        1.2509400    -0.8782220    -0.5450080
  O        3.2679280     0.0927970    -1.6978490
  O        3.2795330    -0.2685242     0.8189727
  O       -0.9881700     0.1612780    -0.2225170
  O        0.0932830    -1.0798150     1.7822090
  O       -0.7150640    -2.4305380    -0.3003910
  O       -3.2327710    -0.2685190     1.0414150
  O       -2.7128520     2.0086770    -0.0959300
  O       -3.2113930    -0.0752120    -1.5473660
  C        1.4216660     1.9681570     1.1052990
  H        1.0169430     1.1016800     1.6278780
  H        2.2027140     2.4392170     1.7103290
  H        0.6160650     2.6819120     0.9264900
units angstrom
no_reorient  #important for SAPT in psi4, default
symmetry c1  #important for SAPT in psi4, default
}

set PROPERTIES_ORIGIN ["COM"]
properties('MP2/aug-cc-pvtz', properties = ['dipole'])
--------------------------------------------------------------------------

    Molecular point group: c1
  Charge       = -4
  Multiplicity = 1
  Basis Set: AUG-CC-PVTZ
    Blend: AUG-CC-PVTZ
  Basis Set: (AUG-CC-PVTZ AUX)
    Blend: AUG-CC-PVTZ-JKFIT

    Orbital Energies [Eh]
    ---------------------

    Doubly Occupied:

       1A    -79.551091     2A    -79.524280     3A    -79.478328
       4A    -20.077908     5A    -20.030234     6A    -19.997910
       7A    -19.993536     8A    -19.990637     9A    -19.948860
      10A    -19.942955    11A    -19.922484    12A    -19.917765
      13A    -19.916083    14A    -10.809304    15A     -7.069947
      16A     -7.037170    17A     -6.991825    18A     -4.968516
      19A     -4.968065    20A     -4.967021    21A     -4.936412
      22A     -4.935091    23A     -4.934176    24A     -4.891279
      25A     -4.889108    26A     -4.888960    27A     -0.904804
      28A     -0.842143    29A     -0.820964    30A     -0.783555
      31A     -0.761291    32A     -0.739484    33A     -0.711762
      34A     -0.697801    35A     -0.662030    36A     -0.657687
      37A     -0.463543    38A     -0.287208    39A     -0.231183
      40A     -0.182187    41A     -0.161421    42A     -0.144824
      43A     -0.129316    44A     -0.099573    45A     -0.083533
      46A     -0.064156    47A     -0.053199    48A     -0.043824
      49A     -0.034047    50A     -0.014449    51A     -0.009439
      52A     -0.000186    53A      0.008649    54A      0.014706
      55A      0.023103    56A      0.041381    57A      0.047085
      58A      0.050552    59A      0.065347    60A      0.073084
      61A      0.093637    62A      0.101977    63A      0.103990
      64A      0.105523    65A      0.115867    66A      0.127027
      67A      0.145989    68A      0.152009    69A      0.173432

  @DF-RHF Final Energy: -1810.68362567390682

   => Energetics <=

    Nuclear Repulsion Energy =           1468.0980531603302097
    One-Electron Energy =               -5512.1249618373149133
    Two-Electron Energy =                2233.3432830030778860
    Total Energy =                      -1810.6836256739070450
  Basis Set: (AUG-CC-PVTZ AUX)
    Blend: AUG-CC-PVTZ-RI
    Molecular point group: c1

    Geometry (in Angstrom), charge = -4, multiplicity = 1:

       Center              X                  Y                   Z               Mass
    ------------   -----------------  -----------------  -----------------  -----------------
         P            2.601128362831     0.106278645382    -0.334195902325    30.973761998420
         P           -0.165085637169    -1.119925354618     0.314507097675    30.973761998420
         P           -2.690591637169     0.499135645382    -0.178986902325    30.973761998420
         O            1.971715362831     1.630506645382    -0.162549902325    15.994914619570
         O            1.269201362831    -0.854555354618    -0.523296902325    15.994914619570
         O            3.286189362831     0.116463645382    -1.676137902325    15.994914619570
         O            3.297794362831    -0.244857554618     0.840683797675    15.994914619570
         O           -0.969908637169     0.184944645382    -0.200805902325    15.994914619570
         O            0.111544362831    -1.056148354618     1.803920097675    15.994914619570
         O           -0.696802637169    -2.406871354618    -0.278679902325    15.994914619570
         O           -3.214509637169    -0.244852354618     1.063126097675    15.994914619570
         O           -2.694590637169     2.032343645382    -0.074218902325    15.994914619570
         O           -3.193131637169    -0.051545354618    -1.525654902325    15.994914619570
         C            1.439927362831     1.991823645382     1.127010097675    12.000000000000
         H            1.035204362831     1.125346645382     1.649589097675     1.007825032230
         H            2.220975362831     2.462883645382     1.732040097675     1.007825032230
         H            0.634326362831     2.705578645382     0.948201097675     1.007825032230

  Basis Set: AUG-CC-PVTZ
    Blend: AUG-CC-PVTZ
  Basis Set: (AUG-CC-PVTZ AUX)
    Blend: AUG-CC-PVTZ-JKFIT
	 Reference Energy          =   -1810.6836256739068176 [Eh]
	 Singles Energy            =      -0.0000000000000000 [Eh]
	 Same-Spin Energy          =      -0.9110190216043093 [Eh]
	 Opposite-Spin Energy      =      -2.5207961680883355 [Eh]
	 Correlation Energy        =      -3.4318151896926450 [Eh]
	 Total Energy              =   -1814.1154408635993605 [Eh]

	 ================> DF-SCS-MP2 Energies <==================
	-----------------------------------------------------------
	 SCS Same-Spin Scale       =       0.3333333333333333 [-]
	 SCS Opposite-Spin Scale   =       1.2000000000000000 [-]
	 SCS Same-Spin Energy      =      -0.3036730072014364 [Eh]
	 SCS Opposite-Spin Energy  =      -3.0249554017060025 [Eh]
	 SCS Correlation Energy    =      -3.3286284089074387 [Eh]
	 SCS Total Energy          =   -1814.0122540828142519 [Eh]
	-----------------------------------------------------------

  Dipole Moment: [D]
     X:     9.7099      Y:     2.2011      Z:     2.0248     Total:    10.1601

*** Psi4 exiting successfully. Buy a developer a beer!
