                               Psi4 1.3.2 release

  ==> Input File <==

--------------------------------------------------------------------------
#psi4
#
memory 32 gb

molecule  {
-4 1
  P        2.5828670     0.0826120    -0.3559070
  P       -0.1833470    -1.1435920     0.2927960
  P       -2.7088530     0.4754690    -0.2006980
  O        1.9534540     1.6068400    -0.1842610
  O        1.2509400    -0.8782220    -0.5450080
  O        3.2679280     0.0927970    -1.6978490
  O        3.3289310    -0.2934220     0.9022790
  O       -0.9946839     0.1280103    -0.1717341
  O        0.0932830    -1.0798150     1.7822090
  O       -0.7150640    -2.4305380    -0.3003910
  O       -3.1826236    -0.2849887     1.0515394
  O       -2.7128520     2.0086770    -0.0959300
  O       -3.2113930    -0.0752120    -1.5473660
  C        1.4216660     1.9681570     1.1052990
  H        1.0169430     1.1016800     1.6278780
  H        2.2027140     2.4392170     1.7103290
  H        0.6160650     2.6819120     0.9264900
units angstrom
no_reorient  #important for SAPT in psi4, default
symmetry c1  #important for SAPT in psi4, default
}

set PROPERTIES_ORIGIN ["COM"]
properties('MP2/aug-cc-pvtz', properties = ['dipole'])
--------------------------------------------------------------------------

    Molecular point group: c1
  Charge       = -4
  Multiplicity = 1
  Basis Set: AUG-CC-PVTZ
    Blend: AUG-CC-PVTZ
  Basis Set: (AUG-CC-PVTZ AUX)
    Blend: AUG-CC-PVTZ-JKFIT

    Orbital Energies [Eh]
    ---------------------

    Doubly Occupied:

       1A    -79.571386     2A    -79.519736     3A    -79.482808
       4A    -20.085038     5A    -20.036228     6A    -20.001690
       7A    -20.001591     8A    -19.988804     9A    -19.942841
      10A    -19.940284    11A    -19.928428    12A    -19.923824
      13A    -19.915618    14A    -10.810937    15A     -7.085210
      16A     -7.033373    17A     -6.996179    18A     -4.984165
      19A     -4.983207    20A     -4.982399    21A     -4.932579
      22A     -4.931457    23A     -4.930284    24A     -4.895748
      25A     -4.893441    26A     -4.893219    27A     -0.901118
      28A     -0.846240    29A     -0.809293    30A     -0.778641
      31A     -0.756527    32A     -0.740388    33A     -0.713855
      34A     -0.694454    35A     -0.666818    36A     -0.660491
      37A     -0.466108    38A     -0.292838    39A     -0.236339
      40A     -0.187013    41A     -0.164327    42A     -0.148408
      43A     -0.124183    44A     -0.096746    45A     -0.081731
      46A     -0.065348    47A     -0.052052    48A     -0.043642
      49A     -0.032918    50A     -0.016139    51A     -0.006318
      52A      0.000876    53A      0.010354    54A      0.015249
      55A      0.022354    56A      0.037908    57A      0.048426
      58A      0.054777    59A      0.069329    60A      0.073340
      61A      0.092057    62A      0.098883    63A      0.101186
      64A      0.104573    65A      0.117517    66A      0.129232
      67A      0.143175    68A      0.149723    69A      0.169602

  @DF-RHF Final Energy: -1810.68953276800494

   => Energetics <=

    Nuclear Repulsion Energy =           1465.1347767788147394
    One-Electron Energy =               -5505.9809215526474873
    Two-Electron Energy =                2230.1566120058278102
    Total Energy =                      -1810.6895327680049377
  Basis Set: (AUG-CC-PVTZ AUX)
    Blend: AUG-CC-PVTZ-RI
    Molecular point group: c1

    Geometry (in Angstrom), charge = -4, multiplicity = 1:

       Center              X                  Y                   Z               Mass
    ------------   -----------------  -----------------  -----------------  -----------------
         P            2.595573809857     0.110734826054    -0.342806341593    30.973761998420
         P           -0.170640190143    -1.115469173946     0.305896658407    30.973761998420
         P           -2.696146190143     0.503591826054    -0.187597341593    30.973761998420
         O            1.966160809857     1.634962826054    -0.171160341593    15.994914619570
         O            1.263646809857    -0.850099173946    -0.531907341593    15.994914619570
         O            3.280634809857     0.120919826054    -1.684748341593    15.994914619570
         O            3.341637809857    -0.265299173946     0.915379658407    15.994914619570
         O           -0.981977090143     0.156133126054    -0.158633441593    15.994914619570
         O            0.105989809857    -1.051692173946     1.795309658407    15.994914619570
         O           -0.702357190143    -2.402415173946    -0.287290341593    15.994914619570
         O           -3.169916790143    -0.256865873946     1.064640058407    15.994914619570
         O           -2.700145190143     2.036799826054    -0.082829341593    15.994914619570
         O           -3.198686190143    -0.047089173946    -1.534265341593    15.994914619570
         C            1.434372809857     1.996279826054     1.118399658407    12.000000000000
         H            1.029649809857     1.129802826054     1.640978658407     1.007825032230
         H            2.215420809857     2.467339826054     1.723429658407     1.007825032230
         H            0.628771809857     2.710034826054     0.939590658407     1.007825032230

  Basis Set: AUG-CC-PVTZ
    Blend: AUG-CC-PVTZ
  Basis Set: (AUG-CC-PVTZ AUX)
    Blend: AUG-CC-PVTZ-JKFIT
	 Reference Energy          =   -1810.6895327680049377 [Eh]
	 Singles Energy            =      -0.0000000000000000 [Eh]
	 Same-Spin Energy          =      -0.9125774897584739 [Eh]
	 Opposite-Spin Energy      =      -2.5244433876220933 [Eh]
	 Correlation Energy        =      -3.4370208773805673 [Eh]
	 Total Energy              =   -1814.1265536453854565 [Eh]

	 ================> DF-SCS-MP2 Energies <==================
	-----------------------------------------------------------
	 SCS Same-Spin Scale       =       0.3333333333333333 [-]
	 SCS Opposite-Spin Scale   =       1.2000000000000000 [-]
	 SCS Same-Spin Energy      =      -0.3041924965861579 [Eh]
	 SCS Opposite-Spin Energy  =      -3.0293320651465119 [Eh]
	 SCS Correlation Energy    =      -3.3335245617326699 [Eh]
	 SCS Total Energy          =   -1814.0230573297376395 [Eh]
	-----------------------------------------------------------

  Dipole Moment: [D]
     X:     8.9250      Y:     2.5860      Z:     1.4490     Total:     9.4044

*** Psi4 exiting successfully. Buy a developer a beer!
