                               Psi4 1.3.2 release

  ==> Input File <==

--------------------------------------------------------------------------
#psi4
#
memory 32 gb

molecule  {
-4 1
  P        2.5828670     0.0826120    -0.3559070
  P       -0.1833470    -1.1435920     0.2927960
  P       -2.7088530     0.4754690    -0.2006980
  O        1.9534540     1.6068400    -0.1842610
  O        1.2509400    -0.8782220    -0.5450080
  O        3.2679280     0.0927970    -1.6978490
  O        3.3289310    -0.2934220     0.9022790
  O       -0.9881700     0.1612780    -0.2225170
  O        0.0932830    -1.0798150     1.7822090
  O       -0.7150640    -2.4305380    -0.3003910
  O       -3.2327710    -0.2685190     1.0414150
  O       -2.6935330     2.0043822    -0.0460730
  O       -3.2029166    -0.1250194    -1.5290901
  C        1.4216660     1.9681570     1.1052990
  H        1.0169430     1.1016800     1.6278780
  H        2.2027140     2.4392170     1.7103290
  H        0.6160650     2.6819120     0.9264900
units angstrom
no_reorient  #important for SAPT in psi4, default
symmetry c1  #important for SAPT in psi4, default
}

set PROPERTIES_ORIGIN ["COM"]
properties('MP2/aug-cc-pvtz', properties = ['dipole'])
--------------------------------------------------------------------------

    Molecular point group: c1
  Charge       = -4
  Multiplicity = 1
  Basis Set: AUG-CC-PVTZ
    Blend: AUG-CC-PVTZ
  Basis Set: (AUG-CC-PVTZ AUX)
    Blend: AUG-CC-PVTZ-JKFIT

    Orbital Energies [Eh]
    ---------------------

    Doubly Occupied:

       1A    -79.571926     2A    -79.525424     3A    -79.479872
       4A    -20.085055     5A    -20.037324     6A    -20.002236
       7A    -20.002086     8A    -19.990562     9A    -19.948743
      10A    -19.943696    11A    -19.926995    12A    -19.922321
      13A    -19.912853    14A    -10.810960    15A     -7.085748
      16A     -7.038349    17A     -6.993402    18A     -4.984698
      19A     -4.983751    20A     -4.982938    21A     -4.937634
      22A     -4.936231    23A     -4.935310    24A     -4.892889
      25A     -4.890699    26A     -4.890482    27A     -0.901273
      28A     -0.844592    29A     -0.805726    30A     -0.777391
      31A     -0.757073    32A     -0.741260    33A     -0.712336
      34A     -0.698132    35A     -0.667408    36A     -0.656144
      37A     -0.466097    38A     -0.292844    39A     -0.233694
      40A     -0.183227    41A     -0.163266    42A     -0.148117
      43A     -0.125248    44A     -0.097922    45A     -0.082065
      46A     -0.064452    47A     -0.051057    48A     -0.043163
      49A     -0.030928    50A     -0.015608    51A     -0.006027
      52A      0.000424    53A      0.009910    54A      0.015083
      55A      0.023075    56A      0.038037    57A      0.047671
      58A      0.054142    59A      0.067893    60A      0.072048
      61A      0.092090    62A      0.099332    63A      0.102112
      64A      0.105841    65A      0.114826    66A      0.126100
      67A      0.144072    68A      0.151408    69A      0.172181

  @DF-RHF Final Energy: -1810.68708181312331

   => Energetics <=

    Nuclear Repulsion Energy =           1463.6697013711432191
    One-Electron Energy =               -5503.0315863809655639
    Two-Electron Energy =                2228.6748031966990311
    Total Energy =                      -1810.6870818131233136
  Basis Set: (AUG-CC-PVTZ AUX)
    Blend: AUG-CC-PVTZ-RI
    Molecular point group: c1

    Geometry (in Angstrom), charge = -4, multiplicity = 1:

       Center              X                  Y                   Z               Mass
    ------------   -----------------  -----------------  -----------------  -----------------
         P            2.596519441879     0.110995431470    -0.343237754372    30.973761998420
         P           -0.169694558121    -1.115208568530     0.305465245628    30.973761998420
         P           -2.695200558121     0.503852431470    -0.188028754372    30.973761998420
         O            1.967106441879     1.635223431470    -0.171591754372    15.994914619570
         O            1.264592441879    -0.849838568530    -0.532338754372    15.994914619570
         O            3.281580441879     0.121180431470    -1.685179754372    15.994914619570
         O            3.342583441879    -0.265038568530     0.914948245628    15.994914619570
         O           -0.974517558121     0.189661431470    -0.209847754372    15.994914619570
         O            0.106935441879    -1.051431568530     1.794878245628    15.994914619570
         O           -0.701411558121    -2.402154568530    -0.287721754372    15.994914619570
         O           -3.219118558121    -0.240135568530     1.054084245628    15.994914619570
         O           -2.679880558121     2.032765631470    -0.033403754372    15.994914619570
         O           -3.189264158121    -0.096635968530    -1.516420854372    15.994914619570
         C            1.435318441879     1.996540431470     1.117968245628    12.000000000000
         H            1.030595441879     1.130063431470     1.640547245628     1.007825032230
         H            2.216366441879     2.467600431470     1.722998245628     1.007825032230
         H            0.629717441879     2.710295431470     0.939159245628     1.007825032230

  Basis Set: AUG-CC-PVTZ
    Blend: AUG-CC-PVTZ
  Basis Set: (AUG-CC-PVTZ AUX)
    Blend: AUG-CC-PVTZ-JKFIT
	 Reference Energy          =   -1810.6870818131233136 [Eh]
	 Singles Energy            =      -0.0000000000000000 [Eh]
	 Same-Spin Energy          =      -0.9131629965230901 [Eh]
	 Opposite-Spin Energy      =      -2.5260411527052544 [Eh]
	 Correlation Energy        =      -3.4392041492283445 [Eh]
	 Total Energy              =   -1814.1262859623516306 [Eh]

	 ================> DF-SCS-MP2 Energies <==================
	-----------------------------------------------------------
	 SCS Same-Spin Scale       =       0.3333333333333333 [-]
	 SCS Opposite-Spin Scale   =       1.2000000000000000 [-]
	 SCS Same-Spin Energy      =      -0.3043876655076967 [Eh]
	 SCS Opposite-Spin Energy  =      -3.0312493832463052 [Eh]
	 SCS Correlation Energy    =      -3.3356370487540019 [Eh]
	 SCS Total Energy          =   -1814.0227188618773653 [Eh]
	-----------------------------------------------------------

  Dipole Moment: [D]
     X:     9.1568      Y:     2.4901      Z:     1.4173     Total:     9.5946

*** Psi4 exiting successfully. Buy a developer a beer!
