                               Psi4 1.4a3.dev225

  ==> Input File <==

--------------------------------------------------------------------------
#psi4
#
memory 32 gb

molecule  {
-4 1
  P       -2.5202440    -0.2449420     0.3712220
  P        0.3565170    -0.5960480    -0.3589090
  P        3.1750170     0.3881900     0.1554910
  O       -2.7927880     1.3311510    -0.1150520
  O       -0.9319647    -0.0775769     0.6540653
  O       -3.1856250    -0.4605710     1.7148300
  O       -2.8507450    -1.1694890    -0.7786080
  O        1.4898640     0.0841660     0.5723090
  O        0.2127210     0.0849480    -1.7048820
  O        0.4027150    -2.1095660    -0.2874290
  O        3.5327910    -0.6840640    -0.8835370
  O        3.1643710     1.8286230    -0.3742880
  O        3.8338960     0.2099350     1.5311200
  C       -4.1398760     1.5889580    -0.5252390
  H       -4.4292020     0.9309370    -1.3496150
  H       -4.8386320     1.4471050     0.3059850
  H       -4.1840730     2.6280350    -0.8559160
units angstrom
no_reorient  #important for SAPT in psi4, default
symmetry c1  #important for SAPT in psi4, default
}

set PROPERTIES_ORIGIN ["COM"]
properties('MP2/aug-cc-pvtz', properties = ['dipole'])
--------------------------------------------------------------------------

    Molecular point group: c1
  Charge       = -4
  Multiplicity = 1
  Basis Set: AUG-CC-PVTZ
    Blend: AUG-CC-PVTZ
  Basis Set: (AUG-CC-PVTZ AUX)
    Blend: AUG-CC-PVTZ-JKFIT

    Orbital Energies [Eh]
    ---------------------

    Doubly Occupied:

       1A    -79.577564     2A    -79.520141     3A    -79.476417
       4A    -20.117465     5A    -20.041342     6A    -20.012366
       7A    -20.003984     8A    -19.986051     9A    -19.939249
      10A    -19.937521    11A    -19.922760    12A    -19.917836
      13A    -19.914117    14A    -10.882181    15A     -7.092150
      16A     -7.032977    17A     -6.990178    18A     -4.991296
      19A     -4.989989    20A     -4.989077    21A     -4.932353
      22A     -4.930768    23A     -4.929639    24A     -4.889582
      25A     -4.887457    26A     -4.887329    27A     -0.930118
      28A     -0.852318    29A     -0.806339    30A     -0.777835
      31A     -0.759773    32A     -0.738196    33A     -0.707379
      34A     -0.688888    35A     -0.662780    36A     -0.658140
      37A     -0.526944    38A     -0.306535    39A     -0.251106
      40A     -0.219495    41A     -0.196000    42A     -0.164738
      43A     -0.139256    44A     -0.107658    45A     -0.094655
      46A     -0.078142    47A     -0.062425    48A     -0.051126
      49A     -0.035851    50A     -0.024205    51A     -0.013122
      52A     -0.010436    53A      0.010360    54A      0.011332
      55A      0.022051    56A      0.035365    57A      0.049085
      58A      0.053380    59A      0.063035    60A      0.080491
      61A      0.096002    62A      0.102486    63A      0.105937
      64A      0.106892    65A      0.122954    66A      0.133532
      67A      0.147014    68A      0.153277    69A      0.173705

  @DF-RHF Final Energy: -1810.67579727464999

   => Energetics <=

    Nuclear Repulsion Energy =           1425.3218321706831375
    One-Electron Energy =               -5425.6185596486575378
    Two-Electron Energy =                2189.6209302033244057
    Total Energy =                      -1810.6757972746499945
  Basis Set: (AUG-CC-PVTZ AUX)
    Blend: AUG-CC-PVTZ-RI
    Molecular point group: c1

    Geometry (in Angstrom), charge = -4, multiplicity = 1:

       Center              X                  Y                   Z               Mass
    ------------   -----------------  -----------------  -----------------  -----------------
         P           -2.572790616094    -0.225134226918     0.362879050804    30.973761998420
         P            0.303970383906    -0.576240226918    -0.367251949196    30.973761998420
         P            3.122470383906     0.407997773082     0.147148050804    30.973761998420
         O           -2.845334616094     1.350958773082    -0.123394949196    15.994914619570
         O           -0.984511316094    -0.057769126918     0.645722350804    15.994914619570
         O           -3.238171616094    -0.440763226918     1.706487050804    15.994914619570
         O           -2.903291616094    -1.149681226918    -0.786950949196    15.994914619570
         O            1.437317383906     0.103973773082     0.563966050804    15.994914619570
         O            0.160174383906     0.104755773082    -1.713224949196    15.994914619570
         O            0.350168383906    -2.089758226918    -0.295771949196    15.994914619570
         O            3.480244383906    -0.664256226918    -0.891879949196    15.994914619570
         O            3.111824383906     1.848430773082    -0.382630949196    15.994914619570
         O            3.781349383906     0.229742773082     1.522777050804    15.994914619570
         C           -4.192422616094     1.608765773082    -0.533581949196    12.000000000000
         H           -4.481748616094     0.950744773082    -1.357957949196     1.007825032230
         H           -4.891178616094     1.466912773082     0.297642050804     1.007825032230
         H           -4.236619616094     2.647842773082    -0.864258949196     1.007825032230

  Basis Set: AUG-CC-PVTZ
    Blend: AUG-CC-PVTZ
  Basis Set: (AUG-CC-PVTZ AUX)
    Blend: AUG-CC-PVTZ-JKFIT
	 Reference Energy          =   -1810.6757972746499945 [Eh]
	 Singles Energy            =      -0.0000000000000000 [Eh]
	 Same-Spin Energy          =      -0.9124853763770991 [Eh]
	 Opposite-Spin Energy      =      -2.5254824553627917 [Eh]
	 Correlation Energy        =      -3.4379678317398907 [Eh]
	 Total Energy              =   -1814.1137651063897920 [Eh]

	 ================> DF-SCS-MP2 Energies <==================
	-----------------------------------------------------------
	 SCS Same-Spin Scale       =       0.3333333333333333 [-]
	 SCS Opposite-Spin Scale   =       1.2000000000000000 [-]
	 SCS Same-Spin Energy      =      -0.3041617921256997 [Eh]
	 SCS Opposite-Spin Energy  =      -3.0305789464353499 [Eh]
	 SCS Correlation Energy    =      -3.3347407385610497 [Eh]
	 SCS Total Energy          =   -1814.0105380132110895 [Eh]
	-----------------------------------------------------------

  Dipole Moment: [D]
     X:   -14.7642      Y:     2.6778      Z:    -0.0616     Total:    15.0052

*** Psi4 exiting successfully. Buy a developer a beer!
