                               Psi4 1.3.2 release

  ==> Input File <==

--------------------------------------------------------------------------
#psi4
#
memory 32 gb

molecule  {
-4 1
  P        2.5828670     0.0826120    -0.3559070
  P       -0.1833470    -1.1435920     0.2927960
  P       -2.7088530     0.4754690    -0.2006980
  O        1.9534540     1.6068400    -0.1842610
  O        1.2509400    -0.8782220    -0.5450080
  O        3.2679280     0.0927970    -1.6978490
  O        3.3289310    -0.2934220     0.9022790
  O       -0.9782267     0.2213808    -0.2184121
  O        0.0932830    -1.0798150     1.7822090
  O       -0.7150640    -2.4305380    -0.3003910
  O       -3.2327710    -0.2685190     1.0414150
  O       -2.6592166     2.0078830    -0.0959952
  O       -3.2113930    -0.0752120    -1.5473660
  C        1.4216660     1.9681570     1.1052990
  H        1.0169430     1.1016800     1.6278780
  H        2.2027140     2.4392170     1.7103290
  H        0.6160650     2.6819120     0.9264900
units angstrom
no_reorient  #important for SAPT in psi4, default
symmetry c1  #important for SAPT in psi4, default
}

set PROPERTIES_ORIGIN ["COM"]
properties('MP2/aug-cc-pvtz', properties = ['dipole'])
--------------------------------------------------------------------------

    Molecular point group: c1
  Charge       = -4
  Multiplicity = 1
  Basis Set: AUG-CC-PVTZ
    Blend: AUG-CC-PVTZ
  Basis Set: (AUG-CC-PVTZ AUX)
    Blend: AUG-CC-PVTZ-JKFIT

    Orbital Energies [Eh]
    ---------------------

    Doubly Occupied:

       1A    -79.572107     2A    -79.530509     3A    -79.477239
       4A    -20.084090     5A    -20.038694     6A    -20.002431
       7A    -20.002088     8A    -19.990922     9A    -19.951685
      10A    -19.950111    11A    -19.920402    12A    -19.919169
      13A    -19.919056    14A    -10.809687    15A     -7.085917
      16A     -7.042906    17A     -6.990920    18A     -4.984860
      19A     -4.983931    20A     -4.983106    21A     -4.942214
      22A     -4.940594    23A     -4.939911    24A     -4.890377
      25A     -4.888163    26A     -4.888097    27A     -0.900669
      28A     -0.843232    29A     -0.802300    30A     -0.775506
      31A     -0.757186    32A     -0.742957    33A     -0.708516
      34A     -0.702262    35A     -0.661829    36A     -0.659917
      37A     -0.464858    38A     -0.292525    39A     -0.230491
      40A     -0.179040    41A     -0.160581    42A     -0.146733
      43A     -0.125707    44A     -0.098989    45A     -0.082289
      46A     -0.064281    47A     -0.049645    48A     -0.042127
      49A     -0.028880    50A     -0.014021    51A     -0.005520
      52A      0.000115    53A      0.009872    54A      0.015488
      55A      0.021567    56A      0.038623    57A      0.049898
      58A      0.054094    59A      0.066215    60A      0.070876
      61A      0.089360    62A      0.101033    63A      0.103933
      64A      0.107782    65A      0.112032    66A      0.122813
      67A      0.146197    68A      0.150943    69A      0.172098

  @DF-RHF Final Energy: -1810.68273010587313

   => Energetics <=

    Nuclear Repulsion Energy =           1462.5184031864466760
    One-Electron Energy =               -5500.7296522416818334
    Two-Electron Energy =                2227.5285189493620237
    Total Energy =                      -1810.6827301058733610
  Basis Set: (AUG-CC-PVTZ AUX)
    Blend: AUG-CC-PVTZ-RI
    Molecular point group: c1

    Geometry (in Angstrom), charge = -4, multiplicity = 1:

       Center              X                  Y                   Z               Mass
    ------------   -----------------  -----------------  -----------------  -----------------
         P            2.594382958694     0.104224096951    -0.339410995966    30.973761998420
         P           -0.171831041306    -1.121979903049     0.309292004034    30.973761998420
         P           -2.697337041306     0.497081096951    -0.184201995966    30.973761998420
         O            1.964969958694     1.628452096951    -0.167764995966    15.994914619570
         O            1.262455958694    -0.856609903049    -0.528511995966    15.994914619570
         O            3.279443958694     0.114409096951    -1.681352995966    15.994914619570
         O            3.340446958694    -0.271809903049     0.918775004034    15.994914619570
         O           -0.966710741306     0.242992896951    -0.201916095966    15.994914619570
         O            0.104798958694    -1.058202903049     1.798705004034    15.994914619570
         O           -0.703548041306    -2.408925903049    -0.283894995966    15.994914619570
         O           -3.221255041306    -0.246906903049     1.057911004034    15.994914619570
         O           -2.647700641306     2.029495096951    -0.079499195966    15.994914619570
         O           -3.199877041306    -0.053599903049    -1.530869995966    15.994914619570
         C            1.433181958694     1.989769096951     1.121795004034    12.000000000000
         H            1.028458958694     1.123292096951     1.644374004034     1.007825032230
         H            2.214229958694     2.460829096951     1.726825004034     1.007825032230
         H            0.627580958694     2.703524096951     0.942986004034     1.007825032230

  Basis Set: AUG-CC-PVTZ
    Blend: AUG-CC-PVTZ
  Basis Set: (AUG-CC-PVTZ AUX)
    Blend: AUG-CC-PVTZ-JKFIT
	 Reference Energy          =   -1810.6827301058731337 [Eh]
	 Singles Energy            =      -0.0000000000000000 [Eh]
	 Same-Spin Energy          =      -0.9138959755349151 [Eh]
	 Opposite-Spin Energy      =      -2.5279318783914997 [Eh]
	 Correlation Energy        =      -3.4418278539264149 [Eh]
	 Total Energy              =   -1814.1245579597996311 [Eh]

	 ================> DF-SCS-MP2 Energies <==================
	-----------------------------------------------------------
	 SCS Same-Spin Scale       =       0.3333333333333333 [-]
	 SCS Opposite-Spin Scale   =       1.2000000000000000 [-]
	 SCS Same-Spin Energy      =      -0.3046319918449717 [Eh]
	 SCS Opposite-Spin Energy  =      -3.0335182540697994 [Eh]
	 SCS Correlation Energy    =      -3.3381502459147709 [Eh]
	 SCS Total Energy          =   -1814.0208803517878096 [Eh]
	-----------------------------------------------------------

  Dipole Moment: [D]
     X:     9.2322      Y:     2.1128      Z:     1.6326     Total:     9.6105

*** Psi4 exiting successfully. Buy a developer a beer!
