                               Psi4 1.3.2 release

  ==> Input File <==

--------------------------------------------------------------------------
#psi4
#
memory 32 gb

molecule  {
-4 1
  P        2.5828670     0.0826120    -0.3559070
  P       -0.1833470    -1.1435920     0.2927960
  P       -2.7088530     0.4754690    -0.2006980
  O        1.9534540     1.6068400    -0.1842610
  O        1.2787239    -0.8725654    -0.4935941
  O        3.2679280     0.0927970    -1.6978490
  O        3.3289310    -0.2934220     0.9022790
  O       -0.9881700     0.1612780    -0.2225170
  O        0.1442008    -1.0702498     1.7714021
  O       -0.7150640    -2.4305380    -0.3003910
  O       -3.2327710    -0.2685190     1.0414150
  O       -2.7128520     2.0086770    -0.0959300
  O       -3.2113930    -0.0752120    -1.5473660
  C        1.4216660     1.9681570     1.1052990
  H        1.0169430     1.1016800     1.6278780
  H        2.2027140     2.4392170     1.7103290
  H        0.6160650     2.6819120     0.9264900
units angstrom
no_reorient  #important for SAPT in psi4, default
symmetry c1  #important for SAPT in psi4, default
}

set PROPERTIES_ORIGIN ["COM"]
properties('MP2/aug-cc-pvtz', properties = ['dipole'])
--------------------------------------------------------------------------

    Molecular point group: c1
  Charge       = -4
  Multiplicity = 1
  Basis Set: AUG-CC-PVTZ
    Blend: AUG-CC-PVTZ
  Basis Set: (AUG-CC-PVTZ AUX)
    Blend: AUG-CC-PVTZ-JKFIT

    Orbital Energies [Eh]
    ---------------------

    Doubly Occupied:

       1A    -79.567306     2A    -79.529798     3A    -79.481838
       4A    -20.082315     5A    -20.034726     6A    -20.000465
       7A    -19.996480     8A    -19.996015     9A    -19.950166
      10A    -19.948395    11A    -19.925371    12A    -19.920917
      13A    -19.919502    14A    -10.809141    15A     -7.081483
      16A     -7.042526    17A     -6.995355    18A     -4.980500
      19A     -4.979550    20A     -4.978652    21A     -4.941897
      22A     -4.940431    23A     -4.939411    24A     -4.894829
      25A     -4.892614    26A     -4.892472    27A     -0.901024
      28A     -0.847612    29A     -0.806794    30A     -0.778135
      31A     -0.753352    32A     -0.743389    33A     -0.715568
      34A     -0.702098    35A     -0.665083    36A     -0.661008
      37A     -0.464296    38A     -0.298130    39A     -0.233519
      40A     -0.185473    41A     -0.162739    42A     -0.146867
      43A     -0.123206    44A     -0.099351    45A     -0.084243
      46A     -0.066145    47A     -0.050883    48A     -0.044433
      49A     -0.031349    50A     -0.018226    51A     -0.005161
      52A      0.000443    53A      0.009316    54A      0.016557
      55A      0.020671    56A      0.038648    57A      0.045701
      58A      0.058502    59A      0.067796    60A      0.073628
      61A      0.088763    62A      0.098990    63A      0.100785
      64A      0.102376    65A      0.112425    66A      0.123084
      67A      0.142575    68A      0.148527    69A      0.170288

  @DF-RHF Final Energy: -1810.69141732622484

   => Energetics <=

    Nuclear Repulsion Energy =           1464.3255489574237345
    One-Electron Energy =               -5504.2515922749244055
    Two-Electron Energy =                2229.2346259912756068
    Total Energy =                      -1810.6914173262248369
  Basis Set: (AUG-CC-PVTZ AUX)
    Blend: AUG-CC-PVTZ-RI
    Molecular point group: c1

    Geometry (in Angstrom), charge = -4, multiplicity = 1:

       Center              X                  Y                   Z               Mass
    ------------   -----------------  -----------------  -----------------  -----------------
         P            2.593480022542     0.106856362119    -0.341594288775    30.973761998420
         P           -0.172733977458    -1.119347637881     0.307108711225    30.973761998420
         P           -2.698239977458     0.499713362119    -0.186385288775    30.973761998420
         O            1.964067022542     1.631084362119    -0.169948288775    15.994914619570
         O            1.289336922542    -0.848321037881    -0.479281388775    15.994914619570
         O            3.278541022542     0.117041362119    -1.683536288775    15.994914619570
         O            3.339544022542    -0.269177637881     0.916591711225    15.994914619570
         O           -0.977556977458     0.185522362119    -0.208204288775    15.994914619570
         O            0.154813822542    -1.046005437881     1.785714811225    15.994914619570
         O           -0.704450977458    -2.406293637881    -0.286078288775    15.994914619570
         O           -3.222157977458    -0.244274637881     1.055727711225    15.994914619570
         O           -2.702238977458     2.032921362119    -0.081617288775    15.994914619570
         O           -3.200779977458    -0.050967637881    -1.533053288775    15.994914619570
         C            1.432279022542     1.992401362119     1.119611711225    12.000000000000
         H            1.027556022542     1.125924362119     1.642190711225     1.007825032230
         H            2.213327022542     2.463461362119     1.724641711225     1.007825032230
         H            0.626678022542     2.706156362119     0.940802711225     1.007825032230

  Basis Set: AUG-CC-PVTZ
    Blend: AUG-CC-PVTZ
  Basis Set: (AUG-CC-PVTZ AUX)
    Blend: AUG-CC-PVTZ-JKFIT
	 Reference Energy          =   -1810.6914173262248369 [Eh]
	 Singles Energy            =      -0.0000000000000000 [Eh]
	 Same-Spin Energy          =      -0.9126487704196082 [Eh]
	 Opposite-Spin Energy      =      -2.5246236439061938 [Eh]
	 Correlation Energy        =      -3.4372724143258022 [Eh]
	 Total Energy              =   -1814.1286897405507261 [Eh]

	 ================> DF-SCS-MP2 Energies <==================
	-----------------------------------------------------------
	 SCS Same-Spin Scale       =       0.3333333333333333 [-]
	 SCS Opposite-Spin Scale   =       1.2000000000000000 [-]
	 SCS Same-Spin Energy      =      -0.3042162568065361 [Eh]
	 SCS Opposite-Spin Energy  =      -3.0295483726874326 [Eh]
	 SCS Correlation Energy    =      -3.3337646294939685 [Eh]
	 SCS Total Energy          =   -1814.0251819557188355 [Eh]
	-----------------------------------------------------------

  Dipole Moment: [D]
     X:     8.8777      Y:     2.2011      Z:     1.5356     Total:     9.2745

*** Psi4 exiting successfully. Buy a developer a beer!
