                               Psi4 1.4a3.dev225

  ==> Input File <==

--------------------------------------------------------------------------
#psi4
#
memory 32 gb

molecule  {
-4 1
  P       -2.5202440    -0.2449420     0.3712220
  P        0.3565170    -0.5960480    -0.3589090
  P        3.1750170     0.3881900     0.1554910
  O       -2.7927880     1.3311510    -0.1150520
  O       -0.9169740    -0.0836090     0.6422800
  O       -3.1856250    -0.4605710     1.7148300
  O       -2.8507450    -1.1694890    -0.7786080
  O        1.4898640     0.0841660     0.5723090
  O        0.2127210     0.0849480    -1.7048820
  O        0.4027150    -2.1095660    -0.2874290
  O        3.5327910    -0.6840640    -0.8835370
  O        3.1643710     1.8286230    -0.3742880
  O        3.8553486     0.2041311     1.5759095
  C       -4.1398760     1.5889580    -0.5252390
  H       -4.4292020     0.9309370    -1.3496150
  H       -4.8386320     1.4471050     0.3059850
  H       -4.1840730     2.6280350    -0.8559160
units angstrom
no_reorient  #important for SAPT in psi4, default
symmetry c1  #important for SAPT in psi4, default
}

set PROPERTIES_ORIGIN ["COM"]
properties('MP2/aug-cc-pvtz', properties = ['dipole'])
--------------------------------------------------------------------------

    Molecular point group: c1
  Charge       = -4
  Multiplicity = 1
  Basis Set: AUG-CC-PVTZ
    Blend: AUG-CC-PVTZ
  Basis Set: (AUG-CC-PVTZ AUX)
    Blend: AUG-CC-PVTZ-JKFIT

    Orbital Energies [Eh]
    ---------------------

    Doubly Occupied:

       1A    -79.581595     2A    -79.519245     3A    -79.484688
       4A    -20.119843     5A    -20.043064     6A    -20.015709
       7A    -20.005801     8A    -19.987762     9A    -19.938424
      10A    -19.937012    11A    -19.925130    12A    -19.921806
      13A    -19.918009    14A    -10.884012    15A     -7.095868
      16A     -7.032290    17A     -6.997017    18A     -4.995014
      19A     -4.993707    20A     -4.992794    21A     -4.931682
      22A     -4.930131    23A     -4.928958    24A     -4.896500
      25A     -4.894301    26A     -4.894075    27A     -0.932068
      28A     -0.854759    29A     -0.808140    30A     -0.778181
      31A     -0.761986    32A     -0.735482    33A     -0.706599
      34A     -0.688601    35A     -0.661656    36A     -0.652561
      37A     -0.528848    38A     -0.309686    39A     -0.253543
      40A     -0.221359    41A     -0.197818    42A     -0.166611
      43A     -0.141787    44A     -0.109355    45A     -0.095714
      46A     -0.080211    47A     -0.063976    48A     -0.053281
      49A     -0.035876    50A     -0.026199    51A     -0.013362
      52A     -0.010725    53A      0.008828    54A      0.011489
      55A      0.023248    56A      0.033552    57A      0.047258
      58A      0.053467    59A      0.061277    60A      0.080249
      61A      0.097193    62A      0.103298    63A      0.105986
      64A      0.109982    65A      0.123491    66A      0.134132
      67A      0.147499    68A      0.152124    69A      0.172122

  @DF-RHF Final Energy: -1810.67169882922940

   => Energetics <=

    Nuclear Repulsion Energy =           1423.3097916559258920
    One-Electron Energy =               -5421.3877302921118826
    Two-Electron Energy =                2187.4062398069563642
    Total Energy =                      -1810.6716988292296264
  Basis Set: (AUG-CC-PVTZ AUX)
    Blend: AUG-CC-PVTZ-RI
    Molecular point group: c1

    Geometry (in Angstrom), charge = -4, multiplicity = 1:

       Center              X                  Y                   Z               Mass
    ------------   -----------------  -----------------  -----------------  -----------------
         P           -2.574966505340    -0.224427544891     0.360908496989    30.973761998420
         P            0.301794494660    -0.575533544891    -0.369222503011    30.973761998420
         P            3.120294494660     0.408704455109     0.145177496989    30.973761998420
         O           -2.847510505340     1.351665455109    -0.125365503011    15.994914619570
         O           -0.971696505340    -0.063094544891     0.631966496989    15.994914619570
         O           -3.240347505340    -0.440056544891     1.704516496989    15.994914619570
         O           -2.905467505340    -1.148974544891    -0.788921503011    15.994914619570
         O            1.435141494660     0.104680455109     0.561995496989    15.994914619570
         O            0.157998494660     0.105462455109    -1.715195503011    15.994914619570
         O            0.347992494660    -2.089051544891    -0.297742503011    15.994914619570
         O            3.478068494660    -0.663549544891    -0.893850503011    15.994914619570
         O            3.109648494660     1.849137455109    -0.384601503011    15.994914619570
         O            3.800626094660     0.224645555109     1.565595996989    15.994914619570
         C           -4.194598505340     1.609472455109    -0.535552503011    12.000000000000
         H           -4.483924505340     0.951451455109    -1.359928503011     1.007825032230
         H           -4.893354505340     1.467619455109     0.295671496989     1.007825032230
         H           -4.238795505340     2.648549455109    -0.866229503011     1.007825032230

  Basis Set: AUG-CC-PVTZ
    Blend: AUG-CC-PVTZ
  Basis Set: (AUG-CC-PVTZ AUX)
    Blend: AUG-CC-PVTZ-JKFIT
	 Reference Energy          =   -1810.6716988292293991 [Eh]
	 Singles Energy            =      -0.0000000000000000 [Eh]
	 Same-Spin Energy          =      -0.9132285791399247 [Eh]
	 Opposite-Spin Energy      =      -2.5275282345461805 [Eh]
	 Correlation Energy        =      -3.4407568136861051 [Eh]
	 Total Energy              =   -1814.1124556429153927 [Eh]

	 ================> DF-SCS-MP2 Energies <==================
	-----------------------------------------------------------
	 SCS Same-Spin Scale       =       0.3333333333333333 [-]
	 SCS Opposite-Spin Scale   =       1.2000000000000000 [-]
	 SCS Same-Spin Energy      =      -0.3044095263799749 [Eh]
	 SCS Opposite-Spin Energy  =      -3.0330338814554163 [Eh]
	 SCS Correlation Energy    =      -3.3374434078353912 [Eh]
	 SCS Total Energy          =   -1814.0091422370646796 [Eh]
	-----------------------------------------------------------

  Dipole Moment: [D]
     X:   -15.2250      Y:     2.7447      Z:    -0.3648     Total:    15.4747

*** Psi4 exiting successfully. Buy a developer a beer!
