                               Psi4 1.3.2 release

  ==> Input File <==

--------------------------------------------------------------------------
#psi4
#
memory 32 gb

molecule  {
-4 1
  P        2.5828670     0.0826120    -0.3559070
  P       -0.1833470    -1.1435920     0.2927960
  P       -2.7088530     0.4754690    -0.2006980
  O        1.9534540     1.6068400    -0.1842610
  O        1.2509400    -0.8782220    -0.5450080
  O        3.2679280     0.0927970    -1.6978490
  O        3.3289310    -0.2934220     0.9022790
  O       -0.9895667     0.1549599    -0.2363429
  O        0.0932830    -1.0798150     1.7822090
  O       -0.7150640    -2.4305380    -0.3003910
  O       -3.2327710    -0.2685190     1.0414150
  O       -2.7128520     2.0086770    -0.0959300
  O       -3.1988551    -0.0788997    -1.5504699
  C        1.4216660     1.9681570     1.1052990
  H        1.0169430     1.1016800     1.6278780
  H        2.2027140     2.4392170     1.7103290
  H        0.6160650     2.6819120     0.9264900
units angstrom
no_reorient  #important for SAPT in psi4, default
symmetry c1  #important for SAPT in psi4, default
}

set PROPERTIES_ORIGIN ["COM"]
properties('MP2/aug-cc-pvtz', properties = ['dipole'])
--------------------------------------------------------------------------

    Molecular point group: c1
  Charge       = -4
  Multiplicity = 1
  Basis Set: AUG-CC-PVTZ
    Blend: AUG-CC-PVTZ
  Basis Set: (AUG-CC-PVTZ AUX)
    Blend: AUG-CC-PVTZ-JKFIT

    Orbital Energies [Eh]
    ---------------------

    Doubly Occupied:

       1A    -79.572368     2A    -79.526578     3A    -79.479822
       4A    -20.085598     5A    -20.037893     6A    -20.002721
       7A    -20.002365     8A    -19.992164     9A    -19.950586
      10A    -19.944344    11A    -19.924520    12A    -19.918442
      13A    -19.918122    14A    -10.811807    15A     -7.086192
      16A     -7.039505    17A     -6.993335    18A     -4.985143
      19A     -4.984195    20A     -4.983380    21A     -4.938792
      22A     -4.937388    23A     -4.936465    24A     -4.892805
      25A     -4.890615    26A     -4.890452    27A     -0.901817
      28A     -0.845370    29A     -0.806343    30A     -0.777749
      31A     -0.757467    32A     -0.741932    33A     -0.713297
      34A     -0.699248    35A     -0.663754    36A     -0.659182
      37A     -0.466888    38A     -0.293555    39A     -0.234403
      40A     -0.183678    41A     -0.163963    42A     -0.148752
      43A     -0.125906    44A     -0.098839    45A     -0.082591
      46A     -0.064862    47A     -0.051760    48A     -0.043888
      49A     -0.031547    50A     -0.016059    51A     -0.006484
      52A      0.000186    53A      0.009894    54A      0.014852
      55A      0.021729    56A      0.037593    57A      0.047501
      58A      0.053616    59A      0.067179    60A      0.071149
      61A      0.091552    62A      0.100207    63A      0.102340
      64A      0.103842    65A      0.114273    66A      0.125546
      67A      0.144192    68A      0.150812    69A      0.171814

  @DF-RHF Final Energy: -1810.68868083329630

   => Energetics <=

    Nuclear Repulsion Energy =           1463.0475363752498197
    One-Electron Energy =               -5501.7191198004875332
    Two-Electron Energy =                2227.9829025919411833
    Total Energy =                      -1810.6886808332965302
  Basis Set: (AUG-CC-PVTZ AUX)
    Blend: AUG-CC-PVTZ-RI
    Molecular point group: c1

    Geometry (in Angstrom), charge = -4, multiplicity = 1:

       Center              X                  Y                   Z               Mass
    ------------   -----------------  -----------------  -----------------  -----------------
         P            2.597513800093     0.108362605065    -0.338158987790    30.973761998420
         P           -0.168700199907    -1.117841394935     0.310544012210    30.973761998420
         P           -2.694206199907     0.501219605065    -0.182949987790    30.973761998420
         O            1.968100800093     1.632590605065    -0.166512987790    15.994914619570
         O            1.265586800093    -0.852471394935    -0.527259987790    15.994914619570
         O            3.282574800093     0.118547605065    -1.680100987790    15.994914619570
         O            3.343577800093    -0.267671394935     0.920027012210    15.994914619570
         O           -0.974919899907     0.180710505065    -0.218594887790    15.994914619570
         O            0.107929800093    -1.054064394935     1.799957012210    15.994914619570
         O           -0.700417199907    -2.404787394935    -0.282642987790    15.994914619570
         O           -3.218124199907    -0.242768394935     1.059163012210    15.994914619570
         O           -2.698205199907     2.034427605065    -0.078181987790    15.994914619570
         O           -3.184208299907    -0.053149094935    -1.532721887790    15.994914619570
         C            1.436312800093     1.993907605065     1.123047012210    12.000000000000
         H            1.031589800093     1.127430605065     1.645626012210     1.007825032230
         H            2.217360800093     2.464967605065     1.728077012210     1.007825032230
         H            0.630711800093     2.707662605065     0.944238012210     1.007825032230

  Basis Set: AUG-CC-PVTZ
    Blend: AUG-CC-PVTZ
  Basis Set: (AUG-CC-PVTZ AUX)
    Blend: AUG-CC-PVTZ-JKFIT
	 Reference Energy          =   -1810.6886808332963028 [Eh]
	 Singles Energy            =      -0.0000000000000000 [Eh]
	 Same-Spin Energy          =      -0.9130404114059792 [Eh]
	 Opposite-Spin Energy      =      -2.5258326857659616 [Eh]
	 Correlation Energy        =      -3.4388730971719408 [Eh]
	 Total Energy              =   -1814.1275539304681388 [Eh]

	 ================> DF-SCS-MP2 Energies <==================
	-----------------------------------------------------------
	 SCS Same-Spin Scale       =       0.3333333333333333 [-]
	 SCS Opposite-Spin Scale   =       1.2000000000000000 [-]
	 SCS Same-Spin Energy      =      -0.3043468038019931 [Eh]
	 SCS Opposite-Spin Energy  =      -3.0309992229191538 [Eh]
	 SCS Correlation Energy    =      -3.3353460267211470 [Eh]
	 SCS Total Energy          =   -1814.0240268600175568 [Eh]
	-----------------------------------------------------------

  Dipole Moment: [D]
     X:     9.2260      Y:     2.3625      Z:     1.6379     Total:     9.6635

*** Psi4 exiting successfully. Buy a developer a beer!
