                               Psi4 1.3.2 release

  ==> Input File <==

--------------------------------------------------------------------------
#psi4
#
memory 32 gb

molecule  {
-4 1
  P        2.5828670     0.0826120    -0.3559070
  P       -0.1833470    -1.1435920     0.2927960
  P       -2.7088530     0.4754690    -0.2006980
  O        1.9534540     1.6068400    -0.1842610
  O        1.2509400    -0.8782220    -0.5450080
  O        3.2679280     0.0927970    -1.6978490
  O        3.3289310    -0.2934220     0.9022790
  O       -0.9881700     0.1612780    -0.2225170
  O        0.0932830    -1.0798150     1.7822090
  O       -0.6448029    -2.2604810    -0.2220073
  O       -3.2327710    -0.2685190     1.0414150
  O       -2.7128520     2.0086770    -0.0959300
  O       -3.2113930    -0.0752120    -1.5473660
  C        1.4216660     1.9681570     1.1052990
  H        1.0169430     1.1016800     1.6278780
  H        2.2027140     2.4392170     1.7103290
  H        0.6160650     2.6819120     0.9264900
units angstrom
no_reorient  #important for SAPT in psi4, default
symmetry c1  #important for SAPT in psi4, default
}

set PROPERTIES_ORIGIN ["COM"]
properties('MP2/aug-cc-pvtz', properties = ['dipole'])
--------------------------------------------------------------------------

    Molecular point group: c1
  Charge       = -4
  Multiplicity = 1
  Basis Set: AUG-CC-PVTZ
    Blend: AUG-CC-PVTZ
  Basis Set: (AUG-CC-PVTZ AUX)
    Blend: AUG-CC-PVTZ-JKFIT

    Orbital Energies [Eh]
    ---------------------

    Doubly Occupied:

       1A    -79.564893     2A    -79.478241     3A    -79.475517
       4A    -20.079282     5A    -20.025259     6A    -19.997124
       7A    -19.996896     8A    -19.976459     9A    -19.933178
      10A    -19.931401    11A    -19.919551    12A    -19.917584
      13A    -19.914434    14A    -10.805510    15A     -7.078808
      16A     -7.004721    17A     -6.988933    18A     -4.977764
      19A     -4.976765    20A     -4.976050    21A     -4.905045
      22A     -4.901682    23A     -4.900014    24A     -4.888309
      25A     -4.886277    26A     -4.886159    27A     -0.896254
      28A     -0.862383    29A     -0.810541    30A     -0.774372
      31A     -0.767688    32A     -0.751898    33A     -0.716451
      34A     -0.696392    35A     -0.659952    36A     -0.656657
      37A     -0.460612    38A     -0.282306    39A     -0.225224
      40A     -0.178166    41A     -0.157798    42A     -0.142779
      43A     -0.120111    44A     -0.099377    45A     -0.079101
      46A     -0.066467    47A     -0.051276    48A     -0.039054
      49A     -0.030352    50A     -0.016507    51A     -0.002905
      52A     -0.000430    53A      0.007185    54A      0.019032
      55A      0.019553    56A      0.041508    57A      0.046690
      58A      0.057186    59A      0.060424    60A      0.072148
      61A      0.076859    62A      0.103465    63A      0.106374
      64A      0.109062    65A      0.118044    66A      0.125894
      67A      0.148788    68A      0.154867    69A      0.174769

  @DF-RHF Final Energy: -1810.64549596016650

   => Energetics <=

    Nuclear Repulsion Energy =           1474.4915536473451994
    One-Electron Energy =               -5525.2959715697670617
    Two-Electron Energy =                2240.1589219622551354
    Total Energy =                      -1810.6454959601664996
  Basis Set: (AUG-CC-PVTZ AUX)
    Blend: AUG-CC-PVTZ-RI
    Molecular point group: c1

    Geometry (in Angstrom), charge = -4, multiplicity = 1:

       Center              X                  Y                   Z               Mass
    ------------   -----------------  -----------------  -----------------  -----------------
         P            2.593983978297     0.097611747976    -0.343849790205    30.973761998420
         P           -0.172230021703    -1.128592252024     0.304853209795    30.973761998420
         P           -2.697736021703     0.490468747976    -0.188640790205    30.973761998420
         O            1.964570978297     1.621839747976    -0.172203790205    15.994914619570
         O            1.262056978297    -0.863222252024    -0.532950790205    15.994914619570
         O            3.279044978297     0.107796747976    -1.685791790205    15.994914619570
         O            3.340047978297    -0.278422252024     0.914336209795    15.994914619570
         O           -0.977053021703     0.176277747976    -0.210459790205    15.994914619570
         O            0.104399978297    -1.064815252024     1.794266209795    15.994914619570
         O           -0.633685921703    -2.245481252024    -0.209950090205    15.994914619570
         O           -3.221654021703    -0.253519252024     1.053472209795    15.994914619570
         O           -2.701735021703     2.023676747976    -0.083872790205    15.994914619570
         O           -3.200276021703    -0.060212252024    -1.535308790205    15.994914619570
         C            1.432782978297     1.983156747976     1.117356209795    12.000000000000
         H            1.028059978297     1.116679747976     1.639935209795     1.007825032230
         H            2.213830978297     2.454216747976     1.722386209795     1.007825032230
         H            0.627181978297     2.696911747976     0.938547209795     1.007825032230

  Basis Set: AUG-CC-PVTZ
    Blend: AUG-CC-PVTZ
  Basis Set: (AUG-CC-PVTZ AUX)
    Blend: AUG-CC-PVTZ-JKFIT
	 Reference Energy          =   -1810.6454959601664996 [Eh]
	 Singles Energy            =      -0.0000000000000000 [Eh]
	 Same-Spin Energy          =      -0.9093344663026228 [Eh]
	 Opposite-Spin Energy      =      -2.5165571228545223 [Eh]
	 Correlation Energy        =      -3.4258915891571453 [Eh]
	 Total Energy              =   -1814.0713875493236173 [Eh]

	 ================> DF-SCS-MP2 Energies <==================
	-----------------------------------------------------------
	 SCS Same-Spin Scale       =       0.3333333333333333 [-]
	 SCS Opposite-Spin Scale   =       1.2000000000000000 [-]
	 SCS Same-Spin Energy      =      -0.3031114887675409 [Eh]
	 SCS Opposite-Spin Energy  =      -3.0198685474254265 [Eh]
	 SCS Correlation Energy    =      -3.3229800361929676 [Eh]
	 SCS Total Energy          =   -1813.9684759963595297 [Eh]
	-----------------------------------------------------------

  Dipole Moment: [D]
     X:     8.8868      Y:     1.1243      Z:     1.1854     Total:     9.0357

*** Psi4 exiting successfully. Buy a developer a beer!
