                               Psi4 1.3.2 release

  ==> Input File <==

--------------------------------------------------------------------------
#psi4
#
memory 32 gb

molecule  {
-4 1
  P        2.5828670     0.0826120    -0.3559070
  P       -0.1833470    -1.1435920     0.2927960
  P       -2.7088530     0.4754690    -0.2006980
  O        1.9534540     1.6068400    -0.1842610
  O        1.0898045    -0.9944630    -0.5678853
  O        3.2679280     0.0927970    -1.6978490
  O        3.3289310    -0.2934220     0.9022790
  O       -0.9881700     0.1612780    -0.2225170
  O        0.0932830    -1.0798150     1.7822090
  O       -0.7150640    -2.4305380    -0.3003910
  O       -3.2327710    -0.2685190     1.0414150
  O       -2.7128520     2.0086770    -0.0959300
  O       -3.2113930    -0.0752120    -1.5473660
  C        1.4216660     1.9681570     1.1052990
  H        1.0169430     1.1016800     1.6278780
  H        2.2027140     2.4392170     1.7103290
  H        0.6160650     2.6819120     0.9264900
units angstrom
no_reorient  #important for SAPT in psi4, default
symmetry c1  #important for SAPT in psi4, default
}

set PROPERTIES_ORIGIN ["COM"]
properties('MP2/aug-cc-pvtz', properties = ['dipole'])
--------------------------------------------------------------------------

    Molecular point group: c1
  Charge       = -4
  Multiplicity = 1
  Basis Set: AUG-CC-PVTZ
    Blend: AUG-CC-PVTZ
  Basis Set: (AUG-CC-PVTZ AUX)
    Blend: AUG-CC-PVTZ-JKFIT

    Orbital Energies [Eh]
    ---------------------

    Doubly Occupied:

       1A    -79.601498     2A    -79.495879     3A    -79.472060
       4A    -20.103161     5A    -20.034019     6A    -20.025534
       7A    -20.025166     8A    -19.978373     9A    -19.937795
      10A    -19.918222    11A    -19.917510    12A    -19.912424
      13A    -19.910154    14A    -10.819263    15A     -7.113700
      16A     -7.012374    17A     -6.985530    18A     -5.012349
      19A     -5.011529    20A     -5.010628    21A     -4.911930
      22A     -4.910130    23A     -4.909269    24A     -4.884922
      25A     -4.882883    26A     -4.882715    27A     -0.911596
      28A     -0.851380    29A     -0.817788    30A     -0.777152
      31A     -0.774506    32A     -0.725684    33A     -0.702473
      34A     -0.679766    35A     -0.657243    36A     -0.651961
      37A     -0.476118    38A     -0.286808    39A     -0.234269
      40A     -0.186716    41A     -0.168654    42A     -0.158111
      43A     -0.135795    44A     -0.093117    45A     -0.083584
      46A     -0.065432    47A     -0.057069    48A     -0.046060
      49A     -0.031769    50A     -0.012282    51A     -0.008057
      52A      0.000239    53A      0.001506    54A      0.019701
      55A      0.021685    56A      0.031732    57A      0.037366
      58A      0.049118    59A      0.059369    60A      0.082822
      61A      0.104680    62A      0.108141    63A      0.111137
      64A      0.112565    65A      0.135018    66A      0.143200
      67A      0.152315    68A      0.158881    69A      0.178625

  @DF-RHF Final Energy: -1810.65150387089238

   => Energetics <=

    Nuclear Repulsion Energy =           1462.1768049421027627
    One-Electron Energy =               -5500.1280040786050449
    Two-Electron Energy =                2227.2996952656098983
    Total Energy =                      -1810.6515038708926113
  Basis Set: (AUG-CC-PVTZ AUX)
    Blend: AUG-CC-PVTZ-RI
    Molecular point group: c1

    Geometry (in Angstrom), charge = -4, multiplicity = 1:

       Center              X                  Y                   Z               Mass
    ------------   -----------------  -----------------  -----------------  -----------------
         P            2.607799779104     0.114705500171    -0.337803885445    30.973761998420
         P           -0.158414220896    -1.111498499829     0.310899114555    30.973761998420
         P           -2.683920220896     0.507562500171    -0.182594885445    30.973761998420
         O            1.978386779104     1.638933500171    -0.166157885445    15.994914619570
         O            1.114737279104    -0.962369499829    -0.549782185445    15.994914619570
         O            3.292860779104     0.124890500171    -1.679745885445    15.994914619570
         O            3.353863779104    -0.261328499829     0.920382114555    15.994914619570
         O           -0.963237220896     0.193371500171    -0.204413885445    15.994914619570
         O            0.118215779104    -1.047721499829     1.800312114555    15.994914619570
         O           -0.690131220896    -2.398444499829    -0.282287885445    15.994914619570
         O           -3.207838220896    -0.236425499829     1.059518114555    15.994914619570
         O           -2.687919220896     2.040770500171    -0.077826885445    15.994914619570
         O           -3.186460220896    -0.043118499829    -1.529262885445    15.994914619570
         C            1.446598779104     2.000250500171     1.123402114555    12.000000000000
         H            1.041875779104     1.133773500171     1.645981114555     1.007825032230
         H            2.227646779104     2.471310500171     1.728432114555     1.007825032230
         H            0.640997779104     2.714005500171     0.944593114555     1.007825032230

  Basis Set: AUG-CC-PVTZ
    Blend: AUG-CC-PVTZ
  Basis Set: (AUG-CC-PVTZ AUX)
    Blend: AUG-CC-PVTZ-JKFIT
	 Reference Energy          =   -1810.6515038708923839 [Eh]
	 Singles Energy            =      -0.0000000000000000 [Eh]
	 Same-Spin Energy          =      -0.9144153384848280 [Eh]
	 Opposite-Spin Energy      =      -2.5291169242094971 [Eh]
	 Correlation Energy        =      -3.4435322626943252 [Eh]
	 Total Energy              =   -1814.0950361335867456 [Eh]

	 ================> DF-SCS-MP2 Energies <==================
	-----------------------------------------------------------
	 SCS Same-Spin Scale       =       0.3333333333333333 [-]
	 SCS Opposite-Spin Scale   =       1.2000000000000000 [-]
	 SCS Same-Spin Energy      =      -0.3048051128282760 [Eh]
	 SCS Opposite-Spin Energy  =      -3.0349403090513962 [Eh]
	 SCS Correlation Energy    =      -3.3397454218796723 [Eh]
	 SCS Total Energy          =   -1813.9912492927719541 [Eh]
	-----------------------------------------------------------

  Dipole Moment: [D]
     X:    11.1010      Y:     3.1234      Z:     1.4165     Total:    11.6187

*** Psi4 exiting successfully. Buy a developer a beer!
