                               Psi4 1.3.2 release

  ==> Input File <==

--------------------------------------------------------------------------
#psi4
#
memory 32 gb

molecule  {
-4 1
  P        2.5828670     0.0826120    -0.3559070
  P       -0.1833470    -1.1435920     0.2927960
  P       -2.7088530     0.4754690    -0.2006980
  O        1.9534540     1.6068400    -0.1842610
  O        1.2059989    -0.8873108    -0.6201957
  O        3.2679280     0.0927970    -1.6978490
  O        3.3289310    -0.2934220     0.9022790
  O       -0.9881700     0.1612780    -0.2225170
  O        0.0162938    -1.0943048     1.7950134
  O       -0.7150640    -2.4305380    -0.3003910
  O       -3.2327710    -0.2685190     1.0414150
  O       -2.7128520     2.0086770    -0.0959300
  O       -3.2113930    -0.0752120    -1.5473660
  C        1.4216660     1.9681570     1.1052990
  H        1.0169430     1.1016800     1.6278780
  H        2.2027140     2.4392170     1.7103290
  H        0.6160650     2.6819120     0.9264900
units angstrom
no_reorient  #important for SAPT in psi4, default
symmetry c1  #important for SAPT in psi4, default
}

set PROPERTIES_ORIGIN ["COM"]
properties('MP2/aug-cc-pvtz', properties = ['dipole'])
--------------------------------------------------------------------------

    Molecular point group: c1
  Charge       = -4
  Multiplicity = 1
  Basis Set: AUG-CC-PVTZ
    Blend: AUG-CC-PVTZ
  Basis Set: (AUG-CC-PVTZ AUX)
    Blend: AUG-CC-PVTZ-JKFIT

    Orbital Energies [Eh]
    ---------------------

    Doubly Occupied:

       1A    -79.580270     2A    -79.522477     3A    -79.476798
       4A    -20.090747     5A    -20.042816     6A    -20.012890
       7A    -20.005931     8A    -19.987579     9A    -19.952259
      10A    -19.937677    11A    -19.921670    12A    -19.916566
      13A    -19.914103    14A    -10.815567    15A     -7.093653
      16A     -7.035769    17A     -6.990286    18A     -4.992505
      19A     -4.991580    20A     -4.990812    21A     -4.934930
      22A     -4.933613    23A     -4.932810    24A     -4.889729
      25A     -4.887586    26A     -4.887425    27A     -0.904008
      28A     -0.841979    29A     -0.808022    30A     -0.776588
      31A     -0.763323    32A     -0.739918    33A     -0.710507
      34A     -0.694864    35A     -0.660933    36A     -0.656032
      37A     -0.470623    38A     -0.287255    39A     -0.235726
      40A     -0.182754    41A     -0.165303    42A     -0.151538
      43A     -0.129787    44A     -0.098349    45A     -0.080701
      46A     -0.063511    47A     -0.053302    48A     -0.043976
      49A     -0.032620    50A     -0.013206    51A     -0.008354
      52A      0.000200    53A      0.007500    54A      0.015804
      55A      0.023256    56A      0.035234    57A      0.046350
      58A      0.050659    59A      0.061351    60A      0.071913
      61A      0.093517    62A      0.103002    63A      0.104719
      64A      0.107087    65A      0.118277    66A      0.129290
      67A      0.147544    68A      0.153575    69A      0.174801

  @DF-RHF Final Energy: -1810.67911474886432

   => Energetics <=

    Nuclear Repulsion Energy =           1460.8708524045546255
    One-Electron Energy =               -5497.3656328812367065
    Two-Electron Energy =                2225.8156657278177590
    Total Energy =                      -1810.6791147488643219
  Basis Set: (AUG-CC-PVTZ AUX)
    Blend: AUG-CC-PVTZ-RI
    Molecular point group: c1

    Geometry (in Angstrom), charge = -4, multiplicity = 1:

       Center              X                  Y                   Z               Mass
    ------------   -----------------  -----------------  -----------------  -----------------
         P            2.605458987433     0.109172984738    -0.335445134164    30.973761998420
         P           -0.160755012567    -1.117031015262     0.313257865836    30.973761998420
         P           -2.686261012567     0.502029984738    -0.180236134164    30.973761998420
         O            1.976045987433     1.633400984738    -0.163799134164    15.994914619570
         O            1.228590887433    -0.860749815262    -0.599733834164    15.994914619570
         O            3.290519987433     0.119357984738    -1.677387134164    15.994914619570
         O            3.351522987433    -0.266861015262     0.922740865836    15.994914619570
         O           -0.965578012567     0.187838984738    -0.202055134164    15.994914619570
         O            0.038885787433    -1.067743815262     1.815475265836    15.994914619570
         O           -0.692472012567    -2.403977015262    -0.279929134164    15.994914619570
         O           -3.210179012567    -0.241958015262     1.061876865836    15.994914619570
         O           -2.690260012567     2.035237984738    -0.075468134164    15.994914619570
         O           -3.188801012567    -0.048651015262    -1.526904134164    15.994914619570
         C            1.444257987433     1.994717984738     1.125760865836    12.000000000000
         H            1.039534987433     1.128240984738     1.648339865836     1.007825032230
         H            2.225305987433     2.465777984738     1.730790865836     1.007825032230
         H            0.638656987433     2.708472984738     0.946951865836     1.007825032230

  Basis Set: AUG-CC-PVTZ
    Blend: AUG-CC-PVTZ
  Basis Set: (AUG-CC-PVTZ AUX)
    Blend: AUG-CC-PVTZ-JKFIT
	 Reference Energy          =   -1810.6791147488643219 [Eh]
	 Singles Energy            =      -0.0000000000000000 [Eh]
	 Same-Spin Energy          =      -0.9138898124132777 [Eh]
	 Opposite-Spin Energy      =      -2.5281832289396564 [Eh]
	 Correlation Energy        =      -3.4420730413529341 [Eh]
	 Total Energy              =   -1814.1211877902171636 [Eh]

	 ================> DF-SCS-MP2 Energies <==================
	-----------------------------------------------------------
	 SCS Same-Spin Scale       =       0.3333333333333333 [-]
	 SCS Opposite-Spin Scale   =       1.2000000000000000 [-]
	 SCS Same-Spin Energy      =      -0.3046299374710926 [Eh]
	 SCS Opposite-Spin Energy  =      -3.0338198747275875 [Eh]
	 SCS Correlation Energy    =      -3.3384498121986801 [Eh]
	 SCS Total Energy          =   -1814.0175645610629545 [Eh]
	-----------------------------------------------------------

  Dipole Moment: [D]
     X:     9.8204      Y:     2.5440      Z:     1.7171     Total:    10.2889

*** Psi4 exiting successfully. Buy a developer a beer!
