                               Psi4 1.3.2 release

  ==> Input File <==

--------------------------------------------------------------------------
#psi4
#
memory 32 gb

molecule  {
-4 1
  P        2.5828670     0.0826120    -0.3559070
  P       -0.1833470    -1.1435920     0.2927960
  P       -2.7088530     0.4754690    -0.2006980
  O        1.9802858     1.6173477    -0.1816190
  O        1.2681810    -0.9012495    -0.5472393
  O        3.2679280     0.0927970    -1.6978490
  O        3.3289310    -0.2934220     0.9022790
  O       -0.9881700     0.1612780    -0.2225170
  O        0.0932830    -1.0798150     1.7822090
  O       -0.7150640    -2.4305380    -0.3003910
  O       -3.2327710    -0.2685190     1.0414150
  O       -2.7128520     2.0086770    -0.0959300
  O       -3.2113930    -0.0752120    -1.5473660
  C        1.4216660     1.9681570     1.1052990
  H        1.0169430     1.1016800     1.6278780
  H        2.2027140     2.4392170     1.7103290
  H        0.6160650     2.6819120     0.9264900
units angstrom
no_reorient  #important for SAPT in psi4, default
symmetry c1  #important for SAPT in psi4, default
}

set PROPERTIES_ORIGIN ["COM"]
properties('MP2/aug-cc-pvtz', properties = ['dipole'])
--------------------------------------------------------------------------

    Molecular point group: c1
  Charge       = -4
  Multiplicity = 1
  Basis Set: AUG-CC-PVTZ
    Blend: AUG-CC-PVTZ
  Basis Set: (AUG-CC-PVTZ AUX)
    Blend: AUG-CC-PVTZ-JKFIT

    Orbital Energies [Eh]
    ---------------------

    Doubly Occupied:

       1A    -79.571159     2A    -79.528735     3A    -79.481076
       4A    -20.087065     5A    -20.039650     6A    -20.000640
       7A    -20.000447     8A    -19.995304     9A    -19.951401
      10A    -19.945844    11A    -19.924933    12A    -19.920138
      13A    -19.918371    14A    -10.812663    15A     -7.085077
      16A     -7.041553    17A     -6.994584    18A     -4.983983
      19A     -4.983117    20A     -4.982229    21A     -4.940793
      22A     -4.939446    23A     -4.938492    24A     -4.894059
      25A     -4.891846    26A     -4.891696    27A     -0.900885
      28A     -0.844960    29A     -0.806764    30A     -0.777420
      31A     -0.755852    32A     -0.742735    33A     -0.714808
      34A     -0.700450    35A     -0.664441    36A     -0.660016
      37A     -0.467354    38A     -0.291162    39A     -0.235314
      40A     -0.184378    41A     -0.163828    42A     -0.149212
      43A     -0.124413    44A     -0.099026    45A     -0.081963
      46A     -0.065258    47A     -0.051990    48A     -0.045988
      49A     -0.032869    50A     -0.016779    51A     -0.005644
      52A     -0.000450    53A      0.008930    54A      0.015506
      55A      0.020762    56A      0.037285    57A      0.046186
      58A      0.055401    59A      0.067866    60A      0.071476
      61A      0.090359    62A      0.099553    63A      0.101252
      64A      0.102736    65A      0.112941    66A      0.124320
      67A      0.143445    68A      0.149415    69A      0.171108

  @DF-RHF Final Energy: -1810.68830803336368

   => Energetics <=

    Nuclear Repulsion Energy =           1461.6378650447575183
    One-Electron Energy =               -5498.8329020652072359
    Two-Electron Energy =                2226.5067289870858076
    Total Energy =                      -1810.6883080333636826
  Basis Set: (AUG-CC-PVTZ AUX)
    Blend: AUG-CC-PVTZ-RI
    Molecular point group: c1

    Geometry (in Angstrom), charge = -4, multiplicity = 1:

       Center              X                  Y                   Z               Mass
    ------------   -----------------  -----------------  -----------------  -----------------
         P            2.595547580944     0.108512706333    -0.339194322336    30.973761998420
         P           -0.170666419056    -1.117691293667     0.309508677664    30.973761998420
         P           -2.696172419056     0.501369706333    -0.183985322336    30.973761998420
         O            1.992966380944     1.643248406333    -0.164906322336    15.994914619570
         O            1.280861580944    -0.875348793667    -0.530526622336    15.994914619570
         O            3.280608580944     0.118697706333    -1.681136322336    15.994914619570
         O            3.341611580944    -0.267521293667     0.918991677664    15.994914619570
         O           -0.975489419056     0.187178706333    -0.205804322336    15.994914619570
         O            0.105963580944    -1.053914293667     1.798921677664    15.994914619570
         O           -0.702383419056    -2.404637293667    -0.283678322336    15.994914619570
         O           -3.220090419056    -0.242618293667     1.058127677664    15.994914619570
         O           -2.700171419056     2.034577706333    -0.079217322336    15.994914619570
         O           -3.198712419056    -0.049311293667    -1.530653322336    15.994914619570
         C            1.434346580944     1.994057706333     1.122011677664    12.000000000000
         H            1.029623580944     1.127580706333     1.644590677664     1.007825032230
         H            2.215394580944     2.465117706333     1.727041677664     1.007825032230
         H            0.628745580944     2.707812706333     0.943202677664     1.007825032230

  Basis Set: AUG-CC-PVTZ
    Blend: AUG-CC-PVTZ
  Basis Set: (AUG-CC-PVTZ AUX)
    Blend: AUG-CC-PVTZ-JKFIT
	 Reference Energy          =   -1810.6883080333636826 [Eh]
	 Singles Energy            =      -0.0000000000000000 [Eh]
	 Same-Spin Energy          =      -0.9131073770455946 [Eh]
	 Opposite-Spin Energy      =      -2.5261785127583369 [Eh]
	 Correlation Energy        =      -3.4392858898039318 [Eh]
	 Total Energy              =   -1814.1275939231675238 [Eh]

	 ================> DF-SCS-MP2 Energies <==================
	-----------------------------------------------------------
	 SCS Same-Spin Scale       =       0.3333333333333333 [-]
	 SCS Opposite-Spin Scale   =       1.2000000000000000 [-]
	 SCS Same-Spin Energy      =      -0.3043691256818649 [Eh]
	 SCS Opposite-Spin Energy  =      -3.0314142153100043 [Eh]
	 SCS Correlation Energy    =      -3.3357833409918691 [Eh]
	 SCS Total Energy          =   -1814.0240913743555211 [Eh]
	-----------------------------------------------------------

  Dipole Moment: [D]
     X:     9.0854      Y:     2.3461      Z:     1.6493     Total:     9.5273

*** Psi4 exiting successfully. Buy a developer a beer!
