                               Psi4 1.3.2 release

  ==> Input File <==

--------------------------------------------------------------------------
#psi4
#
memory 32 gb

molecule  {
-4 1
  P        2.5828670     0.0826120    -0.3559070
  P       -0.1833470    -1.1435920     0.2927960
  P       -2.7088530     0.4754690    -0.2006980
  O        1.9534540     1.6068400    -0.1842610
  O        1.2509400    -0.8782220    -0.5450080
  O        3.3133949     0.0934730    -1.7869125
  O        3.3289310    -0.2934220     0.9022790
  O       -0.9881700     0.1612780    -0.2225170
  O        0.0932830    -1.0798150     1.7822090
  O       -0.7150640    -2.4305380    -0.3003910
  O       -3.2327710    -0.2685190     1.0414150
  O       -2.7128520     2.0086770    -0.0959300
  O       -3.2113930    -0.0752120    -1.5473660
  C        1.4216660     1.9681570     1.1052990
  H        1.0169430     1.1016800     1.6278780
  H        2.2027140     2.4392170     1.7103290
  H        0.6160650     2.6819120     0.9264900
units angstrom
no_reorient  #important for SAPT in psi4, default
symmetry c1  #important for SAPT in psi4, default
}

set PROPERTIES_ORIGIN ["COM"]
properties('MP2/aug-cc-pvtz', properties = ['dipole'])
--------------------------------------------------------------------------

    Molecular point group: c1
  Charge       = -4
  Multiplicity = 1
  Basis Set: AUG-CC-PVTZ
    Blend: AUG-CC-PVTZ
  Basis Set: (AUG-CC-PVTZ AUX)
    Blend: AUG-CC-PVTZ-JKFIT

    Orbital Energies [Eh]
    ---------------------

    Doubly Occupied:

       1A    -79.590346     2A    -79.530662     3A    -79.481525
       4A    -20.092508     5A    -20.045408     6A    -20.011761
       7A    -20.007572     8A    -19.995660     9A    -19.953531
      10A    -19.948140    11A    -19.925462    12A    -19.920545
      13A    -19.919001    14A    -10.816356    15A     -7.101297
      16A     -7.043596    17A     -6.995040    18A     -5.000463
      19A     -4.999415    20A     -4.998104    21A     -4.942913
      22A     -4.941448    23A     -4.940521    24A     -4.894511
      25A     -4.892306    26A     -4.892155    27A     -0.904498
      28A     -0.850232    29A     -0.804695    30A     -0.779668
      31A     -0.747253    32A     -0.733076    33A     -0.715837
      34A     -0.702676    35A     -0.664978    36A     -0.660553
      37A     -0.471871    38A     -0.300588    39A     -0.238626
      40A     -0.187169    41A     -0.168491    42A     -0.152687
      43A     -0.127605    44A     -0.100376    45A     -0.083037
      46A     -0.068102    47A     -0.051169    48A     -0.044640
      49A     -0.034733    50A     -0.016570    51A     -0.008932
      52A     -0.001413    53A      0.008203    54A      0.017129
      55A      0.020914    56A      0.040802    57A      0.044788
      58A      0.054325    59A      0.066995    60A      0.071747
      61A      0.088478    62A      0.098599    63A      0.100395
      64A      0.102072    65A      0.111205    66A      0.122476
      67A      0.142813    68A      0.148818    69A      0.170572

  @DF-RHF Final Energy: -1810.67654385463743

   => Energetics <=

    Nuclear Repulsion Energy =           1457.9918886049861158
    One-Electron Energy =               -5491.1580824550974285
    Two-Electron Energy =                2222.4896499954738829
    Total Energy =                      -1810.6765438546372025
  Basis Set: (AUG-CC-PVTZ AUX)
    Blend: AUG-CC-PVTZ-RI
    Molecular point group: c1

    Geometry (in Angstrom), charge = -4, multiplicity = 1:

       Center              X                  Y                   Z               Mass
    ------------   -----------------  -----------------  -----------------  -----------------
         P            2.595464344596     0.107724835879    -0.333852162061    30.973761998420
         P           -0.170749655404    -1.118479164121     0.314850837939    30.973761998420
         P           -2.696255655404     0.500581835879    -0.178643162061    30.973761998420
         O            1.966051344596     1.631952835879    -0.162206162061    15.994914619570
         O            1.263537344596    -0.853109164121    -0.522953162061    15.994914619570
         O            3.325992244596     0.118585835879    -1.764857662061    15.994914619570
         O            3.341528344596    -0.268309164121     0.924333837939    15.994914619570
         O           -0.975572655404     0.186390835879    -0.200462162061    15.994914619570
         O            0.105880344596    -1.054702164121     1.804263837939    15.994914619570
         O           -0.702466655404    -2.405425164121    -0.278336162061    15.994914619570
         O           -3.220173655404    -0.243406164121     1.063469837939    15.994914619570
         O           -2.700254655404     2.033789835879    -0.073875162061    15.994914619570
         O           -3.198795655404    -0.050099164121    -1.525311162061    15.994914619570
         C            1.434263344596     1.993269835879     1.127353837939    12.000000000000
         H            1.029540344596     1.126792835879     1.649932837939     1.007825032230
         H            2.215311344596     2.464329835879     1.732383837939     1.007825032230
         H            0.628662344596     2.707024835879     0.948544837939     1.007825032230

  Basis Set: AUG-CC-PVTZ
    Blend: AUG-CC-PVTZ
  Basis Set: (AUG-CC-PVTZ AUX)
    Blend: AUG-CC-PVTZ-JKFIT
	 Reference Energy          =   -1810.6765438546374298 [Eh]
	 Singles Energy            =      -0.0000000000000000 [Eh]
	 Same-Spin Energy          =      -0.9147155054454579 [Eh]
	 Opposite-Spin Energy      =      -2.5303180560302518 [Eh]
	 Correlation Energy        =      -3.4450335614757099 [Eh]
	 Total Energy              =   -1814.1215774161130412 [Eh]

	 ================> DF-SCS-MP2 Energies <==================
	-----------------------------------------------------------
	 SCS Same-Spin Scale       =       0.3333333333333333 [-]
	 SCS Opposite-Spin Scale   =       1.2000000000000000 [-]
	 SCS Same-Spin Energy      =      -0.3049051684818193 [Eh]
	 SCS Opposite-Spin Energy  =      -3.0363816672363022 [Eh]
	 SCS Correlation Energy    =      -3.3412868357181216 [Eh]
	 SCS Total Energy          =   -1814.0178306903555949 [Eh]
	-----------------------------------------------------------

  Dipole Moment: [D]
     X:     8.7914      Y:     2.3290      Z:     2.2283     Total:     9.3636

*** Psi4 exiting successfully. Buy a developer a beer!
