                               Psi4 1.3.2 release

  ==> Input File <==

--------------------------------------------------------------------------
#psi4
#
memory 32 gb

molecule  {
-4 1
  P        2.5828670     0.0826120    -0.3559070
  P       -0.1833470    -1.1435920     0.2927960
  P       -2.7088530     0.4754690    -0.2006980
  O        1.9534540     1.6068400    -0.1842610
  O        1.2509400    -0.8782220    -0.5450080
  O        3.2679280     0.0927970    -1.6978490
  O        3.3289310    -0.2934220     0.9022790
  O       -0.9910943     0.1486661    -0.2501662
  O        0.0932830    -1.0798150     1.7822090
  O       -0.7150640    -2.4305380    -0.3003910
  O       -3.2327710    -0.2685190     1.0414150
  O       -2.7128520     2.0086770    -0.0959300
  O       -3.1862798    -0.0825451    -1.5534709
  C        1.4216660     1.9681570     1.1052990
  H        1.0169430     1.1016800     1.6278780
  H        2.2027140     2.4392170     1.7103290
  H        0.6160650     2.6819120     0.9264900
units angstrom
no_reorient  #important for SAPT in psi4, default
symmetry c1  #important for SAPT in psi4, default
}

set PROPERTIES_ORIGIN ["COM"]
properties('MP2/aug-cc-pvtz', properties = ['dipole'])
--------------------------------------------------------------------------

    Molecular point group: c1
  Charge       = -4
  Multiplicity = 1
  Basis Set: AUG-CC-PVTZ
    Blend: AUG-CC-PVTZ
  Basis Set: (AUG-CC-PVTZ AUX)
    Blend: AUG-CC-PVTZ-JKFIT

    Orbital Energies [Eh]
    ---------------------

    Doubly Occupied:

       1A    -79.572190     2A    -79.526261     3A    -79.479781
       4A    -20.085553     5A    -20.037503     6A    -20.002610
       7A    -20.002190     8A    -19.991349     9A    -19.951081
      10A    -19.943457    11A    -19.925122    12A    -19.918869
      13A    -19.917669    14A    -10.811918    15A     -7.086014
      16A     -7.039179    17A     -6.993304    18A     -4.984966
      19A     -4.984016    20A     -4.983203    21A     -4.938474
      22A     -4.937056    23A     -4.936139    24A     -4.892783
      25A     -4.890589    26A     -4.890410    27A     -0.901713
      28A     -0.845080    29A     -0.806029    30A     -0.777470
      31A     -0.757329    32A     -0.741827    33A     -0.713083
      34A     -0.698852    35A     -0.664095    36A     -0.659252
      37A     -0.466965    38A     -0.293287    39A     -0.234168
      40A     -0.183277    41A     -0.163925    42A     -0.148722
      43A     -0.125840    44A     -0.098759    45A     -0.082354
      46A     -0.064713    47A     -0.051592    48A     -0.043718
      49A     -0.031201    50A     -0.015968    51A     -0.006307
      52A      0.000219    53A      0.010079    54A      0.014937
      55A      0.021860    56A      0.037787    57A      0.047598
      58A      0.053717    59A      0.067339    60A      0.071378
      61A      0.092018    62A      0.099777    63A      0.102405
      64A      0.103875    65A      0.114617    66A      0.125812
      67A      0.143840    68A      0.151235    69A      0.171577

  @DF-RHF Final Energy: -1810.68819727175924

   => Energetics <=

    Nuclear Repulsion Energy =           1463.1679464680862566
    One-Electron Energy =               -5501.9780078906469498
    Two-Electron Energy =                2228.1218641508012297
    Total Energy =                      -1810.6881972717592362
  Basis Set: (AUG-CC-PVTZ AUX)
    Blend: AUG-CC-PVTZ-RI
    Molecular point group: c1

    Geometry (in Angstrom), charge = -4, multiplicity = 1:

       Center              X                  Y                   Z               Mass
    ------------   -----------------  -----------------  -----------------  -----------------
         P            2.596854184426     0.108956036461    -0.337154473560    30.973761998420
         P           -0.169359815574    -1.117247963539     0.311548526440    30.973761998420
         P           -2.694865815574     0.501813036461    -0.181945473560    30.973761998420
         O            1.967441184426     1.633184036461    -0.165508473560    15.994914619570
         O            1.264927184426    -0.851877963539    -0.526255473560    15.994914619570
         O            3.281915184426     0.119141036461    -1.679096473560    15.994914619570
         O            3.342918184426    -0.267077963539     0.921031526440    15.994914619570
         O           -0.977107115574     0.175010136461    -0.231413673560    15.994914619570
         O            0.107270184426    -1.053470963539     1.800961526440    15.994914619570
         O           -0.701076815574    -2.404193963539    -0.281638473560    15.994914619570
         O           -3.218783815574    -0.242174963539     1.060167526440    15.994914619570
         O           -2.698864815574     2.035021036461    -0.077177473560    15.994914619570
         O           -3.172292615574    -0.056201063539    -1.534718373560    15.994914619570
         C            1.435653184426     1.994501036461     1.124051526440    12.000000000000
         H            1.030930184426     1.128024036461     1.646630526440     1.007825032230
         H            2.216701184426     2.465561036461     1.729081526440     1.007825032230
         H            0.630052184426     2.708256036461     0.945242526440     1.007825032230

  Basis Set: AUG-CC-PVTZ
    Blend: AUG-CC-PVTZ
  Basis Set: (AUG-CC-PVTZ AUX)
    Blend: AUG-CC-PVTZ-JKFIT
	 Reference Energy          =   -1810.6881972717592362 [Eh]
	 Singles Energy            =      -0.0000000000000000 [Eh]
	 Same-Spin Energy          =      -0.9130866848370133 [Eh]
	 Opposite-Spin Energy      =      -2.5259274683802291 [Eh]
	 Correlation Energy        =      -3.4390141532172422 [Eh]
	 Total Energy              =   -1814.1272114249763945 [Eh]

	 ================> DF-SCS-MP2 Energies <==================
	-----------------------------------------------------------
	 SCS Same-Spin Scale       =       0.3333333333333333 [-]
	 SCS Opposite-Spin Scale   =       1.2000000000000000 [-]
	 SCS Same-Spin Energy      =      -0.3043622282790044 [Eh]
	 SCS Opposite-Spin Energy  =      -3.0311129620562749 [Eh]
	 SCS Correlation Energy    =      -3.3354751903352793 [Eh]
	 SCS Total Energy          =   -1814.0236724620945097 [Eh]
	-----------------------------------------------------------

  Dipole Moment: [D]
     X:     9.1968      Y:     2.3861      Z:     1.6673     Total:     9.6464

*** Psi4 exiting successfully. Buy a developer a beer!
