                               Psi4 1.4a3.dev225

  ==> Input File <==

--------------------------------------------------------------------------
#psi4
#
memory 32 gb

molecule  {
-4 1
  P       -2.5202440    -0.2449420     0.3712220
  P        0.3565170    -0.5960480    -0.3589090
  P        3.1750170     0.3881900     0.1554910
  O       -2.7927880     1.3311510    -0.1150520
  O       -0.9169740    -0.0836090     0.6422800
  O       -3.2075882    -0.4676886     1.7591804
  O       -2.8507450    -1.1694890    -0.7786080
  O        1.4898640     0.0841660     0.5723090
  O        0.2127210     0.0849480    -1.7048820
  O        0.4027150    -2.1095660    -0.2874290
  O        3.5327910    -0.6840640    -0.8835370
  O        3.1643710     1.8286230    -0.3742880
  O        3.8338960     0.2099350     1.5311200
  C       -4.1398760     1.5889580    -0.5252390
  H       -4.4292020     0.9309370    -1.3496150
  H       -4.8386320     1.4471050     0.3059850
  H       -4.1840730     2.6280350    -0.8559160
units angstrom
no_reorient  #important for SAPT in psi4, default
symmetry c1  #important for SAPT in psi4, default
}

set PROPERTIES_ORIGIN ["COM"]
properties('MP2/aug-cc-pvtz', properties = ['dipole'])
--------------------------------------------------------------------------

    Molecular point group: c1
  Charge       = -4
  Multiplicity = 1
  Basis Set: AUG-CC-PVTZ
    Blend: AUG-CC-PVTZ
  Basis Set: (AUG-CC-PVTZ AUX)
    Blend: AUG-CC-PVTZ-JKFIT

    Orbital Energies [Eh]
    ---------------------

    Doubly Occupied:

       1A    -79.589872     2A    -79.519082     3A    -79.476231
       4A    -20.122740     5A    -20.045602     6A    -20.017406
       7A    -20.009771     8A    -19.985577     9A    -19.938423
      10A    -19.936976    11A    -19.922600    12A    -19.917773
      13A    -19.913970    14A    -10.884894    15A     -7.102577
      16A     -7.032153    17A     -6.989992    18A     -5.001855
      19A     -5.000495    20A     -4.999291    21A     -4.931571
      22A     -4.929956    23A     -4.928814    24A     -4.889392
      25A     -4.887274    26A     -4.887147    27A     -0.933035
      28A     -0.854768    29A     -0.803055    30A     -0.777729
      31A     -0.754496    32A     -0.737488    33A     -0.707149
      34A     -0.688569    35A     -0.662655    36A     -0.658024
      37A     -0.530031    38A     -0.312118    39A     -0.253680
      40A     -0.222469    41A     -0.198312    42A     -0.166285
      43A     -0.141200    44A     -0.108279    45A     -0.094562
      46A     -0.079106    47A     -0.063734    48A     -0.052931
      49A     -0.036211    50A     -0.024203    51A     -0.013599
      52A     -0.010260    53A      0.011922    54A      0.012414
      55A      0.022260    56A      0.035200    57A      0.047693
      58A      0.053549    59A      0.062072    60A      0.079800
      61A      0.096158    62A      0.102609    63A      0.106164
      64A      0.107061    65A      0.123298    66A      0.133927
      67A      0.147179    68A      0.153442    69A      0.173821

  @DF-RHF Final Energy: -1810.67076360412580

   => Energetics <=

    Nuclear Repulsion Energy =           1423.1586165855417221
    One-Electron Energy =               -5421.1051408976009043
    Two-Electron Energy =                2187.2757607079338413
    Total Energy =                      -1810.6707636041255682
  Basis Set: (AUG-CC-PVTZ AUX)
    Blend: AUG-CC-PVTZ-RI
    Molecular point group: c1

    Geometry (in Angstrom), charge = -4, multiplicity = 1:

       Center              X                  Y                   Z               Mass
    ------------   -----------------  -----------------  -----------------  -----------------
         P           -2.572374314942    -0.224349108918     0.360934713961    30.973761998420
         P            0.304386685058    -0.575455108918    -0.369196286039    30.973761998420
         P            3.122886685058     0.408782891082     0.145203713961    30.973761998420
         O           -2.844918314942     1.351743891082    -0.125339286039    15.994914619570
         O           -0.969104314942    -0.063016108918     0.631992713961    15.994914619570
         O           -3.259718514942    -0.447095708918     1.748893113961    15.994914619570
         O           -2.902875314942    -1.148896108918    -0.788895286039    15.994914619570
         O            1.437733685058     0.104758891082     0.562021713961    15.994914619570
         O            0.160590685058     0.105540891082    -1.715169286039    15.994914619570
         O            0.350584685058    -2.088973108918    -0.297716286039    15.994914619570
         O            3.480660685058    -0.663471108918    -0.893824286039    15.994914619570
         O            3.112240685058     1.849215891082    -0.384575286039    15.994914619570
         O            3.781765685058     0.230527891082     1.520832713961    15.994914619570
         C           -4.192006314942     1.609550891082    -0.535526286039    12.000000000000
         H           -4.481332314942     0.951529891082    -1.359902286039     1.007825032230
         H           -4.890762314942     1.467697891082     0.295697713961     1.007825032230
         H           -4.236203314942     2.648627891082    -0.866203286039     1.007825032230

  Basis Set: AUG-CC-PVTZ
    Blend: AUG-CC-PVTZ
  Basis Set: (AUG-CC-PVTZ AUX)
    Blend: AUG-CC-PVTZ-JKFIT
	 Reference Energy          =   -1810.6707636041257956 [Eh]
	 Singles Energy            =      -0.0000000000000000 [Eh]
	 Same-Spin Energy          =      -0.9133108478920839 [Eh]
	 Opposite-Spin Energy      =      -2.5276569401230957 [Eh]
	 Correlation Energy        =      -3.4409677880151799 [Eh]
	 Total Energy              =   -1814.1117313921408822 [Eh]

	 ================> DF-SCS-MP2 Energies <==================
	-----------------------------------------------------------
	 SCS Same-Spin Scale       =       0.3333333333333333 [-]
	 SCS Opposite-Spin Scale   =       1.2000000000000000 [-]
	 SCS Same-Spin Energy      =      -0.3044369492973613 [Eh]
	 SCS Opposite-Spin Energy  =      -3.0331883281477148 [Eh]
	 SCS Correlation Energy    =      -3.3376252774450759 [Eh]
	 SCS Total Energy          =   -1814.0083888815709088 [Eh]
	-----------------------------------------------------------

  Dipole Moment: [D]
     X:   -14.7852      Y:     2.7611      Z:    -0.2992     Total:    15.0437

*** Psi4 exiting successfully. Buy a developer a beer!
