                               Psi4 1.4a3.dev225

  ==> Input File <==

--------------------------------------------------------------------------
#psi4
#
memory 32 gb

molecule  {
0 1
  O       -0.0048250     2.1741760     0.2178480
  O        2.2663170     0.9084740    -0.5920830
  C        0.2215980    -0.1887240    -0.0416380
  C       -0.5997910     0.9512430     0.0794500
  C       -0.3937360    -1.4453650    -0.1432710
  C        1.7133810    -0.0735570    -0.1011180
  C       -1.9917600     0.8092840     0.0995930
  C       -1.7801750    -1.5845230    -0.1400000
  C       -2.5802090    -0.4482640    -0.0192820
  C        2.5274150    -1.2247570     0.4590770
  H        0.2262520    -2.3327300    -0.2378970
  H       -2.6178000     1.6952910     0.2019520
  H       -2.2312480    -2.5684970    -0.2333300
  H       -3.6639410    -0.5356590    -0.0094230
  H        2.1650152    -1.5100927     1.4504284
  H        3.5676560    -0.9027370     0.5247450
  H        2.4738770    -2.0960730    -0.2017770
  H       -0.7089870     2.8349930     0.3487360
units angstrom
no_reorient  #important for SAPT in psi4, default
symmetry c1  #important for SAPT in psi4, default
}

set PROPERTIES_ORIGIN ["COM"]
properties('MP2/aug-cc-pvtz', properties = ['dipole'])
--------------------------------------------------------------------------

    Molecular point group: c1
  Charge       = 0
  Multiplicity = 1
  Basis Set: AUG-CC-PVTZ
    Blend: AUG-CC-PVTZ
  Basis Set: (AUG-CC-PVTZ AUX)
    Blend: AUG-CC-PVTZ-JKFIT

    Orbital Energies [Eh]
    ---------------------

    Doubly Occupied:

       1A    -20.597172     2A    -20.537449     3A    -11.332958
       4A    -11.324716     5A    -11.261168     6A    -11.261140
       7A    -11.249823     8A    -11.247439     9A    -11.241782
      10A    -11.233300    11A     -1.410787    12A     -1.367335
      13A     -1.163624    14A     -1.057200    15A     -1.019230
      16A     -0.994910    17A     -0.871221    18A     -0.847969
      19A     -0.763944    20A     -0.740449    21A     -0.680808
      22A     -0.669187    23A     -0.637112    24A     -0.621378
      25A     -0.610879    26A     -0.599747    27A     -0.588349
      28A     -0.575513    29A     -0.550574    30A     -0.531799
      31A     -0.520836    32A     -0.500034    33A     -0.480142
      34A     -0.410376    35A     -0.356479    36A     -0.327267

  @DF-RHF Final Energy:  -457.48413318290193

   => Energetics <=

    Nuclear Repulsion Energy =            494.8417359412125620
    One-Electron Energy =               -1604.2835463687372339
    Two-Electron Energy =                 651.9576772446226869
    Total Energy =                       -457.4841331829019282
  Basis Set: (AUG-CC-PVTZ AUX)
    Blend: AUG-CC-PVTZ-RI
    Molecular point group: c1

    Geometry (in Angstrom), charge = 0, multiplicity = 1:

       Center              X                  Y                   Z               Mass
    ------------   -----------------  -----------------  -----------------  -----------------
         O           -0.010541151704     2.134537704873     0.231183046980    15.994914619570
         O            2.260600848295     0.868835704873    -0.578747953020    15.994914619570
         C            0.215881848296    -0.228362295127    -0.028302953020    12.000000000000
         C           -0.605507151704     0.911604704873     0.092785046980    12.000000000000
         C           -0.399452151704    -1.485003295127    -0.129935953020    12.000000000000
         C            1.707664848296    -0.113195295127    -0.087782953020    12.000000000000
         C           -1.997476151704     0.769645704873     0.112928046980    12.000000000000
         C           -1.785891151704    -1.624161295127    -0.126664953020    12.000000000000
         C           -2.585925151704    -0.487902295127    -0.005946953020    12.000000000000
         C            2.521698848296    -1.264395295127     0.472412046980    12.000000000000
         H            0.220535848296    -2.372368295127    -0.224561953020     1.007825032230
         H           -2.623516151704     1.655652704873     0.215287046980     1.007825032230
         H           -2.236964151704    -2.608135295127    -0.219994953020     1.007825032230
         H           -3.669657151704    -0.575297295127     0.003912046980     1.007825032230
         H            2.159299048296    -1.549730995127     1.463763446980     1.007825032230
         H            3.561939848296    -0.942375295127     0.538080046980     1.007825032230
         H            2.468160848296    -2.135711295127    -0.188441953020     1.007825032230
         H           -0.714703151704     2.795354704873     0.362071046980     1.007825032230

  Basis Set: AUG-CC-PVTZ
    Blend: AUG-CC-PVTZ
  Basis Set: (AUG-CC-PVTZ AUX)
    Blend: AUG-CC-PVTZ-JKFIT
	 Reference Energy          =    -457.4841331829019282 [Eh]
	 Singles Energy            =      -0.0000000000000000 [Eh]
	 Same-Spin Energy          =      -0.4782700611340839 [Eh]
	 Opposite-Spin Energy      =      -1.4737396647920504 [Eh]
	 Correlation Energy        =      -1.9520097259261342 [Eh]
	 Total Energy              =    -459.4361429088280602 [Eh]

	 ================> DF-SCS-MP2 Energies <==================
	-----------------------------------------------------------
	 SCS Same-Spin Scale       =       0.3333333333333333 [-]
	 SCS Opposite-Spin Scale   =       1.2000000000000000 [-]
	 SCS Same-Spin Energy      =      -0.1594233537113613 [Eh]
	 SCS Opposite-Spin Energy  =      -1.7684875977504604 [Eh]
	 SCS Correlation Energy    =      -1.9279109514618216 [Eh]
	 SCS Total Energy          =    -459.4120441343637253 [Eh]
	-----------------------------------------------------------

  Dipole Moment: [D]
     X:    -2.9289      Y:    -1.4861      Z:     1.2202     Total:     3.5037

*** Psi4 exiting successfully. Buy a developer a beer!
