                               Psi4 1.4a3.dev225

  ==> Input File <==

--------------------------------------------------------------------------
#psi4
#
memory 32 gb

molecule  {
0 1
  O       -0.0048250     2.1741760     0.2178480
  O        2.2663170     0.9084740    -0.5920830
  C        0.2652098    -0.2107935    -0.0446026
  C       -0.5997910     0.9512430     0.0794500
  C       -0.3937360    -1.4453650    -0.1432710
  C        1.7133810    -0.0735570    -0.1011180
  C       -1.9917600     0.8092840     0.0995930
  C       -1.7801750    -1.5845230    -0.1400000
  C       -2.5802090    -0.4482640    -0.0192820
  C        2.5274150    -1.2247570     0.4590770
  H        0.2262520    -2.3327300    -0.2378970
  H       -2.6178000     1.6952910     0.2019520
  H       -2.2312480    -2.5684970    -0.2333300
  H       -3.6639410    -0.5356590    -0.0094230
  H        2.1619230    -1.5277990     1.4440180
  H        3.5676560    -0.9027370     0.5247450
  H        2.4738770    -2.0960730    -0.2017770
  H       -0.7089870     2.8349930     0.3487360
units angstrom
no_reorient  #important for SAPT in psi4, default
symmetry c1  #important for SAPT in psi4, default
}

set PROPERTIES_ORIGIN ["COM"]
properties('MP2/aug-cc-pvtz', properties = ['dipole'])
--------------------------------------------------------------------------

    Molecular point group: c1
  Charge       = 0
  Multiplicity = 1
  Basis Set: AUG-CC-PVTZ
    Blend: AUG-CC-PVTZ
  Basis Set: (AUG-CC-PVTZ AUX)
    Blend: AUG-CC-PVTZ-JKFIT

    Orbital Energies [Eh]
    ---------------------

    Doubly Occupied:

       1A    -20.599001     2A    -20.536241     3A    -11.331465
       4A    -11.329881     5A    -11.263680     6A    -11.263156
       7A    -11.251718     8A    -11.247440     9A    -11.242012
      10A    -11.231553    11A     -1.411927    12A     -1.367254
      13A     -1.161581    14A     -1.061732    15A     -1.017509
      16A     -0.992636    17A     -0.876258    18A     -0.847383
      19A     -0.767192    20A     -0.740278    21A     -0.682331
      22A     -0.670391    23A     -0.636283    24A     -0.620905
      25A     -0.609907    26A     -0.599466    27A     -0.587090
      28A     -0.576192    29A     -0.551073    30A     -0.534313
      31A     -0.517578    32A     -0.499116    33A     -0.479100
      34A     -0.412599    35A     -0.358067    36A     -0.324339

  @DF-RHF Final Energy:  -457.48033918998010

   => Energetics <=

    Nuclear Repulsion Energy =            494.6341293858488370
    One-Electron Energy =               -1603.8316469432945723
    Two-Electron Energy =                 651.7171783674656353
    Total Energy =                       -457.4803391899800999
  Basis Set: (AUG-CC-PVTZ AUX)
    Blend: AUG-CC-PVTZ-RI
    Molecular point group: c1

    Geometry (in Angstrom), charge = 0, multiplicity = 1:

       Center              X                  Y                   Z               Mass
    ------------   -----------------  -----------------  -----------------  -----------------
         O           -0.014364862941     2.136615424862     0.231492014352    15.994914619570
         O            2.256777137059     0.870913424862    -0.578438985648    15.994914619570
         C            0.255669937059    -0.248354075138    -0.030958585648    12.000000000000
         C           -0.609330862941     0.913682424862     0.093094014352    12.000000000000
         C           -0.403275862941    -1.482925575138    -0.129626985648    12.000000000000
         C            1.703841137059    -0.111117575138    -0.087473985648    12.000000000000
         C           -2.001299862941     0.771723424862     0.113237014352    12.000000000000
         C           -1.789714862941    -1.622083575138    -0.126355985648    12.000000000000
         C           -2.589748862941    -0.485824575138    -0.005637985648    12.000000000000
         C            2.517875137059    -1.262317575138     0.472721014352    12.000000000000
         H            0.216712137059    -2.370290575138    -0.224252985648     1.007825032230
         H           -2.627339862941     1.657730424862     0.215596014352     1.007825032230
         H           -2.240787862941    -2.606057575138    -0.219685985648     1.007825032230
         H           -3.673480862941    -0.573219575138     0.004221014352     1.007825032230
         H            2.152383137059    -1.565359575138     1.457662014352     1.007825032230
         H            3.558116137059    -0.940297575138     0.538389014352     1.007825032230
         H            2.464337137059    -2.133633575138    -0.188132985648     1.007825032230
         H           -0.718526862941     2.797432424862     0.362380014352     1.007825032230

  Basis Set: AUG-CC-PVTZ
    Blend: AUG-CC-PVTZ
  Basis Set: (AUG-CC-PVTZ AUX)
    Blend: AUG-CC-PVTZ-JKFIT
	 Reference Energy          =    -457.4803391899800999 [Eh]
	 Singles Energy            =      -0.0000000000000000 [Eh]
	 Same-Spin Energy          =      -0.4786241389506400 [Eh]
	 Opposite-Spin Energy      =      -1.4744064594154187 [Eh]
	 Correlation Energy        =      -1.9530305983660587 [Eh]
	 Total Energy              =    -459.4333697883461696 [Eh]

	 ================> DF-SCS-MP2 Energies <==================
	-----------------------------------------------------------
	 SCS Same-Spin Scale       =       0.3333333333333333 [-]
	 SCS Opposite-Spin Scale   =       1.2000000000000000 [-]
	 SCS Same-Spin Energy      =      -0.1595413796502133 [Eh]
	 SCS Opposite-Spin Energy  =      -1.7692877512985024 [Eh]
	 SCS Correlation Energy    =      -1.9288291309487158 [Eh]
	 SCS Total Energy          =    -459.4091683209288135 [Eh]
	-----------------------------------------------------------

  Dipole Moment: [D]
     X:    -3.0430      Y:    -1.4481      Z:     1.2205     Total:     3.5842

*** Psi4 exiting successfully. Buy a developer a beer!
