                               Psi4 1.4a3.dev225

  ==> Input File <==

--------------------------------------------------------------------------
#psi4
#
memory 32 gb

molecule  {
0 1
  O       -0.0048250     2.1741760     0.2178480
  O        2.2663170     0.9084740    -0.5920830
  C        0.2215980    -0.1887240    -0.0416380
  C       -0.7149339     0.8588839     0.0779136
  C       -0.3937360    -1.4453650    -0.1432710
  C        1.7133810    -0.0735570    -0.1011180
  C       -1.9917600     0.8092840     0.0995930
  C       -1.7801750    -1.5845230    -0.1400000
  C       -2.5802090    -0.4482640    -0.0192820
  C        2.5274150    -1.2247570     0.4590770
  H        0.2262520    -2.3327300    -0.2378970
  H       -2.6178000     1.6952910     0.2019520
  H       -2.2312480    -2.5684970    -0.2333300
  H       -3.6639410    -0.5356590    -0.0094230
  H        2.1619230    -1.5277990     1.4440180
  H        3.5676560    -0.9027370     0.5247450
  H        2.4738770    -2.0960730    -0.2017770
  H       -0.7089870     2.8349930     0.3487360
units angstrom
no_reorient  #important for SAPT in psi4, default
symmetry c1  #important for SAPT in psi4, default
}

set PROPERTIES_ORIGIN ["COM"]
properties('MP2/aug-cc-pvtz', properties = ['dipole'])
--------------------------------------------------------------------------

    Molecular point group: c1
  Charge       = 0
  Multiplicity = 1
  Basis Set: AUG-CC-PVTZ
    Blend: AUG-CC-PVTZ
  Basis Set: (AUG-CC-PVTZ AUX)
    Blend: AUG-CC-PVTZ-JKFIT

    Orbital Energies [Eh]
    ---------------------

    Doubly Occupied:

       1A    -20.572360     2A    -20.540268     3A    -11.337970
       4A    -11.310867     5A    -11.265727     6A    -11.264448
       7A    -11.257677     8A    -11.248169     9A    -11.239852
      10A    -11.236474    11A     -1.371970    12A     -1.346634
      13A     -1.181812    14A     -1.068662    15A     -1.033038
      16A     -0.997479    17A     -0.881582    18A     -0.838135
      19A     -0.774823    20A     -0.718987    21A     -0.678864
      22A     -0.660132    23A     -0.643901    24A     -0.618980
      25A     -0.607960    26A     -0.596904    27A     -0.572734
      28A     -0.568727    29A     -0.550260    30A     -0.536387
      31A     -0.513975    32A     -0.494792    33A     -0.481407
      34A     -0.415690    35A     -0.367157    36A     -0.341082

  @DF-RHF Final Energy:  -457.45459436141954

   => Energetics <=

    Nuclear Repulsion Energy =            495.0363533073360145
    One-Electron Energy =               -1604.7101224212815396
    Two-Electron Energy =                 652.2191747525259871
    Total Energy =                       -457.4545943614195949
  Basis Set: (AUG-CC-PVTZ AUX)
    Blend: AUG-CC-PVTZ-RI
    Molecular point group: c1

    Geometry (in Angstrom), charge = 0, multiplicity = 1:

       Center              X                  Y                   Z               Mass
    ------------   -----------------  -----------------  -----------------  -----------------
         O           -0.000362493362     2.142815058364     0.231366045267    15.994914619570
         O            2.270779506638     0.877113058364    -0.578564954733    15.994914619570
         C            0.226060506638    -0.220084941636    -0.028119954733    12.000000000000
         C           -0.710471393362     0.827522958364     0.091431645267    12.000000000000
         C           -0.389273493362    -1.476725941636    -0.129752954733    12.000000000000
         C            1.717843506638    -0.104917941636    -0.087599954733    12.000000000000
         C           -1.987297493362     0.777923058364     0.113111045267    12.000000000000
         C           -1.775712493362    -1.615883941636    -0.126481954733    12.000000000000
         C           -2.575746493362    -0.479624941636    -0.005763954733    12.000000000000
         C            2.531877506638    -1.256117941636     0.472595045267    12.000000000000
         H            0.230714506638    -2.364090941636    -0.224378954733     1.007825032230
         H           -2.613337493362     1.663930058364     0.215470045267     1.007825032230
         H           -2.226785493362    -2.599857941636    -0.219811954733     1.007825032230
         H           -3.659478493362    -0.567019941636     0.004095045267     1.007825032230
         H            2.166385506638    -1.559159941636     1.457536045267     1.007825032230
         H            3.572118506638    -0.934097941636     0.538263045267     1.007825032230
         H            2.478339506638    -2.127433941636    -0.188258954733     1.007825032230
         H           -0.704524493362     2.803632058364     0.362254045267     1.007825032230

  Basis Set: AUG-CC-PVTZ
    Blend: AUG-CC-PVTZ
  Basis Set: (AUG-CC-PVTZ AUX)
    Blend: AUG-CC-PVTZ-JKFIT
	 Reference Energy          =    -457.4545943614195380 [Eh]
	 Singles Energy            =      -0.0000000000000000 [Eh]
	 Same-Spin Energy          =      -0.4788485203288516 [Eh]
	 Opposite-Spin Energy      =      -1.4769588094017410 [Eh]
	 Correlation Energy        =      -1.9558073297305927 [Eh]
	 Total Energy              =    -459.4104016911501276 [Eh]

	 ================> DF-SCS-MP2 Energies <==================
	-----------------------------------------------------------
	 SCS Same-Spin Scale       =       0.3333333333333333 [-]
	 SCS Opposite-Spin Scale   =       1.2000000000000000 [-]
	 SCS Same-Spin Energy      =      -0.1596161734429505 [Eh]
	 SCS Opposite-Spin Energy  =      -1.7723505712820891 [Eh]
	 SCS Correlation Energy    =      -1.9319667447250395 [Eh]
	 SCS Total Energy          =    -459.3865611061445975 [Eh]
	-----------------------------------------------------------

  Dipole Moment: [D]
     X:    -3.1523      Y:    -2.2505      Z:     1.1314     Total:     4.0351

*** Psi4 exiting successfully. Buy a developer a beer!
