                               Psi4 1.4a3.dev225

  ==> Input File <==

--------------------------------------------------------------------------
#psi4
#
memory 32 gb

molecule  {
0 1
  O       -0.0048250     2.1741760     0.2178480
  O        2.2663170     0.9084740    -0.5920830
  C        0.2215980    -0.1887240    -0.0416380
  C       -0.5997910     0.9512430     0.0794500
  C       -0.3937360    -1.4453650    -0.1432710
  C        1.6277323    -0.1353901    -0.0937178
  C       -1.9917600     0.8092840     0.0995930
  C       -1.7801750    -1.5845230    -0.1400000
  C       -2.5802090    -0.4482640    -0.0192820
  C        2.5274150    -1.2247570     0.4590770
  H        0.2262520    -2.3327300    -0.2378970
  H       -2.6178000     1.6952910     0.2019520
  H       -2.2312480    -2.5684970    -0.2333300
  H       -3.6639410    -0.5356590    -0.0094230
  H        2.1619230    -1.5277990     1.4440180
  H        3.5676560    -0.9027370     0.5247450
  H        2.4738770    -2.0960730    -0.2017770
  H       -0.7089870     2.8349930     0.3487360
units angstrom
no_reorient  #important for SAPT in psi4, default
symmetry c1  #important for SAPT in psi4, default
}

set PROPERTIES_ORIGIN ["COM"]
properties('MP2/aug-cc-pvtz', properties = ['dipole'])
--------------------------------------------------------------------------

    Molecular point group: c1
  Charge       = 0
  Multiplicity = 1
  Basis Set: AUG-CC-PVTZ
    Blend: AUG-CC-PVTZ
  Basis Set: (AUG-CC-PVTZ AUX)
    Blend: AUG-CC-PVTZ-JKFIT

    Orbital Energies [Eh]
    ---------------------

    Doubly Occupied:

       1A    -20.600732     2A    -20.525673     3A    -11.333781
       4A    -11.333251     5A    -11.268676     6A    -11.268003
       7A    -11.252281     8A    -11.250398     9A    -11.246233
      10A    -11.235367    11A     -1.413570    12A     -1.308292
      13A     -1.171623    14A     -1.071015    15A     -1.025253
      16A     -0.994525    17A     -0.885742    18A     -0.857210
      19A     -0.771972    20A     -0.744702    21A     -0.682392
      22A     -0.668712    23A     -0.634853    24A     -0.622560
      25A     -0.610305    26A     -0.595385    27A     -0.585983
      28A     -0.568506    29A     -0.552210    30A     -0.526848
      31A     -0.524264    32A     -0.501154    33A     -0.452180
      34A     -0.410028    35A     -0.359255    36A     -0.331468

  @DF-RHF Final Energy:  -457.45864488343557

   => Energetics <=

    Nuclear Repulsion Energy =            495.0996103328483855
    One-Electron Energy =               -1604.7477036254963423
    Two-Electron Energy =                 652.1894484092123321
    Total Energy =                       -457.4586448834355679
  Basis Set: (AUG-CC-PVTZ AUX)
    Blend: AUG-CC-PVTZ-RI
    Molecular point group: c1

    Geometry (in Angstrom), charge = 0, multiplicity = 1:

       Center              X                  Y                   Z               Mass
    ------------   -----------------  -----------------  -----------------  -----------------
         O           -0.002963919895     2.140122625739     0.230577825605    15.994914619570
         O            2.268178080105     0.874420625739    -0.579353174395    15.994914619570
         C            0.223459080105    -0.222777374261    -0.028908174395    12.000000000000
         C           -0.597929919895     0.917189625739     0.092179825605    12.000000000000
         C           -0.391874919895    -1.479418374261    -0.130541174395    12.000000000000
         C            1.629593380105    -0.169443474261    -0.080987974395    12.000000000000
         C           -1.989898919895     0.775230625739     0.112322825605    12.000000000000
         C           -1.778313919895    -1.618576374261    -0.127270174395    12.000000000000
         C           -2.578347919895    -0.482317374261    -0.006552174395    12.000000000000
         C            2.529276080105    -1.258810374261     0.471806825605    12.000000000000
         H            0.228113080105    -2.366783374261    -0.225167174395     1.007825032230
         H           -2.615938919895     1.661237625739     0.214681825605     1.007825032230
         H           -2.229386919895    -2.602550374261    -0.220600174395     1.007825032230
         H           -3.662079919895    -0.569712374261     0.003306825605     1.007825032230
         H            2.163784080105    -1.561852374261     1.456747825605     1.007825032230
         H            3.569517080105    -0.936790374261     0.537474825605     1.007825032230
         H            2.475738080105    -2.130126374261    -0.189047174395     1.007825032230
         H           -0.707125919895     2.800939625739     0.361465825605     1.007825032230

  Basis Set: AUG-CC-PVTZ
    Blend: AUG-CC-PVTZ
  Basis Set: (AUG-CC-PVTZ AUX)
    Blend: AUG-CC-PVTZ-JKFIT
	 Reference Energy          =    -457.4586448834355679 [Eh]
	 Singles Energy            =      -0.0000000000000000 [Eh]
	 Same-Spin Energy          =      -0.4816885875326983 [Eh]
	 Opposite-Spin Energy      =      -1.4807667442489305 [Eh]
	 Correlation Energy        =      -1.9624553317816289 [Eh]
	 Total Energy              =    -459.4211002152172227 [Eh]

	 ================> DF-SCS-MP2 Energies <==================
	-----------------------------------------------------------
	 SCS Same-Spin Scale       =       0.3333333333333333 [-]
	 SCS Opposite-Spin Scale   =       1.2000000000000000 [-]
	 SCS Same-Spin Energy      =      -0.1605628625108994 [Eh]
	 SCS Opposite-Spin Energy  =      -1.7769200930987166 [Eh]
	 SCS Correlation Energy    =      -1.9374829556096160 [Eh]
	 SCS Total Energy          =    -459.3961278390451639 [Eh]
	-----------------------------------------------------------

  Dipole Moment: [D]
     X:    -3.4959      Y:    -1.6211      Z:     1.3113     Total:     4.0705

*** Psi4 exiting successfully. Buy a developer a beer!
