                               Psi4 1.4a3.dev225

  ==> Input File <==

--------------------------------------------------------------------------
#psi4
#
memory 32 gb

molecule  {
0 1
  O       -0.0048250     2.1741760     0.2178480
  O        2.2663170     0.9084740    -0.5920830
  C        0.2215980    -0.1887240    -0.0416380
  C       -0.5997910     0.9512430     0.0794500
  C       -0.3937360    -1.4453650    -0.1432710
  C        1.7133810    -0.0735570    -0.1011180
  C       -1.9917600     0.8092840     0.0995930
  C       -1.7841523    -1.5362856    -0.1352189
  C       -2.5802090    -0.4482640    -0.0192820
  C        2.5274150    -1.2247570     0.4590770
  H        0.2262520    -2.3327300    -0.2378970
  H       -2.6178000     1.6952910     0.2019520
  H       -2.2312480    -2.5684970    -0.2333300
  H       -3.6639410    -0.5356590    -0.0094230
  H        2.1619230    -1.5277990     1.4440180
  H        3.5676560    -0.9027370     0.5247450
  H        2.4738770    -2.0960730    -0.2017770
  H       -0.7089870     2.8349930     0.3487360
units angstrom
no_reorient  #important for SAPT in psi4, default
symmetry c1  #important for SAPT in psi4, default
}

set PROPERTIES_ORIGIN ["COM"]
properties('MP2/aug-cc-pvtz', properties = ['dipole'])
--------------------------------------------------------------------------

    Molecular point group: c1
  Charge       = 0
  Multiplicity = 1
  Basis Set: AUG-CC-PVTZ
    Blend: AUG-CC-PVTZ
  Basis Set: (AUG-CC-PVTZ AUX)
    Blend: AUG-CC-PVTZ-JKFIT

    Orbital Energies [Eh]
    ---------------------

    Doubly Occupied:

       1A    -20.595937     2A    -20.538268     3A    -11.333464
       4A    -11.323155     5A    -11.261491     6A    -11.255436
       7A    -11.250745     8A    -11.246445     9A    -11.240902
      10A    -11.233928    11A     -1.409789    12A     -1.367961
      13A     -1.168055    14A     -1.060227    15A     -1.018250
      16A     -0.996117    17A     -0.874267    18A     -0.846664
      19A     -0.760873    20A     -0.741254    21A     -0.681270
      22A     -0.667787    23A     -0.640114    24A     -0.621863
      25A     -0.610591    26A     -0.597282    27A     -0.587657
      28A     -0.576390    29A     -0.551833    30A     -0.525707
      31A     -0.521603    32A     -0.502020    33A     -0.481736
      34A     -0.410799    35A     -0.356929    36A     -0.328736

  @DF-RHF Final Energy:  -457.48105340684856

   => Energetics <=

    Nuclear Repulsion Energy =            495.6162702000382865
    One-Electron Energy =               -1605.8235588095196817
    Two-Electron Energy =                 652.7262352026327790
    Total Energy =                       -457.4810534068485595
  Basis Set: (AUG-CC-PVTZ AUX)
    Blend: AUG-CC-PVTZ-RI
    Molecular point group: c1

    Geometry (in Angstrom), charge = 0, multiplicity = 1:

       Center              X                  Y                   Z               Mass
    ------------   -----------------  -----------------  -----------------  -----------------
         O           -0.010167442857     2.130414265477     0.230808833608    15.994914619570
         O            2.260974557143     0.864712265477    -0.579122166392    15.994914619570
         C            0.216255557143    -0.232485734523    -0.028677166392    12.000000000000
         C           -0.605133442857     0.907481265477     0.092410833608    12.000000000000
         C           -0.399078442857    -1.489126734523    -0.130310166392    12.000000000000
         C            1.708038557143    -0.117318734523    -0.088157166392    12.000000000000
         C           -1.997102442857     0.765522265477     0.112553833608    12.000000000000
         C           -1.789494742857    -1.580047334523    -0.122258066392    12.000000000000
         C           -2.585551442857    -0.492025734523    -0.006321166392    12.000000000000
         C            2.522072557143    -1.268518734523     0.472037833608    12.000000000000
         H            0.220909557143    -2.376491734523    -0.224936166392     1.007825032230
         H           -2.623142442857     1.651529265477     0.214912833608     1.007825032230
         H           -2.236590442857    -2.612258734523    -0.220369166392     1.007825032230
         H           -3.669283442857    -0.579420734523     0.003537833608     1.007825032230
         H            2.156580557143    -1.571560734523     1.456978833608     1.007825032230
         H            3.562313557143    -0.946498734523     0.537705833608     1.007825032230
         H            2.468534557143    -2.139834734523    -0.188816166392     1.007825032230
         H           -0.714329442857     2.791231265477     0.361696833608     1.007825032230

  Basis Set: AUG-CC-PVTZ
    Blend: AUG-CC-PVTZ
  Basis Set: (AUG-CC-PVTZ AUX)
    Blend: AUG-CC-PVTZ-JKFIT
	 Reference Energy          =    -457.4810534068485595 [Eh]
	 Singles Energy            =      -0.0000000000000000 [Eh]
	 Same-Spin Energy          =      -0.4784375396925862 [Eh]
	 Opposite-Spin Energy      =      -1.4737856857517366 [Eh]
	 Correlation Energy        =      -1.9522232254443228 [Eh]
	 Total Energy              =    -459.4332766322928592 [Eh]

	 ================> DF-SCS-MP2 Energies <==================
	-----------------------------------------------------------
	 SCS Same-Spin Scale       =       0.3333333333333333 [-]
	 SCS Opposite-Spin Scale   =       1.2000000000000000 [-]
	 SCS Same-Spin Energy      =      -0.1594791798975287 [Eh]
	 SCS Opposite-Spin Energy  =      -1.7685428229020839 [Eh]
	 SCS Correlation Energy    =      -1.9280220027996127 [Eh]
	 SCS Total Energy          =    -459.4090754096481533 [Eh]
	-----------------------------------------------------------

  Dipole Moment: [D]
     X:    -2.9008      Y:    -1.4922      Z:     1.2199     Total:     3.4827

*** Psi4 exiting successfully. Buy a developer a beer!
