                               Psi4 1.4a3.dev225

  ==> Input File <==

--------------------------------------------------------------------------
#psi4
#
memory 32 gb

molecule  {
0 1
  O       -0.0048250     2.1741760     0.2178480
  O        2.2663170     0.9084740    -0.5920830
  C        0.2215980    -0.1887240    -0.0416380
  C       -0.5415477     0.8704099     0.0708639
  C       -0.3937360    -1.4453650    -0.1432710
  C        1.7133810    -0.0735570    -0.1011180
  C       -1.9917600     0.8092840     0.0995930
  C       -1.7801750    -1.5845230    -0.1400000
  C       -2.5802090    -0.4482640    -0.0192820
  C        2.5274150    -1.2247570     0.4590770
  H        0.2262520    -2.3327300    -0.2378970
  H       -2.6178000     1.6952910     0.2019520
  H       -2.2312480    -2.5684970    -0.2333300
  H       -3.6639410    -0.5356590    -0.0094230
  H        2.1619230    -1.5277990     1.4440180
  H        3.5676560    -0.9027370     0.5247450
  H        2.4738770    -2.0960730    -0.2017770
  H       -0.7089870     2.8349930     0.3487360
units angstrom
no_reorient  #important for SAPT in psi4, default
symmetry c1  #important for SAPT in psi4, default
}

set PROPERTIES_ORIGIN ["COM"]
properties('MP2/aug-cc-pvtz', properties = ['dipole'])
--------------------------------------------------------------------------

    Molecular point group: c1
  Charge       = 0
  Multiplicity = 1
  Basis Set: AUG-CC-PVTZ
    Blend: AUG-CC-PVTZ
  Basis Set: (AUG-CC-PVTZ AUX)
    Blend: AUG-CC-PVTZ-JKFIT

    Orbital Energies [Eh]
    ---------------------

    Doubly Occupied:

       1A    -20.584155     2A    -20.540196     3A    -11.335450
       4A    -11.319731     5A    -11.262509     6A    -11.260291
       7A    -11.255599     8A    -11.244938     9A    -11.241965
      10A    -11.235163    11A     -1.384748    12A     -1.366650
      13A     -1.172339    14A     -1.064872    15A     -1.018434
      16A     -0.999878    17A     -0.870315    18A     -0.849050
      19A     -0.767143    20A     -0.730280    21A     -0.677900
      22A     -0.670451    23A     -0.647467    24A     -0.621185
      25A     -0.609177    26A     -0.597204    27A     -0.578145
      28A     -0.570977    29A     -0.551674    30A     -0.532873
      31A     -0.516879    32A     -0.499664    33A     -0.481170
      34A     -0.411896    35A     -0.362178    36A     -0.332364

  @DF-RHF Final Energy:  -457.47044403507090

   => Energetics <=

    Nuclear Repulsion Energy =            495.6227448193205873
    One-Electron Energy =               -1605.8565589214629199
    Two-Electron Energy =                 652.7633700670714916
    Total Energy =                       -457.4704440350708410
  Basis Set: (AUG-CC-PVTZ AUX)
    Blend: AUG-CC-PVTZ-RI
    Molecular point group: c1

    Geometry (in Angstrom), charge = 0, multiplicity = 1:

       Center              X                  Y                   Z               Mass
    ------------   -----------------  -----------------  -----------------  -----------------
         O           -0.015655380138     2.141798450278     0.231987837912    15.994914619570
         O            2.255486619862     0.876096450278    -0.577943162088    15.994914619570
         C            0.210767619862    -0.221101549722    -0.027498162088    12.000000000000
         C           -0.552378080138     0.838032350278     0.085003737912    12.000000000000
         C           -0.404566380138    -1.477742549722    -0.129131162088    12.000000000000
         C            1.702550619862    -0.105934549722    -0.086978162088    12.000000000000
         C           -2.002590380138     0.776906450278     0.113732837912    12.000000000000
         C           -1.791005380138    -1.616900549722    -0.125860162088    12.000000000000
         C           -2.591039380138    -0.480641549722    -0.005142162088    12.000000000000
         C            2.516584619862    -1.257134549722     0.473216837912    12.000000000000
         H            0.215421619862    -2.365107549722    -0.223757162088     1.007825032230
         H           -2.628630380138     1.662913450278     0.216091837912     1.007825032230
         H           -2.242078380138    -2.600874549722    -0.219190162088     1.007825032230
         H           -3.674771380138    -0.568036549722     0.004716837912     1.007825032230
         H            2.151092619862    -1.560176549722     1.458157837912     1.007825032230
         H            3.556825619862    -0.935114549722     0.538884837912     1.007825032230
         H            2.463046619862    -2.128450549722    -0.187637162088     1.007825032230
         H           -0.719817380138     2.802615450278     0.362875837912     1.007825032230

  Basis Set: AUG-CC-PVTZ
    Blend: AUG-CC-PVTZ
  Basis Set: (AUG-CC-PVTZ AUX)
    Blend: AUG-CC-PVTZ-JKFIT
	 Reference Energy          =    -457.4704440350708978 [Eh]
	 Singles Energy            =      -0.0000000000000000 [Eh]
	 Same-Spin Energy          =      -0.4778855452131046 [Eh]
	 Opposite-Spin Energy      =      -1.4744928723343089 [Eh]
	 Correlation Energy        =      -1.9523784175474135 [Eh]
	 Total Energy              =    -459.4228224526183340 [Eh]

	 ================> DF-SCS-MP2 Energies <==================
	-----------------------------------------------------------
	 SCS Same-Spin Scale       =       0.3333333333333333 [-]
	 SCS Opposite-Spin Scale   =       1.2000000000000000 [-]
	 SCS Same-Spin Energy      =      -0.1592951817377015 [Eh]
	 SCS Opposite-Spin Energy  =      -1.7693914468011707 [Eh]
	 SCS Correlation Energy    =      -1.9286866285388722 [Eh]
	 SCS Total Energy          =    -459.3991306636097534 [Eh]
	-----------------------------------------------------------

  Dipole Moment: [D]
     X:    -2.9654      Y:    -1.8271      Z:     1.1740     Total:     3.6756

*** Psi4 exiting successfully. Buy a developer a beer!
