                               Psi4 1.4a3.dev225

  ==> Input File <==

--------------------------------------------------------------------------
#psi4
#
memory 32 gb

molecule  {
0 1
  O       -0.0048250     2.1741760     0.2178480
  O        2.2663170     0.9084740    -0.5920830
  C        0.2215980    -0.1887240    -0.0416380
  C       -0.5997910     0.9512430     0.0794500
  C       -0.3937360    -1.4453650    -0.1432710
  C        1.7133810    -0.0735570    -0.1011180
  C       -1.9917600     0.8092840     0.0995930
  C       -1.7801750    -1.5845230    -0.1400000
  C       -2.5802090    -0.4482640    -0.0192820
  C        2.5274150    -1.2247570     0.4590770
  H        0.2262520    -2.3327300    -0.2378970
  H       -2.6178000     1.6952910     0.2019520
  H       -2.2312480    -2.5684970    -0.2333300
  H       -3.6639410    -0.5356590    -0.0094230
  H        2.1619230    -1.5277990     1.4440180
  H        3.5676560    -0.9027370     0.5247450
  H        2.4738770    -2.0960730    -0.2017770
  H       -0.6367284     2.7671823     0.3353047
units angstrom
no_reorient  #important for SAPT in psi4, default
symmetry c1  #important for SAPT in psi4, default
}

set PROPERTIES_ORIGIN ["COM"]
properties('MP2/aug-cc-pvtz', properties = ['dipole'])
--------------------------------------------------------------------------

    Molecular point group: c1
  Charge       = 0
  Multiplicity = 1
  Basis Set: AUG-CC-PVTZ
    Blend: AUG-CC-PVTZ
  Basis Set: (AUG-CC-PVTZ AUX)
    Blend: AUG-CC-PVTZ-JKFIT

    Orbital Energies [Eh]
    ---------------------

    Doubly Occupied:

       1A    -20.587922     2A    -20.537992     3A    -11.333570
       4A    -11.325619     5A    -11.261706     6A    -11.261600
       7A    -11.250521     8A    -11.248343     9A    -11.242591
      10A    -11.233685    11A     -1.434953    12A     -1.368395
      13A     -1.165705    14A     -1.057897    15A     -1.023202
      16A     -0.995877    17A     -0.872399    18A     -0.857246
      19A     -0.765409    20A     -0.754432    21A     -0.683180
      22A     -0.670736    23A     -0.639176    24A     -0.622897
      25A     -0.611936    26A     -0.601779    27A     -0.589668
      28A     -0.579535    29A     -0.552135    30A     -0.533107
      31A     -0.522081    32A     -0.501120    33A     -0.480612
      34A     -0.411198    35A     -0.356960    36A     -0.328612

  @DF-RHF Final Energy:  -457.47955650470192

   => Energetics <=

    Nuclear Repulsion Energy =            495.5274854755600700
    One-Electron Energy =               -1605.4864860154102644
    Two-Electron Energy =                 652.4794440351482763
    Total Energy =                       -457.4795565047019181
  Basis Set: (AUG-CC-PVTZ AUX)
    Blend: AUG-CC-PVTZ-RI
    Molecular point group: c1

    Geometry (in Angstrom), charge = 0, multiplicity = 1:

       Center              X                  Y                   Z               Mass
    ------------   -----------------  -----------------  -----------------  -----------------
         O           -0.011053510282     2.135171182522     0.231330026802    15.994914619570
         O            2.260088489718     0.869469182522    -0.578600973198    15.994914619570
         C            0.215369489718    -0.227728817478    -0.028155973198    12.000000000000
         C           -0.606019510282     0.912238182522     0.092932026802    12.000000000000
         C           -0.399964510282    -1.484369817478    -0.129788973198    12.000000000000
         C            1.707152489718    -0.112561817478    -0.087635973198    12.000000000000
         C           -1.997988510282     0.770279182522     0.113075026802    12.000000000000
         C           -1.786403510282    -1.623527817478    -0.126517973198    12.000000000000
         C           -2.586437510282    -0.487268817478    -0.005799973198    12.000000000000
         C            2.521186489718    -1.263761817478     0.472559026802    12.000000000000
         H            0.220023489718    -2.371734817478    -0.224414973198     1.007825032230
         H           -2.624028510282     1.656286182522     0.215434026802     1.007825032230
         H           -2.237476510282    -2.607501817478    -0.219847973198     1.007825032230
         H           -3.670169510282    -0.574663817478     0.004059026802     1.007825032230
         H            2.155694489718    -1.566803817478     1.457500026802     1.007825032230
         H            3.561427489718    -0.941741817478     0.538227026802     1.007825032230
         H            2.467648489718    -2.135077817478    -0.188294973198     1.007825032230
         H           -0.642956910282     2.728177482522     0.348786726802     1.007825032230

  Basis Set: AUG-CC-PVTZ
    Blend: AUG-CC-PVTZ
  Basis Set: (AUG-CC-PVTZ AUX)
    Blend: AUG-CC-PVTZ-JKFIT
	 Reference Energy          =    -457.4795565047019181 [Eh]
	 Singles Energy            =      -0.0000000000000000 [Eh]
	 Same-Spin Energy          =      -0.4769759603800729 [Eh]
	 Opposite-Spin Energy      =      -1.4706750802654365 [Eh]
	 Correlation Energy        =      -1.9476510406455094 [Eh]
	 Total Energy              =    -459.4272075453474145 [Eh]

	 ================> DF-SCS-MP2 Energies <==================
	-----------------------------------------------------------
	 SCS Same-Spin Scale       =       0.3333333333333333 [-]
	 SCS Opposite-Spin Scale   =       1.2000000000000000 [-]
	 SCS Same-Spin Energy      =      -0.1589919867933576 [Eh]
	 SCS Opposite-Spin Energy  =      -1.7648100963185238 [Eh]
	 SCS Correlation Energy    =      -1.9238020831118814 [Eh]
	 SCS Total Energy          =    -459.4033585878137842 [Eh]
	-----------------------------------------------------------

  Dipole Moment: [D]
     X:    -2.8927      Y:    -1.6012      Z:     1.2030     Total:     3.5184

*** Psi4 exiting successfully. Buy a developer a beer!
