                               Psi4 1.4a3.dev225

  ==> Input File <==

--------------------------------------------------------------------------
#psi4
#
memory 32 gb

molecule  {
0 1
  O       -0.0048250     2.1741760     0.2178480
  O        2.2663170     0.9084740    -0.5920830
  C        0.2215980    -0.1887240    -0.0416380
  C       -0.5997910     0.9512430     0.0794500
  C       -0.3937360    -1.4453650    -0.1432710
  C        1.7133810    -0.0735570    -0.1011180
  C       -1.9480430     0.7881635     0.0966651
  C       -1.7801750    -1.5845230    -0.1400000
  C       -2.5802090    -0.4482640    -0.0192820
  C        2.5274150    -1.2247570     0.4590770
  H        0.2262520    -2.3327300    -0.2378970
  H       -2.6178000     1.6952910     0.2019520
  H       -2.2312480    -2.5684970    -0.2333300
  H       -3.6639410    -0.5356590    -0.0094230
  H        2.1619230    -1.5277990     1.4440180
  H        3.5676560    -0.9027370     0.5247450
  H        2.4738770    -2.0960730    -0.2017770
  H       -0.7089870     2.8349930     0.3487360
units angstrom
no_reorient  #important for SAPT in psi4, default
symmetry c1  #important for SAPT in psi4, default
}

set PROPERTIES_ORIGIN ["COM"]
properties('MP2/aug-cc-pvtz', properties = ['dipole'])
--------------------------------------------------------------------------

    Molecular point group: c1
  Charge       = 0
  Multiplicity = 1
  Basis Set: AUG-CC-PVTZ
    Blend: AUG-CC-PVTZ
  Basis Set: (AUG-CC-PVTZ AUX)
    Blend: AUG-CC-PVTZ-JKFIT

    Orbital Energies [Eh]
    ---------------------

    Doubly Occupied:

       1A    -20.595697     2A    -20.537922     3A    -11.333129
       4A    -11.318680     5A    -11.261378     6A    -11.260585
       7A    -11.250734     8A    -11.246387     9A    -11.242624
      10A    -11.233290    11A     -1.409926    12A     -1.367626
      13A     -1.167623    14A     -1.056946    15A     -1.023923
      16A     -0.994555    17A     -0.874438    18A     -0.845751
      19A     -0.763805    20A     -0.740899    21A     -0.683570
      22A     -0.667172    23A     -0.637194    24A     -0.617842
      25A     -0.608431    26A     -0.600049    27A     -0.588028
      28A     -0.575232    29A     -0.551598    30A     -0.534386
      31A     -0.516681    32A     -0.500119    33A     -0.480458
      34A     -0.410878    35A     -0.356288    36A     -0.330823

  @DF-RHF Final Energy:  -457.48120716912479

   => Energetics <=

    Nuclear Repulsion Energy =            495.7646955554769761
    One-Electron Energy =               -1606.1224675305202254
    Two-Electron Energy =                 652.8765648059185196
    Total Energy =                       -457.4812071691247866
  Basis Set: (AUG-CC-PVTZ AUX)
    Blend: AUG-CC-PVTZ-RI
    Molecular point group: c1

    Geometry (in Angstrom), charge = 0, multiplicity = 1:

       Center              X                  Y                   Z               Mass
    ------------   -----------------  -----------------  -----------------  -----------------
         O           -0.014374141717     2.136531721836     0.231488777364    15.994914619570
         O            2.256767858283     0.870829721836    -0.578442222636    15.994914619570
         C            0.212048858283    -0.226368278164    -0.027997222636    12.000000000000
         C           -0.609340141717     0.913598721836     0.093090777364    12.000000000000
         C           -0.403285141717    -1.483009278164    -0.129630222636    12.000000000000
         C            1.703831858283    -0.111201278164    -0.087477222636    12.000000000000
         C           -1.957592141717     0.750519221836     0.110305877364    12.000000000000
         C           -1.789724141717    -1.622167278164    -0.126359222636    12.000000000000
         C           -2.589758141717    -0.485908278164    -0.005641222636    12.000000000000
         C            2.517865858283    -1.262401278164     0.472717777364    12.000000000000
         H            0.216702858283    -2.370374278164    -0.224256222636     1.007825032230
         H           -2.627349141717     1.657646721836     0.215592777364     1.007825032230
         H           -2.240797141717    -2.606141278164    -0.219689222636     1.007825032230
         H           -3.673490141717    -0.573303278164     0.004217777364     1.007825032230
         H            2.152373858283    -1.565443278164     1.457658777364     1.007825032230
         H            3.558106858283    -0.940381278164     0.538385777364     1.007825032230
         H            2.464327858283    -2.133717278164    -0.188136222636     1.007825032230
         H           -0.718536141717     2.797348721836     0.362376777364     1.007825032230

  Basis Set: AUG-CC-PVTZ
    Blend: AUG-CC-PVTZ
  Basis Set: (AUG-CC-PVTZ AUX)
    Blend: AUG-CC-PVTZ-JKFIT
	 Reference Energy          =    -457.4812071691247866 [Eh]
	 Singles Energy            =      -0.0000000000000000 [Eh]
	 Same-Spin Energy          =      -0.4784885716529597 [Eh]
	 Opposite-Spin Energy      =      -1.4738892663294934 [Eh]
	 Correlation Energy        =      -1.9523778379824530 [Eh]
	 Total Energy              =    -459.4335850071072400 [Eh]

	 ================> DF-SCS-MP2 Energies <==================
	-----------------------------------------------------------
	 SCS Same-Spin Scale       =       0.3333333333333333 [-]
	 SCS Opposite-Spin Scale   =       1.2000000000000000 [-]
	 SCS Same-Spin Energy      =      -0.1594961905509865 [Eh]
	 SCS Opposite-Spin Energy  =      -1.7686671195953920 [Eh]
	 SCS Correlation Energy    =      -1.9281633101463787 [Eh]
	 SCS Total Energy          =    -459.4093704792711605 [Eh]
	-----------------------------------------------------------

  Dipole Moment: [D]
     X:    -2.9485      Y:    -1.5664      Z:     1.2104     Total:     3.5514

*** Psi4 exiting successfully. Buy a developer a beer!
