                               Psi4 1.4a3.dev225

  ==> Input File <==

--------------------------------------------------------------------------
#psi4
#
memory 32 gb

molecule  {
0 1
  O       -0.0048250     2.1741760     0.2178480
  O        2.2663170     0.9084740    -0.5920830
  C        0.2215980    -0.1887240    -0.0416380
  C       -0.6114397     0.9674096     0.0811672
  C       -0.3937360    -1.4453650    -0.1432710
  C        1.7133810    -0.0735570    -0.1011180
  C       -1.9917600     0.8092840     0.0995930
  C       -1.7801750    -1.5845230    -0.1400000
  C       -2.5802090    -0.4482640    -0.0192820
  C        2.5274150    -1.2247570     0.4590770
  H        0.2262520    -2.3327300    -0.2378970
  H       -2.6178000     1.6952910     0.2019520
  H       -2.2312480    -2.5684970    -0.2333300
  H       -3.6639410    -0.5356590    -0.0094230
  H        2.1619230    -1.5277990     1.4440180
  H        3.5676560    -0.9027370     0.5247450
  H        2.4738770    -2.0960730    -0.2017770
  H       -0.7089870     2.8349930     0.3487360
units angstrom
no_reorient  #important for SAPT in psi4, default
symmetry c1  #important for SAPT in psi4, default
}

set PROPERTIES_ORIGIN ["COM"]
properties('MP2/aug-cc-pvtz', properties = ['dipole'])
--------------------------------------------------------------------------

    Molecular point group: c1
  Charge       = 0
  Multiplicity = 1
  Basis Set: AUG-CC-PVTZ
    Blend: AUG-CC-PVTZ
  Basis Set: (AUG-CC-PVTZ AUX)
    Blend: AUG-CC-PVTZ-JKFIT

    Orbital Energies [Eh]
    ---------------------

    Doubly Occupied:

       1A    -20.599697     2A    -20.537111     3A    -11.332751
       4A    -11.325476     5A    -11.261299     6A    -11.260888
       7A    -11.251119     8A    -11.245807     9A    -11.241286
      10A    -11.233006    11A     -1.416503    12A     -1.367211
      13A     -1.162308    14A     -1.056229    15A     -1.019567
      16A     -0.993627    17A     -0.871710    18A     -0.847722
      19A     -0.763591    20A     -0.742179    21A     -0.681844
      22A     -0.669266    23A     -0.634985    24A     -0.621429
      25A     -0.611407    26A     -0.600694    27A     -0.589247
      28A     -0.576326    29A     -0.551227    30A     -0.533385
      31A     -0.518809    32A     -0.499542    33A     -0.479757
      34A     -0.410259    35A     -0.356423    36A     -0.325738

  @DF-RHF Final Energy:  -457.48362820768000

   => Energetics <=

    Nuclear Repulsion Energy =            494.6908764830470204
    One-Electron Energy =               -1603.9701661361596052
    Two-Electron Energy =                 651.7956614454325290
    Total Energy =                       -457.4836282076799989
  Basis Set: (AUG-CC-PVTZ AUX)
    Blend: AUG-CC-PVTZ-RI
    Molecular point group: c1

    Geometry (in Angstrom), charge = 0, multiplicity = 1:

       Center              X                  Y                   Z               Mass
    ------------   -----------------  -----------------  -----------------  -----------------
         O           -0.009490815469     2.133242951458     0.231079073545    15.994914619570
         O            2.261651184531     0.867540951458    -0.578851926455    15.994914619570
         C            0.216932184531    -0.229657048542    -0.028406926455    12.000000000000
         C           -0.616105515469     0.926476551458     0.094398273545    12.000000000000
         C           -0.398401815469    -1.486298048542    -0.130039926455    12.000000000000
         C            1.708715184531    -0.114490048542    -0.087886926455    12.000000000000
         C           -1.996425815469     0.768350951458     0.112824073545    12.000000000000
         C           -1.784840815469    -1.625456048542    -0.126768926455    12.000000000000
         C           -2.584874815469    -0.489197048542    -0.006050926455    12.000000000000
         C            2.522749184531    -1.265690048542     0.472308073545    12.000000000000
         H            0.221586184531    -2.373663048542    -0.224665926455     1.007825032230
         H           -2.622465815469     1.654357951458     0.215183073545     1.007825032230
         H           -2.235913815469    -2.609430048542    -0.220098926455     1.007825032230
         H           -3.668606815469    -0.576592048542     0.003808073545     1.007825032230
         H            2.157257184531    -1.568732048542     1.457249073545     1.007825032230
         H            3.562990184531    -0.943670048542     0.537976073545     1.007825032230
         H            2.469211184531    -2.137006048542    -0.188545926455     1.007825032230
         H           -0.713652815469     2.794059951458     0.361967073545     1.007825032230

  Basis Set: AUG-CC-PVTZ
    Blend: AUG-CC-PVTZ
  Basis Set: (AUG-CC-PVTZ AUX)
    Blend: AUG-CC-PVTZ-JKFIT
	 Reference Energy          =    -457.4836282076799989 [Eh]
	 Singles Energy            =      -0.0000000000000000 [Eh]
	 Same-Spin Energy          =      -0.4783175825557515 [Eh]
	 Opposite-Spin Energy      =      -1.4737226490748339 [Eh]
	 Correlation Energy        =      -1.9520402316305854 [Eh]
	 Total Energy              =    -459.4356684393105752 [Eh]

	 ================> DF-SCS-MP2 Energies <==================
	-----------------------------------------------------------
	 SCS Same-Spin Scale       =       0.3333333333333333 [-]
	 SCS Opposite-Spin Scale   =       1.2000000000000000 [-]
	 SCS Same-Spin Energy      =      -0.1594391941852505 [Eh]
	 SCS Opposite-Spin Energy  =      -1.7684671788898005 [Eh]
	 SCS Correlation Energy    =      -1.9279063730750510 [Eh]
	 SCS Total Energy          =    -459.4115345807550739 [Eh]
	-----------------------------------------------------------

  Dipole Moment: [D]
     X:    -2.9205      Y:    -1.4300      Z:     1.2276     Total:     3.4758

*** Psi4 exiting successfully. Buy a developer a beer!
