                               Psi4 1.4a3.dev225

  ==> Input File <==

--------------------------------------------------------------------------
#psi4
#
memory 32 gb

molecule  {
0 1
  O       -0.0048250     2.1741760     0.2178480
  O        2.2663170     0.9084740    -0.5920830
  C        0.1995076    -0.1782618    -0.0402019
  C       -0.5997910     0.9512430     0.0794500
  C       -0.3937360    -1.4453650    -0.1432710
  C        1.7133810    -0.0735570    -0.1011180
  C       -1.9917600     0.8092840     0.0995930
  C       -1.7801750    -1.5845230    -0.1400000
  C       -2.5802090    -0.4482640    -0.0192820
  C        2.5274150    -1.2247570     0.4590770
  H        0.2262520    -2.3327300    -0.2378970
  H       -2.6178000     1.6952910     0.2019520
  H       -2.2312480    -2.5684970    -0.2333300
  H       -3.6639410    -0.5356590    -0.0094230
  H        2.1619230    -1.5277990     1.4440180
  H        3.5676560    -0.9027370     0.5247450
  H        2.4738770    -2.0960730    -0.2017770
  H       -0.7089870     2.8349930     0.3487360
units angstrom
no_reorient  #important for SAPT in psi4, default
symmetry c1  #important for SAPT in psi4, default
}

set PROPERTIES_ORIGIN ["COM"]
properties('MP2/aug-cc-pvtz', properties = ['dipole'])
--------------------------------------------------------------------------

    Molecular point group: c1
  Charge       = 0
  Multiplicity = 1
  Basis Set: AUG-CC-PVTZ
    Blend: AUG-CC-PVTZ
  Basis Set: (AUG-CC-PVTZ AUX)
    Blend: AUG-CC-PVTZ-JKFIT

    Orbital Energies [Eh]
    ---------------------

    Doubly Occupied:

       1A    -20.596299     2A    -20.538110     3A    -11.334557
       4A    -11.321214     5A    -11.260333     6A    -11.259981
       7A    -11.248821     8A    -11.247505     9A    -11.241769
      10A    -11.234150    11A     -1.410235    12A     -1.367420
      13A     -1.164917    14A     -1.055156    15A     -1.020503
      16A     -0.995815    17A     -0.869432    18A     -0.847769
      19A     -0.762743    20A     -0.740437    21A     -0.680346
      22A     -0.668919    23A     -0.637915    24A     -0.621677
      25A     -0.611065    26A     -0.599645    27A     -0.587905
      28A     -0.575044    29A     -0.551178    30A     -0.531156
      31A     -0.522039    32A     -0.500021    33A     -0.480397
      34A     -0.409159    35A     -0.355822    36A     -0.328831

  @DF-RHF Final Energy:  -457.48388174300425

   => Energetics <=

    Nuclear Repulsion Energy =            494.9439518140571295
    One-Electron Energy =               -1604.4991016915548698
    Two-Electron Energy =                 652.0712681344936072
    Total Energy =                       -457.4838817430041900
  Basis Set: (AUG-CC-PVTZ AUX)
    Blend: AUG-CC-PVTZ-RI
    Molecular point group: c1

    Geometry (in Angstrom), charge = 0, multiplicity = 1:

       Center              X                  Y                   Z               Mass
    ------------   -----------------  -----------------  -----------------  -----------------
         O           -0.008569844044     2.133746086906     0.231103866928    15.994914619570
         O            2.262572155956     0.868044086906    -0.578827133072    15.994914619570
         C            0.195762755956    -0.218691713094    -0.026946033072    12.000000000000
         C           -0.603535844044     0.910813086906     0.092705866928    12.000000000000
         C           -0.397480844044    -1.485794913094    -0.130015133072    12.000000000000
         C            1.709636155956    -0.113986913094    -0.087862133072    12.000000000000
         C           -1.995504844044     0.768854086906     0.112848866928    12.000000000000
         C           -1.783919844044    -1.624952913094    -0.126744133072    12.000000000000
         C           -2.583953844044    -0.488693913094    -0.006026133072    12.000000000000
         C            2.523670155956    -1.265186913094     0.472332866928    12.000000000000
         H            0.222507155956    -2.373159913094    -0.224641133072     1.007825032230
         H           -2.621544844044     1.654861086906     0.215207866928     1.007825032230
         H           -2.234992844044    -2.608926913094    -0.220074133072     1.007825032230
         H           -3.667685844044    -0.576088913094     0.003832866928     1.007825032230
         H            2.158178155956    -1.568228913094     1.457273866928     1.007825032230
         H            3.563911155956    -0.943166913094     0.538000866928     1.007825032230
         H            2.470132155956    -2.136502913094    -0.188521133072     1.007825032230
         H           -0.712731844044     2.794563086906     0.361991866928     1.007825032230

  Basis Set: AUG-CC-PVTZ
    Blend: AUG-CC-PVTZ
  Basis Set: (AUG-CC-PVTZ AUX)
    Blend: AUG-CC-PVTZ-JKFIT
	 Reference Energy          =    -457.4838817430042468 [Eh]
	 Singles Energy            =      -0.0000000000000000 [Eh]
	 Same-Spin Energy          =      -0.4781614156191160 [Eh]
	 Opposite-Spin Energy      =      -1.4735372174235370 [Eh]
	 Correlation Energy        =      -1.9516986330426531 [Eh]
	 Total Energy              =    -459.4355803760469144 [Eh]

	 ================> DF-SCS-MP2 Energies <==================
	-----------------------------------------------------------
	 SCS Same-Spin Scale       =       0.3333333333333333 [-]
	 SCS Opposite-Spin Scale   =       1.2000000000000000 [-]
	 SCS Same-Spin Energy      =      -0.1593871385397053 [Eh]
	 SCS Opposite-Spin Energy  =      -1.7682446609082445 [Eh]
	 SCS Correlation Energy    =      -1.9276317994479499 [Eh]
	 SCS Total Energy          =    -459.4115135424522123 [Eh]
	-----------------------------------------------------------

  Dipole Moment: [D]
     X:    -2.8769      Y:    -1.5150      Z:     1.2184     Total:     3.4722

*** Psi4 exiting successfully. Buy a developer a beer!
