                               Psi4 1.4a3.dev225

  ==> Input File <==

--------------------------------------------------------------------------
#psi4
#
memory 32 gb

molecule  {
0 1
  O       -0.0048250     2.1741760     0.2178480
  O        2.2663170     0.9084740    -0.5920830
  C        0.2215980    -0.1887240    -0.0416380
  C       -0.5997910     0.9512430     0.0794500
  C       -0.3937360    -1.4453650    -0.1432710
  C        1.7133810    -0.0735570    -0.1011180
  C       -2.0361939     0.8288724     0.1023760
  C       -1.7801750    -1.5845230    -0.1400000
  C       -2.5802090    -0.4482640    -0.0192820
  C        2.5274150    -1.2247570     0.4590770
  H        0.2262520    -2.3327300    -0.2378970
  H       -2.6178000     1.6952910     0.2019520
  H       -2.2312480    -2.5684970    -0.2333300
  H       -3.6639410    -0.5356590    -0.0094230
  H        2.1619230    -1.5277990     1.4440180
  H        3.5676560    -0.9027370     0.5247450
  H        2.4738770    -2.0960730    -0.2017770
  H       -0.7089870     2.8349930     0.3487360
units angstrom
no_reorient  #important for SAPT in psi4, default
symmetry c1  #important for SAPT in psi4, default
}

set PROPERTIES_ORIGIN ["COM"]
properties('MP2/aug-cc-pvtz', properties = ['dipole'])
--------------------------------------------------------------------------

    Molecular point group: c1
  Charge       = 0
  Multiplicity = 1
  Basis Set: AUG-CC-PVTZ
    Blend: AUG-CC-PVTZ
  Basis Set: (AUG-CC-PVTZ AUX)
    Blend: AUG-CC-PVTZ-JKFIT

    Orbital Energies [Eh]
    ---------------------

    Doubly Occupied:

       1A    -20.598703     2A    -20.537228     3A    -11.333167
       4A    -11.330493     5A    -11.261886     6A    -11.261270
       7A    -11.249053     8A    -11.248697     9A    -11.241153
      10A    -11.233398    11A     -1.411658    12A     -1.367253
      13A     -1.160242    14A     -1.057550    15A     -1.015408
      16A     -0.995162    17A     -0.869243    18A     -0.849576
      19A     -0.765032    20A     -0.739804    21A     -0.679597
      22A     -0.671615    23A     -0.637562    24A     -0.626813
      25A     -0.611608    26A     -0.599122    27A     -0.587269
      28A     -0.575270    29A     -0.551370    30A     -0.533674
      31A     -0.518359    32A     -0.499442    33A     -0.479516
      34A     -0.410237    35A     -0.357216    36A     -0.323800

  @DF-RHF Final Energy:  -457.48092511394231

   => Energetics <=

    Nuclear Repulsion Energy =            493.9267605894204394
    One-Electron Energy =               -1602.4384811749332584
    Two-Electron Energy =                 651.0307954715705137
    Total Energy =                       -457.4809251139423623
  Basis Set: (AUG-CC-PVTZ AUX)
    Blend: AUG-CC-PVTZ-RI
    Molecular point group: c1

    Geometry (in Angstrom), charge = 0, multiplicity = 1:

       Center              X                  Y                   Z               Mass
    ------------   -----------------  -----------------  -----------------  -----------------
         O           -0.006599118486     2.132941144279     0.230985068608    15.994914619570
         O            2.264542881514     0.867239144279    -0.578945931392    15.994914619570
         C            0.219823881514    -0.229958855721    -0.028500931392    12.000000000000
         C           -0.601565118486     0.910008144279     0.092587068608    12.000000000000
         C           -0.395510118486    -1.486599855721    -0.130133931392    12.000000000000
         C            1.711606881514    -0.114791855721    -0.087980931392    12.000000000000
         C           -2.037968018486     0.787637544279     0.115513068608    12.000000000000
         C           -1.781949118486    -1.625757855721    -0.126862931392    12.000000000000
         C           -2.581983118486    -0.489498855721    -0.006144931392    12.000000000000
         C            2.525640881514    -1.265991855721     0.472214068608    12.000000000000
         H            0.224477881514    -2.373964855721    -0.224759931392     1.007825032230
         H           -2.619574118486     1.654056144279     0.215089068608     1.007825032230
         H           -2.233022118486    -2.609731855721    -0.220192931392     1.007825032230
         H           -3.665715118486    -0.576893855721     0.003714068608     1.007825032230
         H            2.160148881514    -1.569033855721     1.457155068608     1.007825032230
         H            3.565881881514    -0.943971855721     0.537882068608     1.007825032230
         H            2.472102881514    -2.137307855721    -0.188639931392     1.007825032230
         H           -0.710761118486     2.793758144279     0.361873068608     1.007825032230

  Basis Set: AUG-CC-PVTZ
    Blend: AUG-CC-PVTZ
  Basis Set: (AUG-CC-PVTZ AUX)
    Blend: AUG-CC-PVTZ-JKFIT
	 Reference Energy          =    -457.4809251139423054 [Eh]
	 Singles Energy            =      -0.0000000000000000 [Eh]
	 Same-Spin Energy          =      -0.4781226497399147 [Eh]
	 Opposite-Spin Energy      =      -1.4738910853850435 [Eh]
	 Correlation Energy        =      -1.9520137351249582 [Eh]
	 Total Energy              =    -459.4329388490672841 [Eh]

	 ================> DF-SCS-MP2 Energies <==================
	-----------------------------------------------------------
	 SCS Same-Spin Scale       =       0.3333333333333333 [-]
	 SCS Opposite-Spin Scale   =       1.2000000000000000 [-]
	 SCS Same-Spin Energy      =      -0.1593742165799716 [Eh]
	 SCS Opposite-Spin Energy  =      -1.7686693024620521 [Eh]
	 SCS Correlation Energy    =      -1.9280435190420238 [Eh]
	 SCS Total Energy          =    -459.4089686329843403 [Eh]
	-----------------------------------------------------------

  Dipole Moment: [D]
     X:    -2.9098      Y:    -1.4282      Z:     1.2267     Total:     3.4658

*** Psi4 exiting successfully. Buy a developer a beer!
