                               Psi4 1.4a3.dev225

  ==> Input File <==

--------------------------------------------------------------------------
#psi4
#
memory 32 gb

molecule  {
0 1
  O       -0.0048250     2.1741760     0.2178480
  O        2.2663170     0.9084740    -0.5920830
  C        0.2215980    -0.1887240    -0.0416380
  C       -0.6776329     0.8909983     0.0785724
  C       -0.3937360    -1.4453650    -0.1432710
  C        1.7133810    -0.0735570    -0.1011180
  C       -1.9917600     0.8092840     0.0995930
  C       -1.7801750    -1.5845230    -0.1400000
  C       -2.5802090    -0.4482640    -0.0192820
  C        2.5274150    -1.2247570     0.4590770
  H        0.2262520    -2.3327300    -0.2378970
  H       -2.6178000     1.6952910     0.2019520
  H       -2.2312480    -2.5684970    -0.2333300
  H       -3.6639410    -0.5356590    -0.0094230
  H        2.1619230    -1.5277990     1.4440180
  H        3.5676560    -0.9027370     0.5247450
  H        2.4738770    -2.0960730    -0.2017770
  H       -0.7089870     2.8349930     0.3487360
units angstrom
no_reorient  #important for SAPT in psi4, default
symmetry c1  #important for SAPT in psi4, default
}

set PROPERTIES_ORIGIN ["COM"]
properties('MP2/aug-cc-pvtz', properties = ['dipole'])
--------------------------------------------------------------------------

    Molecular point group: c1
  Charge       = 0
  Multiplicity = 1
  Basis Set: AUG-CC-PVTZ
    Blend: AUG-CC-PVTZ
  Basis Set: (AUG-CC-PVTZ AUX)
    Blend: AUG-CC-PVTZ-JKFIT

    Orbital Energies [Eh]
    ---------------------

    Doubly Occupied:

       1A    -20.580633     2A    -20.539486     3A    -11.336435
       4A    -11.314965     5A    -11.264103     6A    -11.263293
       7A    -11.255069     8A    -11.246226     9A    -11.242512
      10A    -11.235488    11A     -1.375345    12A     -1.361480
      13A     -1.175195    14A     -1.063871    15A     -1.029156
      16A     -0.996636    17A     -0.878231    18A     -0.840691
      19A     -0.771021    20A     -0.724056    21A     -0.679513
      22A     -0.662109    23A     -0.640161    24A     -0.621489
      25A     -0.608863    26A     -0.596920    27A     -0.575381
      28A     -0.572041    29A     -0.550663    30A     -0.533566
      31A     -0.520897    32A     -0.497917    33A     -0.481433
      34A     -0.414251    35A     -0.362332    36A     -0.337642

  @DF-RHF Final Energy:  -457.47048329523045

   => Energetics <=

    Nuclear Repulsion Energy =            494.9120269942475829
    One-Electron Energy =               -1604.4668834974113452
    Two-Electron Energy =                 652.0843732079333677
    Total Energy =                       -457.4704832952304514
  Basis Set: (AUG-CC-PVTZ AUX)
    Blend: AUG-CC-PVTZ-RI
    Molecular point group: c1

    Geometry (in Angstrom), charge = 0, multiplicity = 1:

       Center              X                  Y                   Z               Mass
    ------------   -----------------  -----------------  -----------------  -----------------
         O           -0.003652489738     2.139982526807     0.231307938256    15.994914619570
         O            2.267489510262     0.874280526807    -0.578623061744    15.994914619570
         C            0.222770510262    -0.222917473193    -0.028178061744    12.000000000000
         C           -0.676460389738     0.856804826807     0.092032338256    12.000000000000
         C           -0.392563489738    -1.479558473193    -0.129811061744    12.000000000000
         C            1.714553510262    -0.107750473193    -0.087658061744    12.000000000000
         C           -1.990587489738     0.775090526807     0.113052938256    12.000000000000
         C           -1.779002489738    -1.618716473193    -0.126540061744    12.000000000000
         C           -2.579036489738    -0.482457473193    -0.005822061744    12.000000000000
         C            2.528587510262    -1.258950473193     0.472536938256    12.000000000000
         H            0.227424510262    -2.366923473193    -0.224437061744     1.007825032230
         H           -2.616627489738     1.661097526807     0.215411938256     1.007825032230
         H           -2.230075489738    -2.602690473193    -0.219870061744     1.007825032230
         H           -3.662768489738    -0.569852473193     0.004036938256     1.007825032230
         H            2.163095510262    -1.561992473193     1.457477938256     1.007825032230
         H            3.568828510262    -0.936930473193     0.538204938256     1.007825032230
         H            2.475049510262    -2.130266473193    -0.188317061744     1.007825032230
         H           -0.707814489738     2.800799526807     0.362195938256     1.007825032230

  Basis Set: AUG-CC-PVTZ
    Blend: AUG-CC-PVTZ
  Basis Set: (AUG-CC-PVTZ AUX)
    Blend: AUG-CC-PVTZ-JKFIT
	 Reference Energy          =    -457.4704832952304514 [Eh]
	 Singles Energy            =      -0.0000000000000000 [Eh]
	 Same-Spin Energy          =      -0.4785604227239062 [Eh]
	 Opposite-Spin Energy      =      -1.4756058818878954 [Eh]
	 Correlation Energy        =      -1.9541663046118016 [Eh]
	 Total Energy              =    -459.4246495998422688 [Eh]

	 ================> DF-SCS-MP2 Energies <==================
	-----------------------------------------------------------
	 SCS Same-Spin Scale       =       0.3333333333333333 [-]
	 SCS Opposite-Spin Scale   =       1.2000000000000000 [-]
	 SCS Same-Spin Energy      =      -0.1595201409079687 [Eh]
	 SCS Opposite-Spin Energy  =      -1.7707270582654744 [Eh]
	 SCS Correlation Energy    =      -1.9302471991734431 [Eh]
	 SCS Total Energy          =    -459.4007304944038879 [Eh]
	-----------------------------------------------------------

  Dipole Moment: [D]
     X:    -3.0774      Y:    -2.0072      Z:     1.1597     Total:     3.8528

*** Psi4 exiting successfully. Buy a developer a beer!
