                               Psi4 1.4a3.dev225

  ==> Input File <==

--------------------------------------------------------------------------
#psi4
#
memory 32 gb

molecule  {
0 1
  O       -0.0048250     2.1741760     0.2178480
  O        2.2663170     0.9084740    -0.5920830
  C        0.2215980    -0.1887240    -0.0416380
  C       -0.5997910     0.9512430     0.0794500
  C       -0.3937360    -1.4453650    -0.1432710
  C        1.7133810    -0.0735570    -0.1011180
  C       -1.9917600     0.8092840     0.0995930
  C       -1.7671599    -1.6804307    -0.1495682
  C       -2.5802090    -0.4482640    -0.0192820
  C        2.5274150    -1.2247570     0.4590770
  H        0.2262520    -2.3327300    -0.2378970
  H       -2.6178000     1.6952910     0.2019520
  H       -2.2312480    -2.5684970    -0.2333300
  H       -3.6639410    -0.5356590    -0.0094230
  H        2.1619230    -1.5277990     1.4440180
  H        3.5676560    -0.9027370     0.5247450
  H        2.4738770    -2.0960730    -0.2017770
  H       -0.7089870     2.8349930     0.3487360
units angstrom
no_reorient  #important for SAPT in psi4, default
symmetry c1  #important for SAPT in psi4, default
}

set PROPERTIES_ORIGIN ["COM"]
properties('MP2/aug-cc-pvtz', properties = ['dipole'])
--------------------------------------------------------------------------

    Molecular point group: c1
  Charge       = 0
  Multiplicity = 1
  Basis Set: AUG-CC-PVTZ
    Blend: AUG-CC-PVTZ
  Basis Set: (AUG-CC-PVTZ AUX)
    Blend: AUG-CC-PVTZ-JKFIT

    Orbital Energies [Eh]
    ---------------------

    Doubly Occupied:

       1A    -20.599947     2A    -20.536275     3A    -11.332608
       4A    -11.328184     5A    -11.271820     6A    -11.261582
       7A    -11.249725     8A    -11.248416     9A    -11.244073
      10A    -11.232209    11A     -1.413088    12A     -1.366485
      13A     -1.156724    14A     -1.052993    15A     -1.021131
      16A     -0.992674    17A     -0.866777    18A     -0.851406
      19A     -0.771116    20A     -0.739871    21A     -0.685048
      22A     -0.670190    23A     -0.632666    24A     -0.621118
      25A     -0.611930    26A     -0.605117    27A     -0.587669
      28A     -0.575868    29A     -0.554357    30A     -0.541533
      31A     -0.507540    32A     -0.495757    33A     -0.476283
      34A     -0.410073    35A     -0.357749    36A     -0.323636

  @DF-RHF Final Energy:  -457.47132354574939

   => Energetics <=

    Nuclear Repulsion Energy =            493.3858822781515414
    One-Electron Energy =               -1601.3271349776368879
    Two-Electron Energy =                 650.4699291537360750
    Total Energy =                       -457.4713235457493283
  Basis Set: (AUG-CC-PVTZ AUX)
    Blend: AUG-CC-PVTZ-RI
    Molecular point group: c1

    Geometry (in Angstrom), charge = 0, multiplicity = 1:

       Center              X                  Y                   Z               Mass
    ------------   -----------------  -----------------  -----------------  -----------------
         O           -0.011666194484     2.143128049468     0.232074460401    15.994914619570
         O            2.259475805516     0.877426049468    -0.577856539599    15.994914619570
         C            0.214756805516    -0.219771950532    -0.027411539599    12.000000000000
         C           -0.606632194484     0.920195049468     0.093676460401    12.000000000000
         C           -0.400577194484    -1.476412950532    -0.129044539599    12.000000000000
         C            1.706539805516    -0.104604950532    -0.086891539599    12.000000000000
         C           -1.998601194484     0.778236049468     0.113819460401    12.000000000000
         C           -1.774001094484    -1.711478650532    -0.135341739599    12.000000000000
         C           -2.587050194484    -0.479311950532    -0.005055539599    12.000000000000
         C            2.520573805516    -1.255804950532     0.473303460401    12.000000000000
         H            0.219410805516    -2.363777950532    -0.223670539599     1.007825032230
         H           -2.624641194484     1.664243049468     0.216178460401     1.007825032230
         H           -2.238089194484    -2.599544950532    -0.219103539599     1.007825032230
         H           -3.670782194484    -0.566706950532     0.004803460401     1.007825032230
         H            2.155081805516    -1.558846950532     1.458244460401     1.007825032230
         H            3.560814805516    -0.933784950532     0.538971460401     1.007825032230
         H            2.467035805516    -2.127120950532    -0.187550539599     1.007825032230
         H           -0.715828194484     2.803945049468     0.362962460401     1.007825032230

  Basis Set: AUG-CC-PVTZ
    Blend: AUG-CC-PVTZ
  Basis Set: (AUG-CC-PVTZ AUX)
    Blend: AUG-CC-PVTZ-JKFIT
	 Reference Energy          =    -457.4713235457493852 [Eh]
	 Singles Energy            =      -0.0000000000000000 [Eh]
	 Same-Spin Energy          =      -0.4781102472043846 [Eh]
	 Opposite-Spin Energy      =      -1.4745809341230096 [Eh]
	 Correlation Energy        =      -1.9526911813273942 [Eh]
	 Total Energy              =    -459.4240147270767807 [Eh]

	 ================> DF-SCS-MP2 Energies <==================
	-----------------------------------------------------------
	 SCS Same-Spin Scale       =       0.3333333333333333 [-]
	 SCS Opposite-Spin Scale   =       1.2000000000000000 [-]
	 SCS Same-Spin Energy      =      -0.1593700824014615 [Eh]
	 SCS Opposite-Spin Energy  =      -1.7694971209476116 [Eh]
	 SCS Correlation Energy    =      -1.9288672033490730 [Eh]
	 SCS Total Energy          =    -459.4001907490984422 [Eh]
	-----------------------------------------------------------

  Dipole Moment: [D]
     X:    -2.9734      Y:    -1.4629      Z:     1.2205     Total:     3.5314

*** Psi4 exiting successfully. Buy a developer a beer!
