                               Psi4 1.4a3.dev225

  ==> Input File <==

--------------------------------------------------------------------------
#psi4
#
memory 32 gb

molecule  {
0 1
  O       -0.0048250     2.1741760     0.2178480
  O        2.2663170     0.9084740    -0.5920830
  C        0.2215980    -0.1887240    -0.0416380
  C       -0.5997910     0.9512430     0.0794500
  C       -0.3937360    -1.4453650    -0.1432710
  C        1.6700343    -0.1037907    -0.0977571
  C       -1.9917600     0.8092840     0.0995930
  C       -1.7801750    -1.5845230    -0.1400000
  C       -2.5802090    -0.4482640    -0.0192820
  C        2.5274150    -1.2247570     0.4590770
  H        0.2262520    -2.3327300    -0.2378970
  H       -2.6178000     1.6952910     0.2019520
  H       -2.2312480    -2.5684970    -0.2333300
  H       -3.6639410    -0.5356590    -0.0094230
  H        2.1619230    -1.5277990     1.4440180
  H        3.5676560    -0.9027370     0.5247450
  H        2.4738770    -2.0960730    -0.2017770
  H       -0.7089870     2.8349930     0.3487360
units angstrom
no_reorient  #important for SAPT in psi4, default
symmetry c1  #important for SAPT in psi4, default
}

set PROPERTIES_ORIGIN ["COM"]
properties('MP2/aug-cc-pvtz', properties = ['dipole'])
--------------------------------------------------------------------------

    Molecular point group: c1
  Charge       = 0
  Multiplicity = 1
  Basis Set: AUG-CC-PVTZ
    Blend: AUG-CC-PVTZ
  Basis Set: (AUG-CC-PVTZ AUX)
    Blend: AUG-CC-PVTZ-JKFIT

    Orbital Energies [Eh]
    ---------------------

    Doubly Occupied:

       1A    -20.598924     2A    -20.531906     3A    -11.333642
       4A    -11.328937     5A    -11.264855     6A    -11.264588
       7A    -11.250566     8A    -11.249872     9A    -11.244041
      10A    -11.234183    11A     -1.412061    12A     -1.336946
      13A     -1.167657    14A     -1.063964    15A     -1.022266
      16A     -0.994655    17A     -0.878239    18A     -0.852762
      19A     -0.768091    20A     -0.742542    21A     -0.681184
      22A     -0.668780    23A     -0.636343    24A     -0.621159
      25A     -0.609970    26A     -0.596177    27A     -0.586714
      28A     -0.571725    29A     -0.552903    30A     -0.530529
      31A     -0.522303    32A     -0.500003    33A     -0.466165
      34A     -0.411887    35A     -0.358329    36A     -0.329534

  @DF-RHF Final Energy:  -457.47507192506214

   => Energetics <=

    Nuclear Repulsion Energy =            494.9481515378415111
    One-Electron Energy =               -1604.4776414231355375
    Two-Electron Energy =                 652.0544179602318309
    Total Energy =                       -457.4750719250621387
  Basis Set: (AUG-CC-PVTZ AUX)
    Blend: AUG-CC-PVTZ-RI
    Molecular point group: c1

    Geometry (in Angstrom), charge = 0, multiplicity = 1:

       Center              X                  Y                   Z               Mass
    ------------   -----------------  -----------------  -----------------  -----------------
         O           -0.006695010930     2.137335517846     0.230934097082    15.994914619570
         O            2.264446989070     0.871633517846    -0.578996902918    15.994914619570
         C            0.219727989070    -0.225564482154    -0.028551902918    12.000000000000
         C           -0.601661010930     0.914402517846     0.092536097082    12.000000000000
         C           -0.395606010930    -1.482205482154    -0.130184902918    12.000000000000
         C            1.668164289070    -0.140631182154    -0.084671002918    12.000000000000
         C           -1.993630010930     0.772443517846     0.112679097082    12.000000000000
         C           -1.782045010930    -1.621363482154    -0.126913902918    12.000000000000
         C           -2.582079010930    -0.485104482154    -0.006195902918    12.000000000000
         C            2.525544989070    -1.261597482154     0.472163097082    12.000000000000
         H            0.224381989070    -2.369570482154    -0.224810902918     1.007825032230
         H           -2.619670010930     1.658450517846     0.215038097082     1.007825032230
         H           -2.233118010930    -2.605337482154    -0.220243902918     1.007825032230
         H           -3.665811010930    -0.572499482154     0.003663097082     1.007825032230
         H            2.160052989070    -1.564639482154     1.457104097082     1.007825032230
         H            3.565785989070    -0.939577482154     0.537831097082     1.007825032230
         H            2.472006989070    -2.132913482154    -0.188690902918     1.007825032230
         H           -0.710857010930     2.798152517846     0.361822097082     1.007825032230

  Basis Set: AUG-CC-PVTZ
    Blend: AUG-CC-PVTZ
  Basis Set: (AUG-CC-PVTZ AUX)
    Blend: AUG-CC-PVTZ-JKFIT
	 Reference Energy          =    -457.4750719250621387 [Eh]
	 Singles Energy            =      -0.0000000000000000 [Eh]
	 Same-Spin Energy          =      -0.4798336959855655 [Eh]
	 Opposite-Spin Energy      =      -1.4769997310365111 [Eh]
	 Correlation Energy        =      -1.9568334270220764 [Eh]
	 Total Energy              =    -459.4319053520842431 [Eh]

	 ================> DF-SCS-MP2 Energies <==================
	-----------------------------------------------------------
	 SCS Same-Spin Scale       =       0.3333333333333333 [-]
	 SCS Opposite-Spin Scale   =       1.2000000000000000 [-]
	 SCS Same-Spin Energy      =      -0.1599445653285218 [Eh]
	 SCS Opposite-Spin Energy  =      -1.7723996772438133 [Eh]
	 SCS Correlation Energy    =      -1.9323442425723352 [Eh]
	 SCS Total Energy          =    -459.4074161676344943 [Eh]
	-----------------------------------------------------------

  Dipole Moment: [D]
     X:    -3.2332      Y:    -1.5664      Z:     1.2683     Total:     3.8100

*** Psi4 exiting successfully. Buy a developer a beer!
