                               Psi4 1.4a3.dev225

  ==> Input File <==

--------------------------------------------------------------------------
#psi4
#
memory 32 gb

molecule  {
0 1
  O       -0.0048250     2.1741760     0.2178480
  O        2.2663170     0.9084740    -0.5920830
  C        0.2215980    -0.1887240    -0.0416380
  C       -0.5997910     0.9512430     0.0794500
  C       -0.3937360    -1.4453650    -0.1432710
  C        1.7133810    -0.0735570    -0.1011180
  C       -1.9917600     0.8092840     0.0995930
  C       -1.7801750    -1.5845230    -0.1400000
  C       -2.5802090    -0.4482640    -0.0192820
  C        2.5274150    -1.2247570     0.4590770
  H        0.2262520    -2.3327300    -0.2378970
  H       -2.6178000     1.6952910     0.2019520
  H       -2.2312480    -2.5684970    -0.2333300
  H       -3.6639410    -0.5356590    -0.0094230
  H        2.1619230    -1.5277990     1.4440180
  H        3.6153332    -0.8879779     0.5277547
  H        2.4738770    -2.0960730    -0.2017770
  H       -0.7089870     2.8349930     0.3487360
units angstrom
no_reorient  #important for SAPT in psi4, default
symmetry c1  #important for SAPT in psi4, default
}

set PROPERTIES_ORIGIN ["COM"]
properties('MP2/aug-cc-pvtz', properties = ['dipole'])
--------------------------------------------------------------------------

    Molecular point group: c1
  Charge       = 0
  Multiplicity = 1
  Basis Set: AUG-CC-PVTZ
    Blend: AUG-CC-PVTZ
  Basis Set: (AUG-CC-PVTZ AUX)
    Blend: AUG-CC-PVTZ-JKFIT

    Orbital Energies [Eh]
    ---------------------

    Doubly Occupied:

       1A    -20.597308     2A    -20.537543     3A    -11.333408
       4A    -11.324940     5A    -11.261414     6A    -11.261336
       7A    -11.250189     8A    -11.247627     9A    -11.241981
      10A    -11.238820    11A     -1.410924    12A     -1.367370
      13A     -1.163846    14A     -1.057108    15A     -1.019429
      16A     -0.991841    17A     -0.871050    18A     -0.847522
      19A     -0.763268    20A     -0.740664    21A     -0.681107
      22A     -0.669509    23A     -0.636443    24A     -0.621592
      25A     -0.610180    26A     -0.599548    27A     -0.587859
      28A     -0.575245    29A     -0.543564    30A     -0.531049
      31A     -0.520498    32A     -0.500001    33A     -0.479956
      34A     -0.410843    35A     -0.356670    36A     -0.327450

  @DF-RHF Final Energy:  -457.48192486871380

   => Energetics <=

    Nuclear Repulsion Energy =            494.6071058803179881
    One-Electron Energy =               -1603.8198610137917512
    Two-Electron Energy =                 651.7308302647600158
    Total Energy =                       -457.4819248687138042
  Basis Set: (AUG-CC-PVTZ AUX)
    Blend: AUG-CC-PVTZ-RI
    Molecular point group: c1

    Geometry (in Angstrom), charge = 0, multiplicity = 1:

       Center              X                  Y                   Z               Mass
    ------------   -----------------  -----------------  -----------------  -----------------
         O           -0.010871420552     2.134559536618     0.231208238082    15.994914619570
         O            2.260270579448     0.868857536618    -0.578722761918    15.994914619570
         C            0.215551579448    -0.228340463382    -0.028277761918    12.000000000000
         C           -0.605837420552     0.911626536618     0.092810238082    12.000000000000
         C           -0.399782420552    -1.484981463382    -0.129910761918    12.000000000000
         C            1.707334579448    -0.113173463382    -0.087757761918    12.000000000000
         C           -1.997806420552     0.769667536618     0.112953238082    12.000000000000
         C           -1.786221420552    -1.624139463382    -0.126639761918    12.000000000000
         C           -2.586255420552    -0.487880463382    -0.005921761918    12.000000000000
         C            2.521368579448    -1.264373463382     0.472437238082    12.000000000000
         H            0.220205579448    -2.372346463382    -0.224536761918     1.007825032230
         H           -2.623846420552     1.655674536618     0.215312238082     1.007825032230
         H           -2.237294420552    -2.608113463382    -0.219969761918     1.007825032230
         H           -3.669987420552    -0.575275463382     0.003937238082     1.007825032230
         H            2.155876579448    -1.567415463382     1.457378238082     1.007825032230
         H            3.609286779448    -0.927594363382     0.541114938082     1.007825032230
         H            2.467830579448    -2.135689463382    -0.188416761918     1.007825032230
         H           -0.715033420552     2.795376536618     0.362096238082     1.007825032230

  Basis Set: AUG-CC-PVTZ
    Blend: AUG-CC-PVTZ
  Basis Set: (AUG-CC-PVTZ AUX)
    Blend: AUG-CC-PVTZ-JKFIT
	 Reference Energy          =    -457.4819248687138042 [Eh]
	 Singles Energy            =      -0.0000000000000000 [Eh]
	 Same-Spin Energy          =      -0.4783101748884421 [Eh]
	 Opposite-Spin Energy      =      -1.4741211505400384 [Eh]
	 Correlation Energy        =      -1.9524313254284804 [Eh]
	 Total Energy              =    -459.4343561941423104 [Eh]

	 ================> DF-SCS-MP2 Energies <==================
	-----------------------------------------------------------
	 SCS Same-Spin Scale       =       0.3333333333333333 [-]
	 SCS Opposite-Spin Scale   =       1.2000000000000000 [-]
	 SCS Same-Spin Energy      =      -0.1594367249628140 [Eh]
	 SCS Opposite-Spin Energy  =      -1.7689453806480462 [Eh]
	 SCS Correlation Energy    =      -1.9283821056108601 [Eh]
	 SCS Total Energy          =    -459.4103069743246692 [Eh]
	-----------------------------------------------------------

  Dipole Moment: [D]
     X:    -2.9516      Y:    -1.4862      Z:     1.2148     Total:     3.5208

*** Psi4 exiting successfully. Buy a developer a beer!
