                               Psi4 1.4a3.dev225

  ==> Input File <==

--------------------------------------------------------------------------
#psi4
#
memory 32 gb

molecule  {
0 1
  O       -0.0048250     2.1741760     0.2178480
  O        2.2663170     0.9084740    -0.5920830
  C        0.2215980    -0.1887240    -0.0416380
  C       -0.5997910     0.9512430     0.0794500
  C       -0.3937360    -1.4453650    -0.1432710
  C        1.7133810    -0.0735570    -0.1011180
  C       -1.9917600     0.8092840     0.0995930
  C       -1.7801750    -1.5845230    -0.1400000
  C       -2.5802090    -0.4482640    -0.0192820
  C        2.5274150    -1.2247570     0.4590770
  H        0.2262520    -2.3327300    -0.2378970
  H       -2.6178000     1.6952910     0.2019520
  H       -2.2312480    -2.5684970    -0.2333300
  H       -3.6639410    -0.5356590    -0.0094230
  H        2.1619230    -1.5277990     1.4440180
  H        3.5676560    -0.9027370     0.5247450
  H        2.4738770    -2.0960730    -0.2017770
  H       -0.5644698     2.6993716     0.3218735
units angstrom
no_reorient  #important for SAPT in psi4, default
symmetry c1  #important for SAPT in psi4, default
}

set PROPERTIES_ORIGIN ["COM"]
properties('MP2/aug-cc-pvtz', properties = ['dipole'])
--------------------------------------------------------------------------

    Molecular point group: c1
  Charge       = 0
  Multiplicity = 1
  Basis Set: AUG-CC-PVTZ
    Blend: AUG-CC-PVTZ
  Basis Set: (AUG-CC-PVTZ AUX)
    Blend: AUG-CC-PVTZ-JKFIT

    Orbital Energies [Eh]
    ---------------------

    Doubly Occupied:

       1A    -20.576671     2A    -20.538504     3A    -11.334075
       4A    -11.326623     5A    -11.262298     6A    -11.262094
       7A    -11.251361     8A    -11.249363     9A    -11.243467
      10A    -11.234091    11A     -1.468471    12A     -1.369211
      13A     -1.168188    14A     -1.058733    15A     -1.028461
      16A     -0.996932    17A     -0.875488    18A     -0.867557
      19A     -0.770845    20A     -0.762798    21A     -0.684966
      22A     -0.672172    23A     -0.640901    24A     -0.624230
      25A     -0.613502    26A     -0.604205    27A     -0.591959
      28A     -0.582684    29A     -0.552966    30A     -0.534226
      31A     -0.523143    32A     -0.502576    33A     -0.481273
      34A     -0.411855    35A     -0.357489    36A     -0.330108

  @DF-RHF Final Energy:  -457.43903933188284

   => Energetics <=

    Nuclear Repulsion Energy =            496.3551378056036469
    One-Electron Energy =               -1606.8813796295792145
    Two-Electron Energy =                 653.0872024920927288
    Total Energy =                       -457.4390393318828956
  Basis Set: (AUG-CC-PVTZ AUX)
    Blend: AUG-CC-PVTZ-RI
    Molecular point group: c1

    Geometry (in Angstrom), charge = 0, multiplicity = 1:

       Center              X                  Y                   Z               Mass
    ------------   -----------------  -----------------  -----------------  -----------------
         O           -0.011588774711     2.135673498587     0.231429520061    15.994914619570
         O            2.259553225289     0.869971498587    -0.578501479939    15.994914619570
         C            0.214834225289    -0.227226501413    -0.028056479939    12.000000000000
         C           -0.606554774711     0.912740498587     0.093031520061    12.000000000000
         C           -0.400499774711    -1.483867501413    -0.129689479939    12.000000000000
         C            1.706617225289    -0.112059501413    -0.087536479939    12.000000000000
         C           -1.998523774711     0.770781498587     0.113174520061    12.000000000000
         C           -1.786938774711    -1.623025501413    -0.126418479939    12.000000000000
         C           -2.586972774711    -0.486766501413    -0.005700479939    12.000000000000
         C            2.520651225289    -1.263259501413     0.472658520061    12.000000000000
         H            0.219488225289    -2.371232501413    -0.224315479939     1.007825032230
         H           -2.624563774711     1.656788498587     0.215533520061     1.007825032230
         H           -2.238011774711    -2.606999501413    -0.219748479939     1.007825032230
         H           -3.670704774711    -0.574161501413     0.004158520061     1.007825032230
         H            2.155159225289    -1.566301501413     1.457599520061     1.007825032230
         H            3.560892225289    -0.941239501413     0.538326520061     1.007825032230
         H            2.467113225289    -2.134575501413    -0.188195479939     1.007825032230
         H           -0.571233574711     2.660869098587     0.335455020061     1.007825032230

  Basis Set: AUG-CC-PVTZ
    Blend: AUG-CC-PVTZ
  Basis Set: (AUG-CC-PVTZ AUX)
    Blend: AUG-CC-PVTZ-JKFIT
	 Reference Energy          =    -457.4390393318828387 [Eh]
	 Singles Energy            =      -0.0000000000000000 [Eh]
	 Same-Spin Energy          =      -0.4757544539603547 [Eh]
	 Opposite-Spin Energy      =      -1.4679964480655037 [Eh]
	 Correlation Energy        =      -1.9437509020258583 [Eh]
	 Total Energy              =    -459.3827902339086791 [Eh]

	 ================> DF-SCS-MP2 Energies <==================
	-----------------------------------------------------------
	 SCS Same-Spin Scale       =       0.3333333333333333 [-]
	 SCS Opposite-Spin Scale   =       1.2000000000000000 [-]
	 SCS Same-Spin Energy      =      -0.1585848179867849 [Eh]
	 SCS Opposite-Spin Energy  =      -1.7615957376786044 [Eh]
	 SCS Correlation Energy    =      -1.9201805556653893 [Eh]
	 SCS Total Energy          =    -459.3592198875482495 [Eh]
	-----------------------------------------------------------

  Dipole Moment: [D]
     X:    -2.8584      Y:    -1.7219      Z:     1.1855     Total:     3.5413

*** Psi4 exiting successfully. Buy a developer a beer!
