                               Psi4 1.4a3.dev225

  ==> Input File <==

--------------------------------------------------------------------------
#psi4
#
memory 32 gb

molecule  {
0 1
  O       -0.0048250     2.1741760     0.2178480
  O        2.2663170     0.9084740    -0.5920830
  C        0.2215980    -0.1887240    -0.0416380
  C       -0.5997910     0.9512430     0.0794500
  C       -0.3937360    -1.4453650    -0.1432710
  C        1.7133810    -0.0735570    -0.1011180
  C       -1.8629720     0.7414308     0.0903894
  C       -1.7801750    -1.5845230    -0.1400000
  C       -2.5802090    -0.4482640    -0.0192820
  C        2.5274150    -1.2247570     0.4590770
  H        0.2262520    -2.3327300    -0.2378970
  H       -2.6178000     1.6952910     0.2019520
  H       -2.2312480    -2.5684970    -0.2333300
  H       -3.6639410    -0.5356590    -0.0094230
  H        2.1619230    -1.5277990     1.4440180
  H        3.5676560    -0.9027370     0.5247450
  H        2.4738770    -2.0960730    -0.2017770
  H       -0.7089870     2.8349930     0.3487360
units angstrom
no_reorient  #important for SAPT in psi4, default
symmetry c1  #important for SAPT in psi4, default
}

set PROPERTIES_ORIGIN ["COM"]
properties('MP2/aug-cc-pvtz', properties = ['dipole'])
--------------------------------------------------------------------------

    Molecular point group: c1
  Charge       = 0
  Multiplicity = 1
  Basis Set: AUG-CC-PVTZ
    Blend: AUG-CC-PVTZ
  Basis Set: (AUG-CC-PVTZ AUX)
    Blend: AUG-CC-PVTZ-JKFIT

    Orbital Energies [Eh]
    ---------------------

    Doubly Occupied:

       1A    -20.593106     2A    -20.538861     3A    -11.333317
       4A    -11.306485     5A    -11.262760     6A    -11.259796
       7A    -11.252990     8A    -11.245002     9A    -11.244815
      10A    -11.233399    11A     -1.408345    12A     -1.368216
      13A     -1.177612    14A     -1.056746    15A     -1.035527
      16A     -0.993991    17A     -0.882080    18A     -0.840916
      19A     -0.764899    20A     -0.741210    21A     -0.690135
      22A     -0.664237    23A     -0.637388    24A     -0.616896
      25A     -0.602401    26A     -0.601168    27A     -0.589267
      28A     -0.573377    29A     -0.554149    30A     -0.540102
      31A     -0.505962    32A     -0.494549    33A     -0.479795
      34A     -0.411236    35A     -0.358208    36A     -0.337334

  @DF-RHF Final Energy:  -457.45659577496491

   => Energetics <=

    Nuclear Repulsion Energy =            497.6970636741746148
    One-Electron Energy =               -1609.9147656913366973
    Two-Electron Energy =                 654.7611062421972292
    Total Energy =                       -457.4565957749648533
  Basis Set: (AUG-CC-PVTZ AUX)
    Blend: AUG-CC-PVTZ-RI
    Molecular point group: c1

    Geometry (in Angstrom), charge = 0, multiplicity = 1:

       Center              X                  Y                   Z               Mass
    ------------   -----------------  -----------------  -----------------  -----------------
         O           -0.021877513790     2.140653606334     0.232042302210    15.994914619570
         O            2.249264486210     0.874951606334    -0.577888697790    15.994914619570
         C            0.204545486210    -0.222246393666    -0.027443697790    12.000000000000
         C           -0.616843513790     0.917720606334     0.093644302210    12.000000000000
         C           -0.410788513790    -1.478887393666    -0.129076697790    12.000000000000
         C            1.696328486210    -0.107079393666    -0.086923697790    12.000000000000
         C           -1.880024513790     0.707908406334     0.104583702210    12.000000000000
         C           -1.797227513790    -1.618045393666    -0.125805697790    12.000000000000
         C           -2.597261513790    -0.481786393666    -0.005087697790    12.000000000000
         C            2.510362486210    -1.258279393666     0.473271302210    12.000000000000
         H            0.209199486210    -2.366252393666    -0.223702697790     1.007825032230
         H           -2.634852513790     1.661768606334     0.216146302210     1.007825032230
         H           -2.248300513790    -2.602019393666    -0.219135697790     1.007825032230
         H           -3.680993513790    -0.569181393666     0.004771302210     1.007825032230
         H            2.144870486210    -1.561321393666     1.458212302210     1.007825032230
         H            3.550603486210    -0.936259393666     0.538939302210     1.007825032230
         H            2.456824486210    -2.129595393666    -0.187582697790     1.007825032230
         H           -0.726039513790     2.801470606334     0.362930302210     1.007825032230

  Basis Set: AUG-CC-PVTZ
    Blend: AUG-CC-PVTZ
  Basis Set: (AUG-CC-PVTZ AUX)
    Blend: AUG-CC-PVTZ-JKFIT
	 Reference Energy          =    -457.4565957749649101 [Eh]
	 Singles Energy            =      -0.0000000000000000 [Eh]
	 Same-Spin Energy          =      -0.4790866953762897 [Eh]
	 Opposite-Spin Energy      =      -1.4750200632131143 [Eh]
	 Correlation Energy        =      -1.9541067585894041 [Eh]
	 Total Energy              =    -459.4107025335542858 [Eh]

	 ================> DF-SCS-MP2 Energies <==================
	-----------------------------------------------------------
	 SCS Same-Spin Scale       =       0.3333333333333333 [-]
	 SCS Opposite-Spin Scale   =       1.2000000000000000 [-]
	 SCS Same-Spin Energy      =      -0.1596955651254299 [Eh]
	 SCS Opposite-Spin Energy  =      -1.7700240758557371 [Eh]
	 SCS Correlation Energy    =      -1.9297196409811670 [Eh]
	 SCS Total Energy          =    -459.3863154159460578 [Eh]
	-----------------------------------------------------------

  Dipole Moment: [D]
     X:    -2.9633      Y:    -1.7498      Z:     1.1886     Total:     3.6408

*** Psi4 exiting successfully. Buy a developer a beer!
