                               Psi4 1.4a3.dev225

  ==> Input File <==

--------------------------------------------------------------------------
#psi4
#
memory 32 gb

molecule  {
0 1
  O       -0.0048250     2.1741760     0.2178480
  O        2.2663170     0.9084740    -0.5920830
  C        0.2215980    -0.1887240    -0.0416380
  C       -0.5997910     0.9512430     0.0794500
  C       -0.3937360    -1.4453650    -0.1432710
  C        1.7133810    -0.0735570    -0.1011180
  C       -1.9917600     0.8092840     0.0995930
  C       -1.7801750    -1.5845230    -0.1400000
  C       -2.5802090    -0.4482640    -0.0192820
  C        2.5274150    -1.2247570     0.4590770
  H        0.2262520    -2.3327300    -0.2378970
  H       -2.6178000     1.6952910     0.2019520
  H       -2.2312480    -2.5684970    -0.2333300
  H       -3.6639410    -0.5356590    -0.0094230
  H        2.1619230    -1.5277990     1.4440180
  H        3.5676560    -0.9027370     0.5247450
  H        2.4738770    -2.0960730    -0.2017770
  H       -0.6945353     2.8214309     0.3460497
units angstrom
no_reorient  #important for SAPT in psi4, default
symmetry c1  #important for SAPT in psi4, default
}

set PROPERTIES_ORIGIN ["COM"]
properties('MP2/aug-cc-pvtz', properties = ['dipole'])
--------------------------------------------------------------------------

    Molecular point group: c1
  Charge       = 0
  Multiplicity = 1
  Basis Set: AUG-CC-PVTZ
    Blend: AUG-CC-PVTZ
  Basis Set: (AUG-CC-PVTZ AUX)
    Blend: AUG-CC-PVTZ-JKFIT

    Orbital Energies [Eh]
    ---------------------

    Doubly Occupied:

       1A    -20.595489     2A    -20.537634     3A    -11.333213
       4A    -11.324893     5A    -11.261275     6A    -11.261246
       7A    -11.249963     8A    -11.247618     9A    -11.241952
      10A    -11.233393    11A     -1.414977    12A     -1.367636
      13A     -1.164018    14A     -1.057330    15A     -1.019940
      16A     -0.995071    17A     -0.871452    18A     -0.849629
      19A     -0.764255    20A     -0.743365    21A     -0.681450
      22A     -0.669656    23A     -0.637686    24A     -0.621726
      25A     -0.610929    26A     -0.599975    27A     -0.587991
      28A     -0.576368    29A     -0.551433    30A     -0.532233
      31A     -0.521134    32A     -0.500076    33A     -0.480124
      34A     -0.410711    35A     -0.356581    36A     -0.327531

  @DF-RHF Final Energy:  -457.48510668446272

   => Energetics <=

    Nuclear Repulsion Energy =            494.9628929672500135
    One-Electron Energy =               -1604.4960938391809577
    Two-Electron Energy =                 652.0480941874683367
    Total Energy =                       -457.4851066844627212
  Basis Set: (AUG-CC-PVTZ AUX)
    Blend: AUG-CC-PVTZ-RI
    Molecular point group: c1

    Geometry (in Angstrom), charge = 0, multiplicity = 1:

       Center              X                  Y                   Z               Mass
    ------------   -----------------  -----------------  -----------------  -----------------
         O           -0.010625298592     2.134769329375     0.231250431899    15.994914619570
         O            2.260516701408     0.869067329375    -0.578680568101    15.994914619570
         C            0.215797701408    -0.228130670625    -0.028235568101    12.000000000000
         C           -0.605591298592     0.911836329375     0.092852431899    12.000000000000
         C           -0.399536298592    -1.484771670625    -0.129868568101    12.000000000000
         C            1.707580701408    -0.112963670625    -0.087715568101    12.000000000000
         C           -1.997560298592     0.769877329375     0.112995431899    12.000000000000
         C           -1.785975298592    -1.623929670625    -0.126597568101    12.000000000000
         C           -2.586009298592    -0.487670670625    -0.005879568101    12.000000000000
         C            2.521614701408    -1.264163670625     0.472479431899    12.000000000000
         H            0.220451701408    -2.372136670625    -0.224494568101     1.007825032230
         H           -2.623600298592     1.655884329375     0.215354431899     1.007825032230
         H           -2.237048298592    -2.607903670625    -0.219927568101     1.007825032230
         H           -3.669741298592    -0.575065670625     0.003979431899     1.007825032230
         H            2.156122701408    -1.567205670625     1.457420431899     1.007825032230
         H            3.561855701408    -0.942143670625     0.538147431899     1.007825032230
         H            2.468076701408    -2.135479670625    -0.188374568101     1.007825032230
         H           -0.700335598592     2.782024229375     0.359452131899     1.007825032230

  Basis Set: AUG-CC-PVTZ
    Blend: AUG-CC-PVTZ
  Basis Set: (AUG-CC-PVTZ AUX)
    Blend: AUG-CC-PVTZ-JKFIT
	 Reference Energy          =    -457.4851066844627212 [Eh]
	 Singles Energy            =      -0.0000000000000000 [Eh]
	 Same-Spin Energy          =      -0.4780160737917932 [Eh]
	 Opposite-Spin Energy      =      -1.4730984884952485 [Eh]
	 Correlation Energy        =      -1.9511145622870416 [Eh]
	 Total Energy              =    -459.4362212467497670 [Eh]

	 ================> DF-SCS-MP2 Energies <==================
	-----------------------------------------------------------
	 SCS Same-Spin Scale       =       0.3333333333333333 [-]
	 SCS Opposite-Spin Scale   =       1.2000000000000000 [-]
	 SCS Same-Spin Energy      =      -0.1593386912639310 [Eh]
	 SCS Opposite-Spin Energy  =      -1.7677181861942981 [Eh]
	 SCS Correlation Energy    =      -1.9270568774582291 [Eh]
	 SCS Total Energy          =    -459.4121635619209769 [Eh]
	-----------------------------------------------------------

  Dipole Moment: [D]
     X:    -2.9233      Y:    -1.5128      Z:     1.2161     Total:     3.5090

*** Psi4 exiting successfully. Buy a developer a beer!
