                               Psi4 1.4a3.dev225

  ==> Input File <==

--------------------------------------------------------------------------
#psi4
#
memory 32 gb

molecule  {
0 1
  O       -0.0048250     2.1741760     0.2178480
  O        2.2663170     0.9084740    -0.5920830
  C        0.2215980    -0.1887240    -0.0416380
  C       -0.5997910     0.9512430     0.0794500
  C       -0.3937360    -1.4453650    -0.1432710
  C        1.7133810    -0.0735570    -0.1011180
  C       -1.9917600     0.8092840     0.0995930
  C       -1.7801750    -1.5845230    -0.1400000
  C       -2.5802090    -0.4482640    -0.0192820
  C        2.5274150    -1.2247570     0.4590770
  H        0.2262520    -2.3327300    -0.2378970
  H       -2.6178000     1.6952910     0.2019520
  H       -2.2312480    -2.5684970    -0.2333300
  H       -3.6639410    -0.5356590    -0.0094230
  H        2.1619230    -1.5277990     1.4440180
  H        3.6630103    -0.8732188     0.5307645
  H        2.4738770    -2.0960730    -0.2017770
  H       -0.7089870     2.8349930     0.3487360
units angstrom
no_reorient  #important for SAPT in psi4, default
symmetry c1  #important for SAPT in psi4, default
}

set PROPERTIES_ORIGIN ["COM"]
properties('MP2/aug-cc-pvtz', properties = ['dipole'])
--------------------------------------------------------------------------

    Molecular point group: c1
  Charge       = 0
  Multiplicity = 1
  Basis Set: AUG-CC-PVTZ
    Blend: AUG-CC-PVTZ
  Basis Set: (AUG-CC-PVTZ AUX)
    Blend: AUG-CC-PVTZ-JKFIT

    Orbital Energies [Eh]
    ---------------------

    Doubly Occupied:

       1A    -20.597460     2A    -20.537570     3A    -11.333735
       4A    -11.325183     5A    -11.261676     6A    -11.261539
       7A    -11.250573     8A    -11.247827     9A    -11.244120
      10A    -11.242183    11A     -1.411076    12A     -1.367352
      13A     -1.164081    14A     -1.057132    15A     -1.019641
      16A     -0.989369    17A     -0.870927    18A     -0.847148
      19A     -0.762634    20A     -0.740863    21A     -0.681282
      22A     -0.669676    23A     -0.635848    24A     -0.621813
      25A     -0.609880    26A     -0.599639    27A     -0.588177
      28A     -0.575207    29A     -0.538160    30A     -0.528330
      31A     -0.519132    32A     -0.500191    33A     -0.479881
      34A     -0.411129    35A     -0.356870    36A     -0.327646

  @DF-RHF Final Energy:  -457.47731200793316

   => Energetics <=

    Nuclear Repulsion Energy =            494.3935849392019577
    One-Electron Energy =               -1603.3918926151075084
    Two-Electron Energy =                 651.5209956679724428
    Total Energy =                       -457.4773120079331648
  Basis Set: (AUG-CC-PVTZ AUX)
    Blend: AUG-CC-PVTZ-RI
    Molecular point group: c1

    Geometry (in Angstrom), charge = 0, multiplicity = 1:

       Center              X                  Y                   Z               Mass
    ------------   -----------------  -----------------  -----------------  -----------------
         O           -0.011224594508     2.134450206777     0.231185942619    15.994914619570
         O            2.259917405492     0.868748206777    -0.578745057381    15.994914619570
         C            0.215198405492    -0.228449793223    -0.028300057381    12.000000000000
         C           -0.606190594508     0.911517206777     0.092787942619    12.000000000000
         C           -0.400135594508    -1.485090793223    -0.129933057381    12.000000000000
         C            1.706981405492    -0.113282793223    -0.087780057381    12.000000000000
         C           -1.998159594508     0.769558206777     0.112930942619    12.000000000000
         C           -1.786574594508    -1.624248793223    -0.126662057381    12.000000000000
         C           -2.586608594508    -0.487989793223    -0.005944057381    12.000000000000
         C            2.521015405492    -1.264482793223     0.472414942619    12.000000000000
         H            0.219852405492    -2.372455793223    -0.224559057381     1.007825032230
         H           -2.624199594508     1.655565206777     0.215289942619     1.007825032230
         H           -2.237647594508    -2.608222793223    -0.219992057381     1.007825032230
         H           -3.670340594508    -0.575384793223     0.003914942619     1.007825032230
         H            2.155523405492    -1.567524793223     1.457355942619     1.007825032230
         H            3.656610705492    -0.912944593223     0.544102442619     1.007825032230
         H            2.467477405492    -2.135798793223    -0.188439057381     1.007825032230
         H           -0.715386594508     2.795267206777     0.362073942619     1.007825032230

  Basis Set: AUG-CC-PVTZ
    Blend: AUG-CC-PVTZ
  Basis Set: (AUG-CC-PVTZ AUX)
    Blend: AUG-CC-PVTZ-JKFIT
	 Reference Energy          =    -457.4773120079331648 [Eh]
	 Singles Energy            =      -0.0000000000000000 [Eh]
	 Same-Spin Energy          =      -0.4783491071879283 [Eh]
	 Opposite-Spin Energy      =      -1.4745601771400931 [Eh]
	 Correlation Energy        =      -1.9529092843280216 [Eh]
	 Total Energy              =    -459.4302212922611943 [Eh]

	 ================> DF-SCS-MP2 Energies <==================
	-----------------------------------------------------------
	 SCS Same-Spin Scale       =       0.3333333333333333 [-]
	 SCS Opposite-Spin Scale   =       1.2000000000000000 [-]
	 SCS Same-Spin Energy      =      -0.1594497023959761 [Eh]
	 SCS Opposite-Spin Energy  =      -1.7694722125681117 [Eh]
	 SCS Correlation Energy    =      -1.9289219149640877 [Eh]
	 SCS Total Energy          =    -459.4062339228972291 [Eh]
	-----------------------------------------------------------

  Dipole Moment: [D]
     X:    -2.9754      Y:    -1.4800      Z:     1.2097     Total:     3.5365

*** Psi4 exiting successfully. Buy a developer a beer!
