                               Psi4 1.4a3.dev225

  ==> Input File <==

--------------------------------------------------------------------------
#psi4
#
memory 32 gb

molecule  {
0 1
  O       -0.0048250     2.1741760     0.2178480
  O        2.2663170     0.9084740    -0.5920830
  C        0.2215980    -0.1887240    -0.0416380
  C       -0.5997910     0.9512430     0.0794500
  C       -0.3937360    -1.4453650    -0.1432710
  C        1.7133810    -0.0735570    -0.1011180
  C       -1.9917600     0.8092840     0.0995930
  C       -1.7801750    -1.5845230    -0.1400000
  C       -2.5802090    -0.4482640    -0.0192820
  C        2.5274150    -1.2247570     0.4590770
  H        0.2262520    -2.3327300    -0.2378970
  H       -2.6178000     1.6952910     0.2019520
  H       -2.2312480    -2.5684970    -0.2333300
  H       -3.6639410    -0.5356590    -0.0094230
  H        2.1821121    -1.4203660     1.4779149
  H        3.5676560    -0.9027370     0.5247450
  H        2.4738770    -2.0960730    -0.2017770
  H       -0.7089870     2.8349930     0.3487360
units angstrom
no_reorient  #important for SAPT in psi4, default
symmetry c1  #important for SAPT in psi4, default
}

set PROPERTIES_ORIGIN ["COM"]
properties('MP2/aug-cc-pvtz', properties = ['dipole'])
--------------------------------------------------------------------------

    Molecular point group: c1
  Charge       = 0
  Multiplicity = 1
  Basis Set: AUG-CC-PVTZ
    Blend: AUG-CC-PVTZ
  Basis Set: (AUG-CC-PVTZ AUX)
    Blend: AUG-CC-PVTZ-JKFIT

    Orbital Energies [Eh]
    ---------------------

    Doubly Occupied:

       1A    -20.597158     2A    -20.536876     3A    -11.332133
       4A    -11.324684     5A    -11.261120     6A    -11.261056
       7A    -11.249747     8A    -11.247386     9A    -11.241691
      10A    -11.233223    11A     -1.410760    12A     -1.366882
      13A     -1.163564    14A     -1.057230    15A     -1.019172
      16A     -0.995228    17A     -0.871034    18A     -0.847897
      19A     -0.763406    20A     -0.740262    21A     -0.680162
      22A     -0.668142    23A     -0.636207    24A     -0.621803
      25A     -0.612136    26A     -0.600889    27A     -0.591115
      28A     -0.575605    29A     -0.547401    30A     -0.530249
      31A     -0.520608    32A     -0.500885    33A     -0.480652
      34A     -0.409197    35A     -0.356410    36A     -0.327218

  @DF-RHF Final Energy:  -457.48303426571516

   => Energetics <=

    Nuclear Repulsion Energy =            494.8914172709572199
    One-Electron Energy =               -1604.3905197296453480
    Two-Electron Energy =                 652.0160681929730799
    Total Energy =                       -457.4830342657151050
  Basis Set: (AUG-CC-PVTZ AUX)
    Blend: AUG-CC-PVTZ-RI
    Molecular point group: c1

    Geometry (in Angstrom), charge = 0, multiplicity = 1:

       Center              X                  Y                   Z               Mass
    ------------   -----------------  -----------------  -----------------  -----------------
         O           -0.010667799085     2.133873043355     0.230979437365    15.994914619570
         O            2.260474200915     0.868171043355    -0.578951562635    15.994914619570
         C            0.215755200915    -0.229026956645    -0.028506562635    12.000000000000
         C           -0.605633799085     0.910940043355     0.092581437365    12.000000000000
         C           -0.399578799085    -1.485667956645    -0.130139562635    12.000000000000
         C            1.707538200915    -0.113859956645    -0.087986562635    12.000000000000
         C           -1.997602799085     0.768981043355     0.112724437365    12.000000000000
         C           -1.786017799085    -1.624825956645    -0.126868562635    12.000000000000
         C           -2.586051799085    -0.488566956645    -0.006150562635    12.000000000000
         C            2.521572200915    -1.265059956645     0.472208437365    12.000000000000
         H            0.220409200915    -2.373032956645    -0.224765562635     1.007825032230
         H           -2.623642799085     1.654988043355     0.215083437365     1.007825032230
         H           -2.237090799085    -2.608799956645    -0.220198562635     1.007825032230
         H           -3.669783799085    -0.575961956645     0.003708437365     1.007825032230
         H            2.176269300915    -1.460668956645     1.491046337365     1.007825032230
         H            3.561813200915    -0.943039956645     0.537876437365     1.007825032230
         H            2.468034200915    -2.136375956645    -0.188645562635     1.007825032230
         H           -0.714829799085     2.794690043355     0.361867437365     1.007825032230

  Basis Set: AUG-CC-PVTZ
    Blend: AUG-CC-PVTZ
  Basis Set: (AUG-CC-PVTZ AUX)
    Blend: AUG-CC-PVTZ-JKFIT
	 Reference Energy          =    -457.4830342657151618 [Eh]
	 Singles Energy            =      -0.0000000000000000 [Eh]
	 Same-Spin Energy          =      -0.4782825852288451 [Eh]
	 Opposite-Spin Energy      =      -1.4738149847546862 [Eh]
	 Correlation Energy        =      -1.9520975699835312 [Eh]
	 Total Energy              =    -459.4351318356987122 [Eh]

	 ================> DF-SCS-MP2 Energies <==================
	-----------------------------------------------------------
	 SCS Same-Spin Scale       =       0.3333333333333333 [-]
	 SCS Opposite-Spin Scale   =       1.2000000000000000 [-]
	 SCS Same-Spin Energy      =      -0.1594275284096150 [Eh]
	 SCS Opposite-Spin Energy  =      -1.7685779817056233 [Eh]
	 SCS Correlation Energy    =      -1.9280055101152382 [Eh]
	 SCS Total Energy          =    -459.4110397758303748 [Eh]
	-----------------------------------------------------------

  Dipole Moment: [D]
     X:    -2.9167      Y:    -1.4573      Z:     1.2229     Total:     3.4823

*** Psi4 exiting successfully. Buy a developer a beer!
