                               Psi4 1.4a3.dev225

  ==> Input File <==

--------------------------------------------------------------------------
#psi4
#
memory 32 gb

molecule  {
0 1
  O       -0.0048250     2.1741760     0.2178480
  O        2.2663170     0.9084740    -0.5920830
  C        0.2215980    -0.1887240    -0.0416380
  C       -0.5997910     0.9512430     0.0794500
  C       -0.3937360    -1.4453650    -0.1432710
  C        1.7133810    -0.0735570    -0.1011180
  C       -2.1270112     0.8634776     0.1063209
  C       -1.7801750    -1.5845230    -0.1400000
  C       -2.5802090    -0.4482640    -0.0192820
  C        2.5274150    -1.2247570     0.4590770
  H        0.2262520    -2.3327300    -0.2378970
  H       -2.6178000     1.6952910     0.2019520
  H       -2.2312480    -2.5684970    -0.2333300
  H       -3.6639410    -0.5356590    -0.0094230
  H        2.1619230    -1.5277990     1.4440180
  H        3.5676560    -0.9027370     0.5247450
  H        2.4738770    -2.0960730    -0.2017770
  H       -0.7089870     2.8349930     0.3487360
units angstrom
no_reorient  #important for SAPT in psi4, default
symmetry c1  #important for SAPT in psi4, default
}

set PROPERTIES_ORIGIN ["COM"]
properties('MP2/aug-cc-pvtz', properties = ['dipole'])
--------------------------------------------------------------------------

    Molecular point group: c1
  Charge       = 0
  Multiplicity = 1
  Basis Set: AUG-CC-PVTZ
    Blend: AUG-CC-PVTZ
  Basis Set: (AUG-CC-PVTZ AUX)
    Blend: AUG-CC-PVTZ-JKFIT

    Orbital Energies [Eh]
    ---------------------

    Doubly Occupied:

       1A    -20.601727     2A    -20.536640     3A    -11.340624
       4A    -11.333249     5A    -11.263634     6A    -11.262556
       7A    -11.251775     8A    -11.247651     9A    -11.240327
      10A    -11.233594    11A     -1.413243    12A     -1.366953
      13A     -1.154969    14A     -1.058524    15A     -1.010437
      16A     -0.995348    17A     -0.870937    18A     -0.849166
      19A     -0.769327    20A     -0.737908    21A     -0.685777
      22A     -0.670686    23A     -0.640114    24A     -0.635142
      25A     -0.612071    26A     -0.598427    27A     -0.586776
      28A     -0.574065    29A     -0.552593    30A     -0.539377
      31A     -0.503893    32A     -0.498739    33A     -0.478638
      34A     -0.409156    35A     -0.359741    36A     -0.317463

  @DF-RHF Final Energy:  -457.45646046573989

   => Energetics <=

    Nuclear Repulsion Energy =            492.1993058913768664
    One-Electron Energy =               -1598.9090459521171397
    Two-Electron Energy =                 649.2532795950005493
    Total Energy =                       -457.4564604657398377
  Basis Set: (AUG-CC-PVTZ AUX)
    Blend: AUG-CC-PVTZ-RI
    Molecular point group: c1

    Geometry (in Angstrom), charge = 0, multiplicity = 1:

       Center              X                  Y                   Z               Mass
    ------------   -----------------  -----------------  -----------------  -----------------
         O            0.001411084669     2.129888920944     0.230637123333    15.994914619570
         O            2.272553084669     0.864186920944    -0.579293876667    15.994914619570
         C            0.227834084669    -0.233011079056    -0.028848876667    12.000000000000
         C           -0.593554915331     0.906955920944     0.092239123333    12.000000000000
         C           -0.387499915331    -1.489652079056    -0.130481876667    12.000000000000
         C            1.719617084669    -0.117844079056    -0.088328876667    12.000000000000
         C           -2.120775115331     0.819190520944     0.119110023333    12.000000000000
         C           -1.773938915331    -1.628810079056    -0.127210876667    12.000000000000
         C           -2.573972915331    -0.492551079056    -0.006492876667    12.000000000000
         C            2.533651084669    -1.269044079056     0.471866123333    12.000000000000
         H            0.232488084669    -2.377017079056    -0.225107876667     1.007825032230
         H           -2.611563915331     1.651003920944     0.214741123333     1.007825032230
         H           -2.225011915331    -2.612784079056    -0.220540876667     1.007825032230
         H           -3.657704915331    -0.579946079056     0.003366123333     1.007825032230
         H            2.168159084669    -1.572086079056     1.456807123333     1.007825032230
         H            3.573892084669    -0.947024079056     0.537534123333     1.007825032230
         H            2.480113084669    -2.140360079056    -0.188987876667     1.007825032230
         H           -0.702750915331     2.790705920944     0.361525123333     1.007825032230

  Basis Set: AUG-CC-PVTZ
    Blend: AUG-CC-PVTZ
  Basis Set: (AUG-CC-PVTZ AUX)
    Blend: AUG-CC-PVTZ-JKFIT
	 Reference Energy          =    -457.4564604657398945 [Eh]
	 Singles Energy            =      -0.0000000000000000 [Eh]
	 Same-Spin Energy          =      -0.4779879926573344 [Eh]
	 Opposite-Spin Energy      =      -1.4751390961321622 [Eh]
	 Correlation Energy        =      -1.9531270887894965 [Eh]
	 Total Energy              =    -459.4095875545293666 [Eh]

	 ================> DF-SCS-MP2 Energies <==================
	-----------------------------------------------------------
	 SCS Same-Spin Scale       =       0.3333333333333333 [-]
	 SCS Opposite-Spin Scale   =       1.2000000000000000 [-]
	 SCS Same-Spin Energy      =      -0.1593293308857781 [Eh]
	 SCS Opposite-Spin Energy  =      -1.7701669153585946 [Eh]
	 SCS Correlation Energy    =      -1.9294962462443728 [Eh]
	 SCS Total Energy          =    -459.3859567119842495 [Eh]
	-----------------------------------------------------------

  Dipole Moment: [D]
     X:    -2.8606      Y:    -1.3274      Z:     1.2391     Total:     3.3882

*** Psi4 exiting successfully. Buy a developer a beer!
