                               Psi4 1.4a3.dev225

  ==> Input File <==

--------------------------------------------------------------------------
#psi4
#
memory 32 gb

molecule  {
0 1
  O       -0.0048250     2.1741760     0.2178480
  O        2.2663170     0.9084740    -0.5920830
  C        0.2215980    -0.1887240    -0.0416380
  C       -0.6196418     0.9366915     0.0792858
  C       -0.3937360    -1.4453650    -0.1432710
  C        1.7133810    -0.0735570    -0.1011180
  C       -1.9917600     0.8092840     0.0995930
  C       -1.7801750    -1.5845230    -0.1400000
  C       -2.5802090    -0.4482640    -0.0192820
  C        2.5274150    -1.2247570     0.4590770
  H        0.2262520    -2.3327300    -0.2378970
  H       -2.6178000     1.6952910     0.2019520
  H       -2.2312480    -2.5684970    -0.2333300
  H       -3.6639410    -0.5356590    -0.0094230
  H        2.1619230    -1.5277990     1.4440180
  H        3.5676560    -0.9027370     0.5247450
  H        2.4738770    -2.0960730    -0.2017770
  H       -0.7089870     2.8349930     0.3487360
units angstrom
no_reorient  #important for SAPT in psi4, default
symmetry c1  #important for SAPT in psi4, default
}

set PROPERTIES_ORIGIN ["COM"]
properties('MP2/aug-cc-pvtz', properties = ['dipole'])
--------------------------------------------------------------------------

    Molecular point group: c1
  Charge       = 0
  Multiplicity = 1
  Basis Set: AUG-CC-PVTZ
    Blend: AUG-CC-PVTZ
  Basis Set: (AUG-CC-PVTZ AUX)
    Blend: AUG-CC-PVTZ-JKFIT

    Orbital Energies [Eh]
    ---------------------

    Doubly Occupied:

       1A    -20.592980     2A    -20.538090     3A    -11.333992
       4A    -11.322138     5A    -11.261882     6A    -11.261689
       7A    -11.251161     8A    -11.246313     9A    -11.242984
      10A    -11.233894    11A     -1.399921    12A     -1.367311
      13A     -1.166333    14A     -1.058548    15A     -1.021904
      16A     -0.995336    17A     -0.872980    18A     -0.845852
      19A     -0.765677    20A     -0.735726    21A     -0.680625
      22A     -0.667097    23A     -0.637363    24A     -0.622056
      25A     -0.610061    26A     -0.598403    27A     -0.584272
      28A     -0.575138    29A     -0.551204    30A     -0.531594
      31A     -0.522837    32A     -0.499773    33A     -0.480482
      34A     -0.411617    35A     -0.357518    36A     -0.330236

  @DF-RHF Final Energy:  -457.48299394147290

   => Energetics <=

    Nuclear Repulsion Energy =            494.8309040505916983
    One-Electron Energy =               -1604.2778270063699892
    Two-Electron Energy =                 651.9639290143054495
    Total Energy =                       -457.4829939414728415
  Basis Set: (AUG-CC-PVTZ AUX)
    Blend: AUG-CC-PVTZ-RI
    Molecular point group: c1

    Geometry (in Angstrom), charge = 0, multiplicity = 1:

       Center              X                  Y                   Z               Mass
    ------------   -----------------  -----------------  -----------------  -----------------
         O           -0.008767379656     2.135952327552     0.231245015455    15.994914619570
         O            2.262374620344     0.870250327552    -0.578685984545    15.994914619570
         C            0.217655620344    -0.226947672448    -0.028240984545    12.000000000000
         C           -0.623584179656     0.898467827552     0.092682815455    12.000000000000
         C           -0.397678379656    -1.483588672448    -0.129873984545    12.000000000000
         C            1.709438620344    -0.111780672448    -0.087720984545    12.000000000000
         C           -1.995702379656     0.771060327552     0.112990015455    12.000000000000
         C           -1.784117379656    -1.622746672448    -0.126602984545    12.000000000000
         C           -2.584151379656    -0.486487672448    -0.005884984545    12.000000000000
         C            2.523472620344    -1.262980672448     0.472474015455    12.000000000000
         H            0.222309620344    -2.370953672448    -0.224499984545     1.007825032230
         H           -2.621742379656     1.657067327552     0.215349015455     1.007825032230
         H           -2.235190379656    -2.606720672448    -0.219932984545     1.007825032230
         H           -3.667883379656    -0.573882672448     0.003974015455     1.007825032230
         H            2.157980620344    -1.566022672448     1.457415015455     1.007825032230
         H            3.563713620344    -0.940960672448     0.538142015455     1.007825032230
         H            2.469934620344    -2.134296672448    -0.188379984545     1.007825032230
         H           -0.712929379656     2.796769327552     0.362133015455     1.007825032230

  Basis Set: AUG-CC-PVTZ
    Blend: AUG-CC-PVTZ
  Basis Set: (AUG-CC-PVTZ AUX)
    Blend: AUG-CC-PVTZ-JKFIT
	 Reference Energy          =    -457.4829939414728983 [Eh]
	 Singles Energy            =      -0.0000000000000000 [Eh]
	 Same-Spin Energy          =      -0.4783210128001470 [Eh]
	 Opposite-Spin Energy      =      -1.4741072448268930 [Eh]
	 Correlation Energy        =      -1.9524282576270400 [Eh]
	 Total Energy              =    -459.4354221990999463 [Eh]

	 ================> DF-SCS-MP2 Energies <==================
	-----------------------------------------------------------
	 SCS Same-Spin Scale       =       0.3333333333333333 [-]
	 SCS Opposite-Spin Scale   =       1.2000000000000000 [-]
	 SCS Same-Spin Energy      =      -0.1594403376000490 [Eh]
	 SCS Opposite-Spin Energy  =      -1.7689286937922717 [Eh]
	 SCS Correlation Energy    =      -1.9283690313923207 [Eh]
	 SCS Total Energy          =    -459.4113629728652199 [Eh]
	-----------------------------------------------------------

  Dipole Moment: [D]
     X:    -2.9675      Y:    -1.6248      Z:     1.2039     Total:     3.5910

*** Psi4 exiting successfully. Buy a developer a beer!
