                               Psi4 1.4a3.dev225

  ==> Input File <==

--------------------------------------------------------------------------
#psi4
#
memory 32 gb

molecule  {
0 1
  O       -0.0048250     2.1741760     0.2178480
  O        2.2663170     0.9084740    -0.5920830
  C        0.2215980    -0.1887240    -0.0416380
  C       -0.5997910     0.9512430     0.0794500
  C       -0.3937360    -1.4453650    -0.1432710
  C        1.7577194    -0.0447259    -0.1037964
  C       -1.9917600     0.8092840     0.0995930
  C       -1.7801750    -1.5845230    -0.1400000
  C       -2.5802090    -0.4482640    -0.0192820
  C        2.5274150    -1.2247570     0.4590770
  H        0.2262520    -2.3327300    -0.2378970
  H       -2.6178000     1.6952910     0.2019520
  H       -2.2312480    -2.5684970    -0.2333300
  H       -3.6639410    -0.5356590    -0.0094230
  H        2.1619230    -1.5277990     1.4440180
  H        3.5676560    -0.9027370     0.5247450
  H        2.4738770    -2.0960730    -0.2017770
  H       -0.7089870     2.8349930     0.3487360
units angstrom
no_reorient  #important for SAPT in psi4, default
symmetry c1  #important for SAPT in psi4, default
}

set PROPERTIES_ORIGIN ["COM"]
properties('MP2/aug-cc-pvtz', properties = ['dipole'])
--------------------------------------------------------------------------

    Molecular point group: c1
  Charge       = 0
  Multiplicity = 1
  Basis Set: AUG-CC-PVTZ
    Blend: AUG-CC-PVTZ
  Basis Set: (AUG-CC-PVTZ AUX)
    Blend: AUG-CC-PVTZ-JKFIT

    Orbital Energies [Eh]
    ---------------------

    Doubly Occupied:

       1A    -20.595410     2A    -20.543016     3A    -11.332585
       4A    -11.320490     5A    -11.257632     6A    -11.257481
       7A    -11.247947     8A    -11.244928     9A    -11.239423
      10A    -11.232979    11A     -1.411685    12A     -1.397408
      13A     -1.159561    14A     -1.050841    15A     -1.016103
      16A     -0.995238    17A     -0.864931    18A     -0.842831
      19A     -0.760107    20A     -0.738515    21A     -0.682350
      22A     -0.670031    23A     -0.637482    24A     -0.626970
      25A     -0.610809    26A     -0.603691    27A     -0.588333
      28A     -0.576866    29A     -0.549450    30A     -0.532873
      31A     -0.520524    32A     -0.505102    33A     -0.487847
      34A     -0.405999    35A     -0.353921    36A     -0.324708

  @DF-RHF Final Energy:  -457.48522489647542

   => Energetics <=

    Nuclear Repulsion Energy =            494.7525562429707975
    One-Electron Energy =               -1604.1034304972451991
    Two-Electron Energy =                 651.8656493577990432
    Total Energy =                       -457.4852248964754153
  Basis Set: (AUG-CC-PVTZ AUX)
    Blend: AUG-CC-PVTZ-RI
    Molecular point group: c1

    Geometry (in Angstrom), charge = 0, multiplicity = 1:

       Center              X                  Y                   Z               Mass
    ------------   -----------------  -----------------  -----------------  -----------------
         O           -0.014428950000     2.132125926201     0.231466771142    15.994914619570
         O            2.256713050000     0.866423926201    -0.578464228858    15.994914619570
         C            0.211994050000    -0.230774073799    -0.028019228858    12.000000000000
         C           -0.609394950000     0.909192926201     0.093068771142    12.000000000000
         C           -0.403339950000    -1.487415073799    -0.129652228858    12.000000000000
         C            1.748115450000    -0.086775973799    -0.090177628858    12.000000000000
         C           -2.001363950000     0.767233926201     0.113211771142    12.000000000000
         C           -1.789778950000    -1.626573073799    -0.126381228858    12.000000000000
         C           -2.589812950000    -0.490314073799    -0.005663228858    12.000000000000
         C            2.517811050000    -1.266807073799     0.472695771142    12.000000000000
         H            0.216648050000    -2.374780073799    -0.224278228858     1.007825032230
         H           -2.627403950000     1.653240926201     0.215570771142     1.007825032230
         H           -2.240851950000    -2.610547073799    -0.219711228858     1.007825032230
         H           -3.673544950000    -0.577709073799     0.004195771142     1.007825032230
         H            2.152319050000    -1.569849073799     1.457636771142     1.007825032230
         H            3.558052050000    -0.944787073799     0.538363771142     1.007825032230
         H            2.464273050000    -2.138123073799    -0.188158228858     1.007825032230
         H           -0.718590950000     2.792942926201     0.362354771142     1.007825032230

  Basis Set: AUG-CC-PVTZ
    Blend: AUG-CC-PVTZ
  Basis Set: (AUG-CC-PVTZ AUX)
    Blend: AUG-CC-PVTZ-JKFIT
	 Reference Energy          =    -457.4852248964754153 [Eh]
	 Singles Energy            =      -0.0000000000000000 [Eh]
	 Same-Spin Energy          =      -0.4770508035669381 [Eh]
	 Opposite-Spin Energy      =      -1.4710475060893162 [Eh]
	 Correlation Energy        =      -1.9480983096562543 [Eh]
	 Total Energy              =    -459.4333232061316608 [Eh]

	 ================> DF-SCS-MP2 Energies <==================
	-----------------------------------------------------------
	 SCS Same-Spin Scale       =       0.3333333333333333 [-]
	 SCS Opposite-Spin Scale   =       1.2000000000000000 [-]
	 SCS Same-Spin Energy      =      -0.1590169345223127 [Eh]
	 SCS Opposite-Spin Energy  =      -1.7652570073071794 [Eh]
	 SCS Correlation Energy    =      -1.9242739418294921 [Eh]
	 SCS Total Energy          =    -459.4094988383048985 [Eh]
	-----------------------------------------------------------

  Dipole Moment: [D]
     X:    -2.5875      Y:    -1.4011      Z:     1.1653     Total:     3.1648

*** Psi4 exiting successfully. Buy a developer a beer!
