                               Psi4 1.4a3.dev225

  ==> Input File <==

--------------------------------------------------------------------------
#psi4
#
memory 32 gb

molecule  {
0 1
  O       -0.0048250     2.1741760     0.2178480
  O        2.2663170     0.9084740    -0.5920830
  C        0.2215980    -0.1887240    -0.0416380
  C       -0.5997910     0.9512430     0.0794500
  C       -0.3937360    -1.4453650    -0.1432710
  C        1.7133810    -0.0735570    -0.1011180
  C       -1.9917600     0.8092840     0.0995930
  C       -1.7801750    -1.5845230    -0.1400000
  C       -2.5802090    -0.4482640    -0.0192820
  C        2.5274150    -1.2247570     0.4590770
  H        0.2262520    -2.3327300    -0.2378970
  H       -2.6178000     1.6952910     0.2019520
  H       -2.2312480    -2.5684970    -0.2333300
  H       -3.6639410    -0.5356590    -0.0094230
  H        2.1619230    -1.5277990     1.4440180
  H        3.7583646    -0.8437007     0.5367840
  H        2.4738770    -2.0960730    -0.2017770
  H       -0.7089870     2.8349930     0.3487360
units angstrom
no_reorient  #important for SAPT in psi4, default
symmetry c1  #important for SAPT in psi4, default
}

set PROPERTIES_ORIGIN ["COM"]
properties('MP2/aug-cc-pvtz', properties = ['dipole'])
--------------------------------------------------------------------------

    Molecular point group: c1
  Charge       = 0
  Multiplicity = 1
  Basis Set: AUG-CC-PVTZ
    Blend: AUG-CC-PVTZ
  Basis Set: (AUG-CC-PVTZ AUX)
    Blend: AUG-CC-PVTZ-JKFIT

    Orbital Energies [Eh]
    ---------------------

    Doubly Occupied:

       1A    -20.597822     2A    -20.537746     3A    -11.334536
       4A    -11.325748     5A    -11.262284     6A    -11.262009
       7A    -11.254097     8A    -11.251444     9A    -11.248290
      10A    -11.242653    11A     -1.411441    12A     -1.367426
      13A     -1.164628    14A     -1.057444    15A     -1.020137
      16A     -0.985871    17A     -0.870917    18A     -0.846676
      19A     -0.761804    20A     -0.741333    21A     -0.681727
      22A     -0.670158    23A     -0.635211    24A     -0.622379
      25A     -0.609781    26A     -0.600057    27A     -0.588965
      28A     -0.575435    29A     -0.535652    30A     -0.524181
      31A     -0.506880    32A     -0.500467    33A     -0.479436
      34A     -0.411813    35A     -0.357334    36A     -0.328103

  @DF-RHF Final Energy:  -457.46321373447154

   => Energetics <=

    Nuclear Repulsion Energy =            493.9975571002593142
    One-Electron Energy =               -1602.5777669131155108
    Two-Electron Energy =                 651.1169960783845454
    Total Energy =                       -457.4632137344715375
  Basis Set: (AUG-CC-PVTZ AUX)
    Blend: AUG-CC-PVTZ-RI
    Molecular point group: c1

    Geometry (in Angstrom), charge = 0, multiplicity = 1:

       Center              X                  Y                   Z               Mass
    ------------   -----------------  -----------------  -----------------  -----------------
         O           -0.011930943163     2.134231547836     0.231141352436    15.994914619570
         O            2.259211056837     0.868529547836    -0.578789647564    15.994914619570
         C            0.214492056837    -0.228668452164    -0.028344647564    12.000000000000
         C           -0.606896943163     0.911298547836     0.092743352436    12.000000000000
         C           -0.400841943163    -1.485309452164    -0.129977647564    12.000000000000
         C            1.706275056837    -0.113501452164    -0.087824647564    12.000000000000
         C           -1.998865943163     0.769339547836     0.112886352436    12.000000000000
         C           -1.787280943163    -1.624467452164    -0.126706647564    12.000000000000
         C           -2.587314943163    -0.488208452164    -0.005988647564    12.000000000000
         C            2.520309056837    -1.264701452164     0.472370352436    12.000000000000
         H            0.219146056837    -2.372674452164    -0.224603647564     1.007825032230
         H           -2.624905943163     1.655346547836     0.215245352436     1.007825032230
         H           -2.238353943163    -2.608441452164    -0.220036647564     1.007825032230
         H           -3.671046943163    -0.575603452164     0.003870352436     1.007825032230
         H            2.154817056837    -1.567743452164     1.457311352436     1.007825032230
         H            3.751258656837    -0.883645152164     0.550077352436     1.007825032230
         H            2.466771056837    -2.136017452164    -0.188483647564     1.007825032230
         H           -0.716092943163     2.795048547836     0.362029352436     1.007825032230

  Basis Set: AUG-CC-PVTZ
    Blend: AUG-CC-PVTZ
  Basis Set: (AUG-CC-PVTZ AUX)
    Blend: AUG-CC-PVTZ-JKFIT
	 Reference Energy          =    -457.4632137344715375 [Eh]
	 Singles Energy            =      -0.0000000000000000 [Eh]
	 Same-Spin Energy          =      -0.4784353924671182 [Eh]
	 Opposite-Spin Energy      =      -1.4755717725862478 [Eh]
	 Correlation Energy        =      -1.9540071650533659 [Eh]
	 Total Energy              =    -459.4172208995249207 [Eh]

	 ================> DF-SCS-MP2 Energies <==================
	-----------------------------------------------------------
	 SCS Same-Spin Scale       =       0.3333333333333333 [-]
	 SCS Opposite-Spin Scale   =       1.2000000000000000 [-]
	 SCS Same-Spin Energy      =      -0.1594784641557060 [Eh]
	 SCS Opposite-Spin Energy  =      -1.7706861271034973 [Eh]
	 SCS Correlation Energy    =      -1.9301645912592034 [Eh]
	 SCS Total Energy          =    -459.3933783257307368 [Eh]
	-----------------------------------------------------------

  Dipole Moment: [D]
     X:    -3.0322      Y:    -1.4671      Z:     1.1980     Total:     3.5752

*** Psi4 exiting successfully. Buy a developer a beer!
