                               Psi4 1.4a3.dev225

  ==> Input File <==

--------------------------------------------------------------------------
#psi4
#
memory 32 gb

molecule  {
0 1
  O       -0.0048250     2.1741760     0.2178480
  O        2.2663170     0.9084740    -0.5920830
  C        0.2215980    -0.1887240    -0.0416380
  C       -0.5997910     0.9512430     0.0794500
  C       -0.3937360    -1.4453650    -0.1432710
  C        1.7133810    -0.0735570    -0.1011180
  C       -1.9917600     0.8092840     0.0995930
  C       -1.7775526    -1.6085818    -0.1423924
  C       -2.5802090    -0.4482640    -0.0192820
  C        2.5274150    -1.2247570     0.4590770
  H        0.2262520    -2.3327300    -0.2378970
  H       -2.6178000     1.6952910     0.2019520
  H       -2.2312480    -2.5684970    -0.2333300
  H       -3.6639410    -0.5356590    -0.0094230
  H        2.1619230    -1.5277990     1.4440180
  H        3.5676560    -0.9027370     0.5247450
  H        2.4738770    -2.0960730    -0.2017770
  H       -0.7089870     2.8349930     0.3487360
units angstrom
no_reorient  #important for SAPT in psi4, default
symmetry c1  #important for SAPT in psi4, default
}

set PROPERTIES_ORIGIN ["COM"]
properties('MP2/aug-cc-pvtz', properties = ['dipole'])
--------------------------------------------------------------------------

    Molecular point group: c1
  Charge       = 0
  Multiplicity = 1
  Basis Set: AUG-CC-PVTZ
    Blend: AUG-CC-PVTZ
  Basis Set: (AUG-CC-PVTZ AUX)
    Blend: AUG-CC-PVTZ-JKFIT

    Orbital Energies [Eh]
    ---------------------

    Doubly Occupied:

       1A    -20.597835     2A    -20.537215     3A    -11.332984
       4A    -11.325552     5A    -11.263954     6A    -11.261146
       7A    -11.249437     8A    -11.247998     9A    -11.242309
      10A    -11.233035    11A     -1.411335    12A     -1.367170
      13A     -1.161682    14A     -1.055921    15A     -1.019729
      16A     -0.994289    17A     -0.869924    18A     -0.848741
      19A     -0.765747    20A     -0.740205    21A     -0.681390
      22A     -0.669926    23A     -0.636007    24A     -0.621273
      25A     -0.610855    26A     -0.600889    27A     -0.587596
      28A     -0.575290    29A     -0.551397    30A     -0.535936
      31A     -0.517971    32A     -0.498830    33A     -0.479083
      34A     -0.410476    35A     -0.356569    36A     -0.326431

  @DF-RHF Final Energy:  -457.48329611337266

   => Energetics <=

    Nuclear Repulsion Energy =            494.4557980122746130
    One-Electron Energy =               -1603.5059359882720855
    Two-Electron Energy =                 651.5668418626249832
    Total Energy =                       -457.4832961133726030
  Basis Set: (AUG-CC-PVTZ AUX)
    Blend: AUG-CC-PVTZ-RI
    Molecular point group: c1

    Geometry (in Angstrom), charge = 0, multiplicity = 1:

       Center              X                  Y                   Z               Mass
    ------------   -----------------  -----------------  -----------------  -----------------
         O           -0.010749544921     2.136790883691     0.231441545573    15.994914619570
         O            2.260392455079     0.871088883691    -0.578489454427    15.994914619570
         C            0.215673455079    -0.226109116309    -0.028044454427    12.000000000000
         C           -0.605715544921     0.913857883691     0.093043545573    12.000000000000
         C           -0.399660544921    -1.482750116309    -0.129677454427    12.000000000000
         C            1.707456455079    -0.110942116309    -0.087524454427    12.000000000000
         C           -1.997684544921     0.771898883691     0.113186545573    12.000000000000
         C           -1.783477144921    -1.645966916309    -0.128798854427    12.000000000000
         C           -2.586133544921    -0.485649116309    -0.005688454427    12.000000000000
         C            2.521490455079    -1.262142116309     0.472670545573    12.000000000000
         H            0.220327455079    -2.370115116309    -0.224303454427     1.007825032230
         H           -2.623724544921     1.657905883691     0.215545545573     1.007825032230
         H           -2.237172544921    -2.605882116309    -0.219736454427     1.007825032230
         H           -3.669865544921    -0.573044116309     0.004170545573     1.007825032230
         H            2.155998455079    -1.565184116309     1.457611545573     1.007825032230
         H            3.561731455079    -0.940122116309     0.538338545573     1.007825032230
         H            2.467952455079    -2.133458116309    -0.188183454427     1.007825032230
         H           -0.714911544921     2.797607883691     0.362329545573     1.007825032230

  Basis Set: AUG-CC-PVTZ
    Blend: AUG-CC-PVTZ
  Basis Set: (AUG-CC-PVTZ AUX)
    Blend: AUG-CC-PVTZ-JKFIT
	 Reference Energy          =    -457.4832961133726599 [Eh]
	 Singles Energy            =      -0.0000000000000000 [Eh]
	 Same-Spin Energy          =      -0.4782168752094212 [Eh]
	 Opposite-Spin Energy      =      -1.4738309569884520 [Eh]
	 Correlation Energy        =      -1.9520478321978731 [Eh]
	 Total Energy              =    -459.4353439455705370 [Eh]

	 ================> DF-SCS-MP2 Energies <==================
	-----------------------------------------------------------
	 SCS Same-Spin Scale       =       0.3333333333333333 [-]
	 SCS Opposite-Spin Scale   =       1.2000000000000000 [-]
	 SCS Same-Spin Energy      =      -0.1594056250698071 [Eh]
	 SCS Opposite-Spin Energy  =      -1.7685971483861425 [Eh]
	 SCS Correlation Energy    =      -1.9280027734559495 [Eh]
	 SCS Total Energy          =    -459.4112988868286038 [Eh]
	-----------------------------------------------------------

  Dipole Moment: [D]
     X:    -2.9440      Y:    -1.4880      Z:     1.2192     Total:     3.5168

*** Psi4 exiting successfully. Buy a developer a beer!
