                               Psi4 1.4a3.dev225

  ==> Input File <==

--------------------------------------------------------------------------
#psi4
#
memory 32 gb

molecule  {
0 1
  O       -0.0048250     2.1741760     0.2178480
  O        2.2663170     0.9084740    -0.5920830
  C        0.2215980    -0.1887240    -0.0416380
  C       -0.5997910     0.9512430     0.0794500
  C       -0.3937360    -1.4453650    -0.1432710
  C        1.7133810    -0.0735570    -0.1011180
  C       -2.0138907     0.8192712     0.1010028
  C       -1.7801750    -1.5845230    -0.1400000
  C       -2.5802090    -0.4482640    -0.0192820
  C        2.5274150    -1.2247570     0.4590770
  H        0.2262520    -2.3327300    -0.2378970
  H       -2.6178000     1.6952910     0.2019520
  H       -2.2312480    -2.5684970    -0.2333300
  H       -3.6639410    -0.5356590    -0.0094230
  H        2.1619230    -1.5277990     1.4440180
  H        3.5676560    -0.9027370     0.5247450
  H        2.4738770    -2.0960730    -0.2017770
  H       -0.7089870     2.8349930     0.3487360
units angstrom
no_reorient  #important for SAPT in psi4, default
symmetry c1  #important for SAPT in psi4, default
}

set PROPERTIES_ORIGIN ["COM"]
properties('MP2/aug-cc-pvtz', properties = ['dipole'])
--------------------------------------------------------------------------

    Molecular point group: c1
  Charge       = 0
  Multiplicity = 1
  Basis Set: AUG-CC-PVTZ
    Blend: AUG-CC-PVTZ
  Basis Set: (AUG-CC-PVTZ AUX)
    Blend: AUG-CC-PVTZ-JKFIT

    Orbital Energies [Eh]
    ---------------------

    Doubly Occupied:

       1A    -20.597936     2A    -20.537386     3A    -11.333147
       4A    -11.327652     5A    -11.261518     6A    -11.261173
       7A    -11.249435     8A    -11.248052     9A    -11.241456
      10A    -11.233358    11A     -1.411228    12A     -1.367334
      13A     -1.161870    14A     -1.057364    15A     -1.017216
      16A     -0.995030    17A     -0.870062    18A     -0.848900
      19A     -0.764451    20A     -0.740181    21A     -0.680029
      22A     -0.670595    23A     -0.637407    24A     -0.624012
      25A     -0.611272    26A     -0.599326    27A     -0.587423
      28A     -0.575418    29A     -0.551257    30A     -0.532387
      31A     -0.520406    32A     -0.499638    33A     -0.479762
      34A     -0.410427    35A     -0.356799    36A     -0.325522

  @DF-RHF Final Energy:  -457.48330573506252

   => Energetics <=

    Nuclear Repulsion Energy =            494.3762893752328864
    One-Electron Energy =               -1603.3463372116136725
    Two-Electron Energy =                 651.4867421013182138
    Total Energy =                       -457.4833057350624586
  Basis Set: (AUG-CC-PVTZ AUX)
    Blend: AUG-CC-PVTZ-RI
    Molecular point group: c1

    Geometry (in Angstrom), charge = 0, multiplicity = 1:

       Center              X                  Y                   Z               Mass
    ------------   -----------------  -----------------  -----------------  -----------------
         O           -0.008566289531     2.133787982519     0.231106186622    15.994914619570
         O            2.262575710469     0.868085982519    -0.578824813378    15.994914619570
         C            0.217856710469    -0.229112017481    -0.028379813378    12.000000000000
         C           -0.603532289531     0.910854982519     0.092708186622    12.000000000000
         C           -0.397477289531    -1.485753017481    -0.130012813378    12.000000000000
         C            1.709639710469    -0.113945017481    -0.087859813378    12.000000000000
         C           -2.017631989531     0.778883182519     0.114260986622    12.000000000000
         C           -1.783916289531    -1.624911017481    -0.126741813378    12.000000000000
         C           -2.583950289531    -0.488652017481    -0.006023813378    12.000000000000
         C            2.523673710469    -1.265145017481     0.472335186622    12.000000000000
         H            0.222510710469    -2.373118017481    -0.224638813378     1.007825032230
         H           -2.621541289531     1.654902982519     0.215210186622     1.007825032230
         H           -2.234989289531    -2.608885017481    -0.220071813378     1.007825032230
         H           -3.667682289531    -0.576047017481     0.003835186622     1.007825032230
         H            2.158181710469    -1.568187017481     1.457276186622     1.007825032230
         H            3.563914710469    -0.943125017481     0.538003186622     1.007825032230
         H            2.470135710469    -2.136461017481    -0.188518813378     1.007825032230
         H           -0.712728289531     2.794604982519     0.361994186622     1.007825032230

  Basis Set: AUG-CC-PVTZ
    Blend: AUG-CC-PVTZ
  Basis Set: (AUG-CC-PVTZ AUX)
    Blend: AUG-CC-PVTZ-JKFIT
	 Reference Energy          =    -457.4833057350625154 [Eh]
	 Singles Energy            =      -0.0000000000000000 [Eh]
	 Same-Spin Energy          =      -0.4781932740161466 [Eh]
	 Opposite-Spin Energy      =      -1.4737747904703942 [Eh]
	 Correlation Energy        =      -1.9519680644865409 [Eh]
	 Total Energy              =    -459.4352737995490656 [Eh]

	 ================> DF-SCS-MP2 Energies <==================
	-----------------------------------------------------------
	 SCS Same-Spin Scale       =       0.3333333333333333 [-]
	 SCS Opposite-Spin Scale   =       1.2000000000000000 [-]
	 SCS Same-Spin Energy      =      -0.1593977580053822 [Eh]
	 SCS Opposite-Spin Energy  =      -1.7685297485644729 [Eh]
	 SCS Correlation Energy    =      -1.9279275065698551 [Eh]
	 SCS Total Energy          =    -459.4112332416323738 [Eh]
	-----------------------------------------------------------

  Dipole Moment: [D]
     X:    -2.9209      Y:    -1.4589      Z:     1.2231     Total:     3.4866

*** Psi4 exiting successfully. Buy a developer a beer!
