                               Psi4 1.4a3.dev225

  ==> Input File <==

--------------------------------------------------------------------------
#psi4
#
memory 32 gb

molecule  {
0 1
  O       -0.0048250     2.1741760     0.2178480
  O        2.2663170     0.9084740    -0.5920830
  C        0.2215980    -0.1887240    -0.0416380
  C       -0.5997910     0.9512430     0.0794500
  C       -0.3937360    -1.4453650    -0.1432710
  C        1.7133810    -0.0735570    -0.1011180
  C       -1.9698059     0.7988939     0.0983429
  C       -1.7801750    -1.5845230    -0.1400000
  C       -2.5802090    -0.4482640    -0.0192820
  C        2.5274150    -1.2247570     0.4590770
  H        0.2262520    -2.3327300    -0.2378970
  H       -2.6178000     1.6952910     0.2019520
  H       -2.2312480    -2.5684970    -0.2333300
  H       -3.6639410    -0.5356590    -0.0094230
  H        2.1619230    -1.5277990     1.4440180
  H        3.5676560    -0.9027370     0.5247450
  H        2.4738770    -2.0960730    -0.2017770
  H       -0.7089870     2.8349930     0.3487360
units angstrom
no_reorient  #important for SAPT in psi4, default
symmetry c1  #important for SAPT in psi4, default
}

set PROPERTIES_ORIGIN ["COM"]
properties('MP2/aug-cc-pvtz', properties = ['dipole'])
--------------------------------------------------------------------------

    Molecular point group: c1
  Charge       = 0
  Multiplicity = 1
  Basis Set: AUG-CC-PVTZ
    Blend: AUG-CC-PVTZ
  Basis Set: (AUG-CC-PVTZ AUX)
    Blend: AUG-CC-PVTZ-JKFIT

    Orbital Energies [Eh]
    ---------------------

    Doubly Occupied:

       1A    -20.596427     2A    -20.537730     3A    -11.333125
       4A    -11.321726     5A    -11.261230     6A    -11.260866
       7A    -11.250272     8A    -11.246894     9A    -11.242190
      10A    -11.233302    11A     -1.410357    12A     -1.367518
      13A     -1.165553    14A     -1.057062    15A     -1.021481
      16A     -0.994718    17A     -0.872750    18A     -0.846917
      19A     -0.763851    20A     -0.740727    21A     -0.682180
      22A     -0.668230    23A     -0.637232    24A     -0.619292
      25A     -0.609784    26A     -0.599786    27A     -0.587797
      28A     -0.575413    29A     -0.551354    30A     -0.532863
      31A     -0.519444    32A     -0.500012    33A     -0.480245
      34A     -0.410745    35A     -0.356315    36A     -0.329052

  @DF-RHF Final Energy:  -457.48345742441325

   => Energetics <=

    Nuclear Repulsion Energy =            495.2954745787863544
    One-Electron Energy =               -1605.1889836157658920
    Two-Electron Energy =                 652.4100516125663489
    Total Energy =                       -457.4834574244132455
  Basis Set: (AUG-CC-PVTZ AUX)
    Blend: AUG-CC-PVTZ-RI
    Molecular point group: c1

    Geometry (in Angstrom), charge = 0, multiplicity = 1:

       Center              X                  Y                   Z               Mass
    ------------   -----------------  -----------------  -----------------  -----------------
         O           -0.012454625829     2.135585286697     0.231340793237    15.994914619570
         O            2.258687374171     0.869883286697    -0.578590206763    15.994914619570
         C            0.213968374171    -0.227314713303    -0.028145206763    12.000000000000
         C           -0.607420625829     0.912652286697     0.092942793237    12.000000000000
         C           -0.401365625829    -1.483955713303    -0.129778206763    12.000000000000
         C            1.705751374171    -0.112147713303    -0.087625206763    12.000000000000
         C           -1.977435525829     0.760303186697     0.111835693237    12.000000000000
         C           -1.787804625829    -1.623113713303    -0.126507206763    12.000000000000
         C           -2.587838625829    -0.486854713303    -0.005789206763    12.000000000000
         C            2.519785374171    -1.263347713303     0.472569793237    12.000000000000
         H            0.218622374171    -2.371320713303    -0.224404206763     1.007825032230
         H           -2.625429625829     1.656700286697     0.215444793237     1.007825032230
         H           -2.238877625829    -2.607087713303    -0.219837206763     1.007825032230
         H           -3.671570625829    -0.574249713303     0.004069793237     1.007825032230
         H            2.154293374171    -1.566389713303     1.457510793237     1.007825032230
         H            3.560026374171    -0.941327713303     0.538237793237     1.007825032230
         H            2.466247374171    -2.134663713303    -0.188284206763     1.007825032230
         H           -0.716616625829     2.796402286697     0.362228793237     1.007825032230

  Basis Set: AUG-CC-PVTZ
    Blend: AUG-CC-PVTZ
  Basis Set: (AUG-CC-PVTZ AUX)
    Blend: AUG-CC-PVTZ-JKFIT
	 Reference Energy          =    -457.4834574244132455 [Eh]
	 Singles Energy            =      -0.0000000000000000 [Eh]
	 Same-Spin Energy          =      -0.4783762963032953 [Eh]
	 Opposite-Spin Energy      =      -1.4737763907500012 [Eh]
	 Correlation Energy        =      -1.9521526870532964 [Eh]
	 Total Energy              =    -459.4356101114665307 [Eh]

	 ================> DF-SCS-MP2 Energies <==================
	-----------------------------------------------------------
	 SCS Same-Spin Scale       =       0.3333333333333333 [-]
	 SCS Opposite-Spin Scale   =       1.2000000000000000 [-]
	 SCS Same-Spin Energy      =      -0.1594587654344317 [Eh]
	 SCS Opposite-Spin Energy  =      -1.7685316689000015 [Eh]
	 SCS Correlation Energy    =      -1.9279904343344332 [Eh]
	 SCS Total Energy          =    -459.4114478587476924 [Eh]
	-----------------------------------------------------------

  Dipole Moment: [D]
     X:    -2.9405      Y:    -1.5279      Z:     1.2149     Total:     3.5294

*** Psi4 exiting successfully. Buy a developer a beer!
