                               Psi4 1.4a3.dev225

  ==> Input File <==

--------------------------------------------------------------------------
#psi4
#
memory 32 gb

molecule  {
0 1
  O       -0.0048250     2.1741760     0.2178480
  O        2.2663170     0.9084740    -0.5920830
  C        0.2435010    -0.1995690    -0.0431050
  C       -0.5997910     0.9512430     0.0794500
  C       -0.3937360    -1.4453650    -0.1432710
  C        1.7133810    -0.0735570    -0.1011180
  C       -1.9917600     0.8092840     0.0995930
  C       -1.7801750    -1.5845230    -0.1400000
  C       -2.5802090    -0.4482640    -0.0192820
  C        2.5274150    -1.2247570     0.4590770
  H        0.2262520    -2.3327300    -0.2378970
  H       -2.6178000     1.6952910     0.2019520
  H       -2.2312480    -2.5684970    -0.2333300
  H       -3.6639410    -0.5356590    -0.0094230
  H        2.1619230    -1.5277990     1.4440180
  H        3.5676560    -0.9027370     0.5247450
  H        2.4738770    -2.0960730    -0.2017770
  H       -0.7089870     2.8349930     0.3487360
units angstrom
no_reorient  #important for SAPT in psi4, default
symmetry c1  #important for SAPT in psi4, default
}

set PROPERTIES_ORIGIN ["COM"]
properties('MP2/aug-cc-pvtz', properties = ['dipole'])
--------------------------------------------------------------------------

    Molecular point group: c1
  Charge       = 0
  Multiplicity = 1
  Basis Set: AUG-CC-PVTZ
    Blend: AUG-CC-PVTZ
  Basis Set: (AUG-CC-PVTZ AUX)
    Blend: AUG-CC-PVTZ-JKFIT

    Orbital Energies [Eh]
    ---------------------

    Doubly Occupied:

       1A    -20.598077     2A    -20.536930     3A    -11.331570
       4A    -11.328146     5A    -11.262394     6A    -11.262118
       7A    -11.250807     8A    -11.247430     9A    -11.241883
      10A    -11.232457    11A     -1.411358    12A     -1.367367
      13A     -1.162528    14A     -1.059395    15A     -1.018245
      16A     -0.993814    17A     -0.873579    18A     -0.847818
      19A     -0.765554    20A     -0.740432    21A     -0.681620
      22A     -0.669906    23A     -0.636761    24A     -0.621148
      25A     -0.610314    26A     -0.599482    27A     -0.587325
      28A     -0.575857    29A     -0.551210    30A     -0.533113
      31A     -0.519328    32A     -0.499553    33A     -0.479580
      34A     -0.411738    35A     -0.357247    36A     -0.325777

  @DF-RHF Final Energy:  -457.48296449270208

   => Energetics <=

    Nuclear Repulsion Energy =            494.7293716915170876
    One-Electron Energy =               -1604.0409492831365696
    Two-Electron Energy =                 651.8286130989173444
    Total Energy =                       -457.4829644927020809
  Basis Set: (AUG-CC-PVTZ AUX)
    Blend: AUG-CC-PVTZ-RI
    Molecular point group: c1

    Geometry (in Angstrom), charge = 0, multiplicity = 1:

       Center              X                  Y                   Z               Mass
    ------------   -----------------  -----------------  -----------------  -----------------
         O           -0.012450118743     2.135625409465     0.231359924098    15.994914619570
         O            2.258691881257     0.869923409465    -0.578571075902    15.994914619570
         C            0.235875881257    -0.238119590535    -0.029593075902    12.000000000000
         C           -0.607416118743     0.912692409465     0.092961924098    12.000000000000
         C           -0.401361118743    -1.483915590535    -0.129759075902    12.000000000000
         C            1.705755881257    -0.112107590535    -0.087606075902    12.000000000000
         C           -1.999385118743     0.770733409465     0.113104924098    12.000000000000
         C           -1.787800118743    -1.623073590535    -0.126488075902    12.000000000000
         C           -2.587834118743    -0.486814590535    -0.005770075902    12.000000000000
         C            2.519789881257    -1.263307590535     0.472588924098    12.000000000000
         H            0.218626881257    -2.371280590535    -0.224385075902     1.007825032230
         H           -2.625425118743     1.656740409465     0.215463924098     1.007825032230
         H           -2.238873118743    -2.607047590535    -0.219818075902     1.007825032230
         H           -3.671566118743    -0.574209590535     0.004088924098     1.007825032230
         H            2.154297881257    -1.566349590535     1.457529924098     1.007825032230
         H            3.560030881257    -0.941287590535     0.538256924098     1.007825032230
         H            2.466251881257    -2.134623590535    -0.188265075902     1.007825032230
         H           -0.716612118743     2.796442409465     0.362247924098     1.007825032230

  Basis Set: AUG-CC-PVTZ
    Blend: AUG-CC-PVTZ
  Basis Set: (AUG-CC-PVTZ AUX)
    Blend: AUG-CC-PVTZ-JKFIT
	 Reference Energy          =    -457.4829644927020809 [Eh]
	 Singles Energy            =      -0.0000000000000000 [Eh]
	 Same-Spin Energy          =      -0.4784321364710556 [Eh]
	 Opposite-Spin Energy      =      -1.4740276402120465 [Eh]
	 Correlation Energy        =      -1.9524597766831020 [Eh]
	 Total Energy              =    -459.4354242693851802 [Eh]

	 ================> DF-SCS-MP2 Energies <==================
	-----------------------------------------------------------
	 SCS Same-Spin Scale       =       0.3333333333333333 [-]
	 SCS Opposite-Spin Scale   =       1.2000000000000000 [-]
	 SCS Same-Spin Energy      =      -0.1594773788236852 [Eh]
	 SCS Opposite-Spin Energy  =      -1.7688331682544558 [Eh]
	 SCS Correlation Energy    =      -1.9283105470781410 [Eh]
	 SCS Total Energy          =    -459.4112750397802074 [Eh]
	-----------------------------------------------------------

  Dipole Moment: [D]
     X:    -2.9866      Y:    -1.4698      Z:     1.2199     Total:     3.5452

*** Psi4 exiting successfully. Buy a developer a beer!
