                               Psi4 1.4a3.dev225

  ==> Input File <==

--------------------------------------------------------------------------
#psi4
#
memory 32 gb

molecule  {
0 1
  O       -0.0048250     2.1741760     0.2178480
  O        2.2663170     0.9084740    -0.5920830
  C        0.2215980    -0.1887240    -0.0416380
  C       -0.5796900     0.9654473     0.0795773
  C       -0.3937360    -1.4453650    -0.1432710
  C        1.7133810    -0.0735570    -0.1011180
  C       -1.9917600     0.8092840     0.0995930
  C       -1.7801750    -1.5845230    -0.1400000
  C       -2.5802090    -0.4482640    -0.0192820
  C        2.5274150    -1.2247570     0.4590770
  H        0.2262520    -2.3327300    -0.2378970
  H       -2.6178000     1.6952910     0.2019520
  H       -2.2312480    -2.5684970    -0.2333300
  H       -3.6639410    -0.5356590    -0.0094230
  H        2.1619230    -1.5277990     1.4440180
  H        3.5676560    -0.9027370     0.5247450
  H        2.4738770    -2.0960730    -0.2017770
  H       -0.7089870     2.8349930     0.3487360
units angstrom
no_reorient  #important for SAPT in psi4, default
symmetry c1  #important for SAPT in psi4, default
}

set PROPERTIES_ORIGIN ["COM"]
properties('MP2/aug-cc-pvtz', properties = ['dipole'])
--------------------------------------------------------------------------

    Molecular point group: c1
  Charge       = 0
  Multiplicity = 1
  Basis Set: AUG-CC-PVTZ
    Blend: AUG-CC-PVTZ
  Basis Set: (AUG-CC-PVTZ AUX)
    Blend: AUG-CC-PVTZ-JKFIT

    Orbital Energies [Eh]
    ---------------------

    Doubly Occupied:

       1A    -20.601437     2A    -20.536978     3A    -11.332247
       4A    -11.327372     5A    -11.260673     6A    -11.260437
       7A    -11.248511     8A    -11.248492     9A    -11.240566
      10A    -11.232735    11A     -1.422257    12A     -1.367355
      13A     -1.161056    14A     -1.056023    15A     -1.016541
      16A     -0.994403    17A     -0.869656    18A     -0.850333
      19A     -0.762609    20A     -0.745474    21A     -0.681330
      22A     -0.671971    23A     -0.637437    24A     -0.620885
      25A     -0.611753    26A     -0.600997    27A     -0.590350
      28A     -0.575482    29A     -0.551193    30A     -0.532442
      31A     -0.518273    32A     -0.499679    33A     -0.479478
      34A     -0.409495    35A     -0.355679    36A     -0.324170

  @DF-RHF Final Energy:  -457.48381478963569

   => Energetics <=

    Nuclear Repulsion Energy =            494.8487075530264860
    One-Electron Energy =               -1604.2735037751419895
    Two-Electron Energy =                 651.9409814324798162
    Total Energy =                       -457.4838147896356304
  Basis Set: (AUG-CC-PVTZ AUX)
    Blend: AUG-CC-PVTZ-RI
    Molecular point group: c1

    Geometry (in Angstrom), charge = 0, multiplicity = 1:

       Center              X                  Y                   Z               Mass
    ------------   -----------------  -----------------  -----------------  -----------------
         O           -0.012291180016     2.133416028853     0.231219304778    15.994914619570
         O            2.258850819984     0.867714028853    -0.578711695222    15.994914619570
         C            0.214131819984    -0.229483971147    -0.028266695222    12.000000000000
         C           -0.587156180016     0.924687328853     0.092948604778    12.000000000000
         C           -0.401202180016    -1.486124971147    -0.129899695222    12.000000000000
         C            1.705914819984    -0.114316971147    -0.087746695222    12.000000000000
         C           -1.999226180016     0.768524028853     0.112964304778    12.000000000000
         C           -1.787641180016    -1.625282971147    -0.126628695222    12.000000000000
         C           -2.587675180016    -0.489023971147    -0.005910695222    12.000000000000
         C            2.519948819984    -1.265516971147     0.472448304778    12.000000000000
         H            0.218785819984    -2.373489971147    -0.224525695222     1.007825032230
         H           -2.625266180016     1.654531028853     0.215323304778     1.007825032230
         H           -2.238714180016    -2.609256971147    -0.219958695222     1.007825032230
         H           -3.671407180016    -0.576418971147     0.003948304778     1.007825032230
         H            2.154456819984    -1.568558971147     1.457389304778     1.007825032230
         H            3.560189819984    -0.943496971147     0.538116304778     1.007825032230
         H            2.466410819984    -2.136832971147    -0.188405695222     1.007825032230
         H           -0.716453180016     2.794233028853     0.362107304778     1.007825032230

  Basis Set: AUG-CC-PVTZ
    Blend: AUG-CC-PVTZ
  Basis Set: (AUG-CC-PVTZ AUX)
    Blend: AUG-CC-PVTZ-JKFIT
	 Reference Energy          =    -457.4838147896356872 [Eh]
	 Singles Energy            =      -0.0000000000000000 [Eh]
	 Same-Spin Energy          =      -0.4782474548047091 [Eh]
	 Opposite-Spin Energy      =      -1.4734265789622034 [Eh]
	 Correlation Energy        =      -1.9516740337669125 [Eh]
	 Total Energy              =    -459.4354888234025793 [Eh]

	 ================> DF-SCS-MP2 Energies <==================
	-----------------------------------------------------------
	 SCS Same-Spin Scale       =       0.3333333333333333 [-]
	 SCS Opposite-Spin Scale   =       1.2000000000000000 [-]
	 SCS Same-Spin Energy      =      -0.1594158182682364 [Eh]
	 SCS Opposite-Spin Energy  =      -1.7681118947546441 [Eh]
	 SCS Correlation Energy    =      -1.9275277130228805 [Eh]
	 SCS Total Energy          =    -459.4113425026585560 [Eh]
	-----------------------------------------------------------

  Dipole Moment: [D]
     X:    -2.8949      Y:    -1.3568      Z:     1.2348     Total:     3.4272

*** Psi4 exiting successfully. Buy a developer a beer!
