                               Psi4 1.4a3.dev225

  ==> Input File <==

--------------------------------------------------------------------------
#psi4
#
memory 32 gb

molecule  {
0 1
  O       -0.0048250     2.1741760     0.2178480
  O        2.2663170     0.9084740    -0.5920830
  C        0.2215980    -0.1887240    -0.0416380
  C       -0.5997910     0.9512430     0.0794500
  C       -0.3937360    -1.4453650    -0.1432710
  C        1.7133810    -0.0735570    -0.1011180
  C       -1.9917600     0.8092840     0.0995930
  C       -1.7801750    -1.5845230    -0.1400000
  C       -2.5802090    -0.4482640    -0.0192820
  C        2.5274150    -1.2247570     0.4590770
  H        0.2262520    -2.3327300    -0.2378970
  H       -2.6178000     1.6952910     0.2019520
  H       -2.2312480    -2.5684970    -0.2333300
  H       -3.6639410    -0.5356590    -0.0094230
  H        2.1589421    -1.5454130     1.4373076
  H        3.5676560    -0.9027370     0.5247450
  H        2.4738770    -2.0960730    -0.2017770
  H       -0.7089870     2.8349930     0.3487360
units angstrom
no_reorient  #important for SAPT in psi4, default
symmetry c1  #important for SAPT in psi4, default
}

set PROPERTIES_ORIGIN ["COM"]
properties('MP2/aug-cc-pvtz', properties = ['dipole'])
--------------------------------------------------------------------------

    Molecular point group: c1
  Charge       = 0
  Multiplicity = 1
  Basis Set: AUG-CC-PVTZ
    Blend: AUG-CC-PVTZ
  Basis Set: (AUG-CC-PVTZ AUX)
    Blend: AUG-CC-PVTZ-JKFIT

    Orbital Energies [Eh]
    ---------------------

    Doubly Occupied:

       1A    -20.597177     2A    -20.537653     3A    -11.333308
       4A    -11.324730     5A    -11.261205     6A    -11.261163
       7A    -11.249858     8A    -11.247462     9A    -11.241822
      10A    -11.233353    11A     -1.410798    12A     -1.367506
      13A     -1.163651    14A     -1.057205    15A     -1.019257
      16A     -0.994859    17A     -0.871306    18A     -0.848008
      19A     -0.764182    20A     -0.740532    21A     -0.681129
      22A     -0.669609    23A     -0.637494    24A     -0.621478
      25A     -0.610560    26A     -0.599365    27A     -0.586791
      28A     -0.575415    29A     -0.551925    30A     -0.532209
      31A     -0.520910    32A     -0.499626    33A     -0.479863
      34A     -0.410810    35A     -0.356506    36A     -0.327289

  @DF-RHF Final Energy:  -457.48410852303880

   => Energetics <=

    Nuclear Repulsion Energy =            494.8237521347991787
    One-Electron Energy =               -1604.2436927767894304
    Two-Electron Energy =                 651.9358321189514527
    Total Energy =                       -457.4841085230387989
  Basis Set: (AUG-CC-PVTZ AUX)
    Blend: AUG-CC-PVTZ-RI
    Molecular point group: c1

    Geometry (in Angstrom), charge = 0, multiplicity = 1:

       Center              X                  Y                   Z               Mass
    ------------   -----------------  -----------------  -----------------  -----------------
         O           -0.010496164473     2.134799344320     0.231280240913    15.994914619570
         O            2.260645835527     0.869097344320    -0.578650759087    15.994914619570
         C            0.215926835527    -0.228100655680    -0.028205759087    12.000000000000
         C           -0.605462164473     0.911866344320     0.092882240913    12.000000000000
         C           -0.399407164473    -1.484741655680    -0.129838759087    12.000000000000
         C            1.707709835527    -0.112933655680    -0.087685759087    12.000000000000
         C           -1.997431164473     0.769907344320     0.113025240913    12.000000000000
         C           -1.785846164473    -1.623899655680    -0.126567759087    12.000000000000
         C           -2.585880164473    -0.487640655680    -0.005849759087    12.000000000000
         C            2.521743835527    -1.264133655680     0.472509240913    12.000000000000
         H            0.220580835527    -2.372106655680    -0.224464759087     1.007825032230
         H           -2.623471164473     1.655914344320     0.215384240913     1.007825032230
         H           -2.236919164473    -2.607873655680    -0.219897759087     1.007825032230
         H           -3.669612164473    -0.575035655680     0.004009240913     1.007825032230
         H            2.153270935527    -1.584789655680     1.450739840913     1.007825032230
         H            3.561984835527    -0.942113655680     0.538177240913     1.007825032230
         H            2.468205835527    -2.135449655680    -0.188344759087     1.007825032230
         H           -0.714658164473     2.795616344320     0.362168240913     1.007825032230

  Basis Set: AUG-CC-PVTZ
    Blend: AUG-CC-PVTZ
  Basis Set: (AUG-CC-PVTZ AUX)
    Blend: AUG-CC-PVTZ-JKFIT
	 Reference Energy          =    -457.4841085230387989 [Eh]
	 Singles Energy            =      -0.0000000000000000 [Eh]
	 Same-Spin Energy          =      -0.4782891665325407 [Eh]
	 Opposite-Spin Energy      =      -1.4737394706177445 [Eh]
	 Correlation Energy        =      -1.9520286371502853 [Eh]
	 Total Energy              =    -459.4361371601891051 [Eh]

	 ================> DF-SCS-MP2 Energies <==================
	-----------------------------------------------------------
	 SCS Same-Spin Scale       =       0.3333333333333333 [-]
	 SCS Opposite-Spin Scale   =       1.2000000000000000 [-]
	 SCS Same-Spin Energy      =      -0.1594297221775136 [Eh]
	 SCS Opposite-Spin Energy  =      -1.7684873647412933 [Eh]
	 SCS Correlation Energy    =      -1.9279170869188069 [Eh]
	 SCS Total Energy          =    -459.4120256099575954 [Eh]
	-----------------------------------------------------------

  Dipole Moment: [D]
     X:    -2.9335      Y:    -1.4982      Z:     1.2180     Total:     3.5119

*** Psi4 exiting successfully. Buy a developer a beer!
