                               Psi4 1.4a3.dev225

  ==> Input File <==

--------------------------------------------------------------------------
#psi4
#
memory 32 gb

molecule  {
0 1
  O       -0.0048250     2.1741760     0.2178480
  O        2.2663170     0.9084740    -0.5920830
  C        0.2215980    -0.1887240    -0.0416380
  C       -0.5997910     0.9512430     0.0794500
  C       -0.3937360    -1.4453650    -0.1432710
  C        1.7133810    -0.0735570    -0.1011180
  C       -1.9050963     0.7655366     0.0935960
  C       -1.7801750    -1.5845230    -0.1400000
  C       -2.5802090    -0.4482640    -0.0192820
  C        2.5274150    -1.2247570     0.4590770
  H        0.2262520    -2.3327300    -0.2378970
  H       -2.6178000     1.6952910     0.2019520
  H       -2.2312480    -2.5684970    -0.2333300
  H       -3.6639410    -0.5356590    -0.0094230
  H        2.1619230    -1.5277990     1.4440180
  H        3.5676560    -0.9027370     0.5247450
  H        2.4738770    -2.0960730    -0.2017770
  H       -0.7089870     2.8349930     0.3487360
units angstrom
no_reorient  #important for SAPT in psi4, default
symmetry c1  #important for SAPT in psi4, default
}

set PROPERTIES_ORIGIN ["COM"]
properties('MP2/aug-cc-pvtz', properties = ['dipole'])
--------------------------------------------------------------------------

    Molecular point group: c1
  Charge       = 0
  Multiplicity = 1
  Basis Set: AUG-CC-PVTZ
    Blend: AUG-CC-PVTZ
  Basis Set: (AUG-CC-PVTZ AUX)
    Blend: AUG-CC-PVTZ-JKFIT

    Orbital Energies [Eh]
    ---------------------

    Doubly Occupied:

       1A    -20.594323     2A    -20.538351     3A    -11.333183
       4A    -11.312538     5A    -11.261912     6A    -11.260120
       7A    -11.251771     8A    -11.245545     9A    -11.243627
      10A    -11.233309    11A     -1.409097    12A     -1.367884
      13A     -1.172262    14A     -1.056790    15A     -1.029381
      16A     -0.994244    17A     -0.878168    18A     -0.843312
      19A     -0.764133    20A     -0.741096    21A     -0.686691
      22A     -0.665457    23A     -0.637215    24A     -0.616702
      25A     -0.605094    26A     -0.600639    27A     -0.588587
      28A     -0.574498    29A     -0.552552    30A     -0.537606
      31A     -0.509753    32A     -0.499464    33A     -0.480664
      34A     -0.411095    35A     -0.356788    36A     -0.334252

  @DF-RHF Final Energy:  -457.47202226174448

   => Energetics <=

    Nuclear Repulsion Energy =            496.7206068774523260
    One-Electron Energy =               -1608.0090506078156523
    Two-Electron Energy =                 653.8164214686187279
    Total Energy =                       -457.4720222617445415
  Basis Set: (AUG-CC-PVTZ AUX)
    Blend: AUG-CC-PVTZ-RI
    Molecular point group: c1

    Geometry (in Angstrom), charge = 0, multiplicity = 1:

       Center              X                  Y                   Z               Mass
    ------------   -----------------  -----------------  -----------------  -----------------
         O           -0.018162096125     2.138527443640     0.231759475948    15.994914619570
         O            2.252979903875     0.872825443640    -0.578171524052    15.994914619570
         C            0.208260903875    -0.224372556360    -0.027726524052    12.000000000000
         C           -0.613128096125     0.915594443640     0.093361475948    12.000000000000
         C           -0.407073096125    -1.481013556360    -0.129359524052    12.000000000000
         C            1.700043903875    -0.109205556360    -0.087206524052    12.000000000000
         C           -1.918433396125     0.729888043640     0.107507475948    12.000000000000
         C           -1.793512096125    -1.620171556360    -0.126088524052    12.000000000000
         C           -2.593546096125    -0.483912556360    -0.005370524052    12.000000000000
         C            2.514077903875    -1.260405556360     0.472988475948    12.000000000000
         H            0.212914903875    -2.368378556360    -0.223985524052     1.007825032230
         H           -2.631137096125     1.659642443640     0.215863475948     1.007825032230
         H           -2.244585096125    -2.604145556360    -0.219418524052     1.007825032230
         H           -3.677278096125    -0.571307556360     0.004488475948     1.007825032230
         H            2.148585903875    -1.563447556360     1.457929475948     1.007825032230
         H            3.554318903875    -0.938385556360     0.538656475948     1.007825032230
         H            2.460539903875    -2.131721556360    -0.187865524052     1.007825032230
         H           -0.722324096125     2.799344443640     0.362647475948     1.007825032230

  Basis Set: AUG-CC-PVTZ
    Blend: AUG-CC-PVTZ
  Basis Set: (AUG-CC-PVTZ AUX)
    Blend: AUG-CC-PVTZ-JKFIT
	 Reference Energy          =    -457.4720222617444847 [Eh]
	 Singles Energy            =      -0.0000000000000000 [Eh]
	 Same-Spin Energy          =      -0.4787561708496240 [Eh]
	 Opposite-Spin Energy      =      -1.4743231704190698 [Eh]
	 Correlation Energy        =      -1.9530793412686938 [Eh]
	 Total Energy              =    -459.4251016030131609 [Eh]

	 ================> DF-SCS-MP2 Energies <==================
	-----------------------------------------------------------
	 SCS Same-Spin Scale       =       0.3333333333333333 [-]
	 SCS Opposite-Spin Scale   =       1.2000000000000000 [-]
	 SCS Same-Spin Energy      =      -0.1595853902832080 [Eh]
	 SCS Opposite-Spin Energy  =      -1.7691878045028837 [Eh]
	 SCS Correlation Energy    =      -1.9287731947860918 [Eh]
	 SCS Total Energy          =    -459.4007954565306022 [Eh]
	-----------------------------------------------------------

  Dipole Moment: [D]
     X:    -2.9599      Y:    -1.6519      Z:     1.2003     Total:     3.5959

*** Psi4 exiting successfully. Buy a developer a beer!
