                               Psi4 1.4a3.dev225

  ==> Input File <==

--------------------------------------------------------------------------
#psi4
#
memory 32 gb

molecule  {
0 1
  O       -0.0048250     2.1741760     0.2178480
  O        2.2663170     0.9084740    -0.5920830
  C        0.2215980    -0.1887240    -0.0416380
  C       -0.5997910     0.9512430     0.0794500
  C       -0.3937360    -1.4453650    -0.1432710
  C        1.7354296    -0.0589639    -0.1025427
  C       -1.9917600     0.8092840     0.0995930
  C       -1.7801750    -1.5845230    -0.1400000
  C       -2.5802090    -0.4482640    -0.0192820
  C        2.5274150    -1.2247570     0.4590770
  H        0.2262520    -2.3327300    -0.2378970
  H       -2.6178000     1.6952910     0.2019520
  H       -2.2312480    -2.5684970    -0.2333300
  H       -3.6639410    -0.5356590    -0.0094230
  H        2.1619230    -1.5277990     1.4440180
  H        3.5676560    -0.9027370     0.5247450
  H        2.4738770    -2.0960730    -0.2017770
  H       -0.7089870     2.8349930     0.3487360
units angstrom
no_reorient  #important for SAPT in psi4, default
symmetry c1  #important for SAPT in psi4, default
}

set PROPERTIES_ORIGIN ["COM"]
properties('MP2/aug-cc-pvtz', properties = ['dipole'])
--------------------------------------------------------------------------

    Molecular point group: c1
  Charge       = 0
  Multiplicity = 1
  Basis Set: AUG-CC-PVTZ
    Blend: AUG-CC-PVTZ
  Basis Set: (AUG-CC-PVTZ AUX)
    Blend: AUG-CC-PVTZ-JKFIT

    Orbital Energies [Eh]
    ---------------------

    Doubly Occupied:

       1A    -20.596299     2A    -20.540280     3A    -11.332840
       4A    -11.322617     5A    -11.259432     6A    -11.259325
       7A    -11.249057     8A    -11.246208     9A    -11.240636
      10A    -11.233074    11A     -1.410506    12A     -1.382963
      13A     -1.161611    14A     -1.053965    15A     -1.017693
      16A     -0.995040    17A     -0.868016    18A     -0.845457
      19A     -0.762053    20A     -0.739494    21A     -0.681419
      22A     -0.669748    23A     -0.637490    24A     -0.623355
      25A     -0.611017    26A     -0.601623    27A     -0.587994
      28A     -0.576446    29A     -0.550249    30A     -0.532471
      31A     -0.520481    32A     -0.501448    33A     -0.485200
      34A     -0.408707    35A     -0.355291    36A     -0.326035

  @DF-RHF Final Energy:  -457.48573144519906

   => Energetics <=

    Nuclear Repulsion Energy =            494.7882583729183921
    One-Electron Energy =               -1604.1768963517090469
    Two-Electron Energy =                 651.9029065335915902
    Total Energy =                       -457.4857314451991215
  Basis Set: (AUG-CC-PVTZ AUX)
    Blend: AUG-CC-PVTZ-RI
    Molecular point group: c1

    Geometry (in Angstrom), charge = 0, multiplicity = 1:

       Center              X                  Y                   Z               Mass
    ------------   -----------------  -----------------  -----------------  -----------------
         O           -0.012462960851     2.133381736190     0.231356193183    15.994914619570
         O            2.258679039149     0.867679736190    -0.578574806817    15.994914619570
         C            0.213960039149    -0.229518263810    -0.028129806817    12.000000000000
         C           -0.607428960851     0.910448736190     0.092958193183    12.000000000000
         C           -0.401373960851    -1.486159263810    -0.129762806817    12.000000000000
         C            1.727791639149    -0.099758163810    -0.089034506817    12.000000000000
         C           -1.999397960851     0.768489736190     0.113101193183    12.000000000000
         C           -1.787812960851    -1.625317263810    -0.126491806817    12.000000000000
         C           -2.587846960851    -0.489058263810    -0.005773806817    12.000000000000
         C            2.519777039149    -1.265551263810     0.472585193183    12.000000000000
         H            0.218614039149    -2.373524263810    -0.224388806817     1.007825032230
         H           -2.625437960851     1.654496736190     0.215460193183     1.007825032230
         H           -2.238885960851    -2.609291263810    -0.219821806817     1.007825032230
         H           -3.671578960851    -0.576453263810     0.004085193183     1.007825032230
         H            2.154285039149    -1.568593263810     1.457526193183     1.007825032230
         H            3.560018039149    -0.943531263810     0.538253193183     1.007825032230
         H            2.466239039149    -2.136867263810    -0.188268806817     1.007825032230
         H           -0.716624960851     2.794198736190     0.362244193183     1.007825032230

  Basis Set: AUG-CC-PVTZ
    Blend: AUG-CC-PVTZ
  Basis Set: (AUG-CC-PVTZ AUX)
    Blend: AUG-CC-PVTZ-JKFIT
	 Reference Energy          =    -457.4857314451990646 [Eh]
	 Singles Energy            =      -0.0000000000000000 [Eh]
	 Same-Spin Energy          =      -0.4776224163939480 [Eh]
	 Opposite-Spin Energy      =      -1.4723185174297813 [Eh]
	 Correlation Energy        =      -1.9499409338237292 [Eh]
	 Total Energy              =    -459.4356723790227761 [Eh]

	 ================> DF-SCS-MP2 Energies <==================
	-----------------------------------------------------------
	 SCS Same-Spin Scale       =       0.3333333333333333 [-]
	 SCS Opposite-Spin Scale   =       1.2000000000000000 [-]
	 SCS Same-Spin Energy      =      -0.1592074721313160 [Eh]
	 SCS Opposite-Spin Energy  =      -1.7667822209157376 [Eh]
	 SCS Correlation Energy    =      -1.9259896930470535 [Eh]
	 SCS Total Energy          =    -459.4117211382460937 [Eh]
	-----------------------------------------------------------

  Dipole Moment: [D]
     X:    -2.7648      Y:    -1.4485      Z:     1.1927     Total:     3.3414

*** Psi4 exiting successfully. Buy a developer a beer!
