                               Psi4 1.4a3.dev225

  ==> Input File <==

--------------------------------------------------------------------------
#psi4
#
memory 32 gb

molecule  {
0 1
  O       -0.0048250     2.1741760     0.2178480
  O        2.2663170     0.9084740    -0.5920830
  C        0.2215980    -0.1887240    -0.0416380
  C       -0.5997910     0.9512430     0.0794500
  C       -0.3937360    -1.4453650    -0.1432710
  C        1.7133810    -0.0735570    -0.1011180
  C       -1.9917600     0.8092840     0.0995930
  C       -1.7801750    -1.5845230    -0.1400000
  C       -2.5802090    -0.4482640    -0.0192820
  C        2.5274150    -1.2247570     0.4590770
  H        0.2262520    -2.3327300    -0.2378970
  H       -2.6178000     1.6952910     0.2019520
  H       -2.2312480    -2.5684970    -0.2333300
  H       -3.6639410    -0.5356590    -0.0094230
  H        2.1560735    -1.5629294     1.4302992
  H        3.5676560    -0.9027370     0.5247450
  H        2.4738770    -2.0960730    -0.2017770
  H       -0.7089870     2.8349930     0.3487360
units angstrom
no_reorient  #important for SAPT in psi4, default
symmetry c1  #important for SAPT in psi4, default
}

set PROPERTIES_ORIGIN ["COM"]
properties('MP2/aug-cc-pvtz', properties = ['dipole'])
--------------------------------------------------------------------------

    Molecular point group: c1
  Charge       = 0
  Multiplicity = 1
  Basis Set: AUG-CC-PVTZ
    Blend: AUG-CC-PVTZ
  Basis Set: (AUG-CC-PVTZ AUX)
    Blend: AUG-CC-PVTZ-JKFIT

    Orbital Energies [Eh]
    ---------------------

    Doubly Occupied:

       1A    -20.597180     2A    -20.537750     3A    -11.333487
       4A    -11.324737     5A    -11.261228     6A    -11.261172
       7A    -11.249876     8A    -11.247474     9A    -11.241843
      10A    -11.233383    11A     -1.410803    12A     -1.367590
      13A     -1.163665    14A     -1.057211    15A     -1.019270
      16A     -0.994850    17A     -0.871351    18A     -0.848029
      19A     -0.764306    20A     -0.740576    21A     -0.681304
      22A     -0.669820    23A     -0.637689    24A     -0.621563
      25A     -0.610441    26A     -0.599202    27A     -0.585940
      28A     -0.575342    29A     -0.552606    30A     -0.532378
      31A     -0.520944    32A     -0.499408    33A     -0.479703
      34A     -0.411020    35A     -0.356520    36A     -0.327300

  @DF-RHF Final Energy:  -457.48399655078100

   => Energetics <=

    Nuclear Repulsion Energy =            494.8151607257595970
    One-Electron Energy =               -1604.2243944571084739
    Two-Electron Energy =                 651.9252371805678195
    Total Energy =                       -457.4839965507810575
  Basis Set: (AUG-CC-PVTZ AUX)
    Blend: AUG-CC-PVTZ-RI
    Molecular point group: c1

    Geometry (in Angstrom), charge = 0, multiplicity = 1:

       Center              X                  Y                   Z               Mass
    ------------   -----------------  -----------------  -----------------  -----------------
         O           -0.010474914967     2.134929099198     0.231332156494    15.994914619570
         O            2.260667085033     0.869227099198    -0.578598843506    15.994914619570
         C            0.215948085033    -0.227970900802    -0.028153843506    12.000000000000
         C           -0.605440914967     0.911996099198     0.092934156494    12.000000000000
         C           -0.399385914967    -1.484611900802    -0.129786843506    12.000000000000
         C            1.707731085033    -0.112803900802    -0.087633843506    12.000000000000
         C           -1.997409914967     0.770037099198     0.113077156494    12.000000000000
         C           -1.785824914967    -1.623769900802    -0.126515843506    12.000000000000
         C           -2.585858914967    -0.487510900802    -0.005797843506    12.000000000000
         C            2.521765085033    -1.264003900802     0.472561156494    12.000000000000
         H            0.220602085033    -2.371976900802    -0.224412843506     1.007825032230
         H           -2.623449914967     1.656044099198     0.215436156494     1.007825032230
         H           -2.236897914967    -2.607743900802    -0.219845843506     1.007825032230
         H           -3.669590914967    -0.574905900802     0.004061156494     1.007825032230
         H            2.150423585033    -1.602176300802     1.443783356494     1.007825032230
         H            3.562006085033    -0.941983900802     0.538229156494     1.007825032230
         H            2.468227085033    -2.135319900802    -0.188292843506     1.007825032230
         H           -0.714636914967     2.795746099198     0.362220156494     1.007825032230

  Basis Set: AUG-CC-PVTZ
    Blend: AUG-CC-PVTZ
  Basis Set: (AUG-CC-PVTZ AUX)
    Blend: AUG-CC-PVTZ-JKFIT
	 Reference Energy          =    -457.4839965507810007 [Eh]
	 Singles Energy            =      -0.0000000000000000 [Eh]
	 Same-Spin Energy          =      -0.4783039538191937 [Eh]
	 Opposite-Spin Energy      =      -1.4737460785648702 [Eh]
	 Correlation Energy        =      -1.9520500323840639 [Eh]
	 Total Energy              =    -459.4360465831650799 [Eh]

	 ================> DF-SCS-MP2 Energies <==================
	-----------------------------------------------------------
	 SCS Same-Spin Scale       =       0.3333333333333333 [-]
	 SCS Opposite-Spin Scale   =       1.2000000000000000 [-]
	 SCS Same-Spin Energy      =      -0.1594346512730646 [Eh]
	 SCS Opposite-Spin Energy  =      -1.7684952942778442 [Eh]
	 SCS Correlation Energy    =      -1.9279299455509089 [Eh]
	 SCS Total Energy          =    -459.4119264963318869 [Eh]
	-----------------------------------------------------------

  Dipole Moment: [D]
     X:    -2.9357      Y:    -1.5044      Z:     1.2166     Total:     3.5159

*** Psi4 exiting successfully. Buy a developer a beer!
