                               Psi4 1.4a3.dev225

  ==> Input File <==

--------------------------------------------------------------------------
#psi4
#
memory 32 gb

molecule  {
0 1
  O       -0.0048250     2.1741760     0.2178480
  O        2.2663170     0.9084740    -0.5920830
  C        0.2215980    -0.1887240    -0.0416380
  C       -0.5997910     0.9512430     0.0794500
  C       -0.3937360    -1.4453650    -0.1432710
  C        1.7133810    -0.0735570    -0.1011180
  C       -1.9917600     0.8092840     0.0995930
  C       -1.7801750    -1.5845230    -0.1400000
  C       -2.5802090    -0.4482640    -0.0192820
  C        2.5274150    -1.2247570     0.4590770
  H        0.2262520    -2.3327300    -0.2378970
  H       -2.6178000     1.6952910     0.2019520
  H       -2.2312480    -2.5684970    -0.2333300
  H       -3.6639410    -0.5356590    -0.0094230
  H        2.1619230    -1.5277990     1.4440180
  H        3.5867269    -0.8968334     0.5259489
  H        2.4738770    -2.0960730    -0.2017770
  H       -0.7089870     2.8349930     0.3487360
units angstrom
no_reorient  #important for SAPT in psi4, default
symmetry c1  #important for SAPT in psi4, default
}

set PROPERTIES_ORIGIN ["COM"]
properties('MP2/aug-cc-pvtz', properties = ['dipole'])
--------------------------------------------------------------------------

    Molecular point group: c1
  Charge       = 0
  Multiplicity = 1
  Basis Set: AUG-CC-PVTZ
    Blend: AUG-CC-PVTZ
  Basis Set: (AUG-CC-PVTZ AUX)
    Blend: AUG-CC-PVTZ-JKFIT

    Orbital Energies [Eh]
    ---------------------

    Doubly Occupied:

       1A    -20.597226     2A    -20.537544     3A    -11.333236
       4A    -11.324806     5A    -11.261272     6A    -11.261225
       7A    -11.249975     8A    -11.247519     9A    -11.241870
      10A    -11.235545    11A     -1.410843    12A     -1.367397
      13A     -1.163718    14A     -1.057148    15A     -1.019314
      16A     -0.993592    17A     -0.871166    18A     -0.847791
      19A     -0.763724    20A     -0.740557    21A     -0.681017
      22A     -0.669435    23A     -0.636921    24A     -0.621480
      25A     -0.610464    26A     -0.599536    27A     -0.587695
      28A     -0.575350    29A     -0.548080    30A     -0.531754
      31A     -0.520775    32A     -0.499898    33A     -0.479989
      34A     -0.410690    35A     -0.356561    36A     -0.327344

  @DF-RHF Final Energy:  -457.48359379250621

   => Energetics <=

    Nuclear Repulsion Energy =            494.7408787784110586
    One-Electron Energy =               -1604.0840336427991133
    Two-Electron Energy =                 651.8595610718817852
    Total Energy =                       -457.4835937925062126
  Basis Set: (AUG-CC-PVTZ AUX)
    Blend: AUG-CC-PVTZ-RI
    Molecular point group: c1

    Geometry (in Angstrom), charge = 0, multiplicity = 1:

       Center              X                  Y                   Z               Mass
    ------------   -----------------  -----------------  -----------------  -----------------
         O           -0.010659515881     2.134625134818     0.231221614766    15.994914619570
         O            2.260482484119     0.868923134818    -0.578709385234    15.994914619570
         C            0.215763484119    -0.228274865182    -0.028264385234    12.000000000000
         C           -0.605625515881     0.911692134818     0.092823614766    12.000000000000
         C           -0.399570515881    -1.484915865182    -0.129897385234    12.000000000000
         C            1.707546484119    -0.113107865182    -0.087744385234    12.000000000000
         C           -1.997594515881     0.769733134818     0.112966614766    12.000000000000
         C           -1.786009515881    -1.624073865182    -0.126626385234    12.000000000000
         C           -2.586043515881    -0.487814865182    -0.005908385234    12.000000000000
         C            2.521580484119    -1.264307865182     0.472450614766    12.000000000000
         H            0.220417484119    -2.372280865182    -0.224523385234     1.007825032230
         H           -2.623634515881     1.655740134818     0.215325614766     1.007825032230
         H           -2.237082515881    -2.608047865182    -0.219956385234     1.007825032230
         H           -3.669775515881    -0.575209865182     0.003950614766     1.007825032230
         H            2.156088484119    -1.567349865182     1.457391614766     1.007825032230
         H            3.580892384119    -0.936384265182     0.539322514766     1.007825032230
         H            2.468042484119    -2.135623865182    -0.188403385234     1.007825032230
         H           -0.714821515881     2.795442134818     0.362109614766     1.007825032230

  Basis Set: AUG-CC-PVTZ
    Blend: AUG-CC-PVTZ
  Basis Set: (AUG-CC-PVTZ AUX)
    Blend: AUG-CC-PVTZ-JKFIT
	 Reference Energy          =    -457.4835937925062126 [Eh]
	 Singles Energy            =      -0.0000000000000000 [Eh]
	 Same-Spin Energy          =      -0.4782897406178703 [Eh]
	 Opposite-Spin Energy      =      -1.4738834417831954 [Eh]
	 Correlation Energy        =      -1.9521731824010657 [Eh]
	 Total Energy              =    -459.4357669749072670 [Eh]

	 ================> DF-SCS-MP2 Energies <==================
	-----------------------------------------------------------
	 SCS Same-Spin Scale       =       0.3333333333333333 [-]
	 SCS Opposite-Spin Scale   =       1.2000000000000000 [-]
	 SCS Same-Spin Energy      =      -0.1594299135392901 [Eh]
	 SCS Opposite-Spin Energy  =      -1.7686601301398344 [Eh]
	 SCS Correlation Energy    =      -1.9280900436791244 [Eh]
	 SCS Total Energy          =    -459.4116838361853183 [Eh]
	-----------------------------------------------------------

  Dipole Moment: [D]
     X:    -2.9389      Y:    -1.4898      Z:     1.2175     Total:     3.5127

*** Psi4 exiting successfully. Buy a developer a beer!
