                               Psi4 1.4a3.dev225

  ==> Input File <==

--------------------------------------------------------------------------
#psi4
#
memory 32 gb

molecule  {
0 1
  O       -0.0048250     2.1741760     0.2178480
  O        2.2663170     0.9084740    -0.5920830
  C        0.2215980    -0.1887240    -0.0416380
  C       -0.5997910     0.9512430     0.0794500
  C       -0.3937360    -1.4453650    -0.1432710
  C        1.7133810    -0.0735570    -0.1011180
  C       -2.1269951     0.8633592     0.1074942
  C       -1.7801750    -1.5845230    -0.1400000
  C       -2.5802090    -0.4482640    -0.0192820
  C        2.5274150    -1.2247570     0.4590770
  H        0.2262520    -2.3327300    -0.2378970
  H       -2.6178000     1.6952910     0.2019520
  H       -2.2312480    -2.5684970    -0.2333300
  H       -3.6639410    -0.5356590    -0.0094230
  H        2.1619230    -1.5277990     1.4440180
  H        3.5676560    -0.9027370     0.5247450
  H        2.4738770    -2.0960730    -0.2017770
  H       -0.7089870     2.8349930     0.3487360
units angstrom
no_reorient  #important for SAPT in psi4, default
symmetry c1  #important for SAPT in psi4, default
}

set PROPERTIES_ORIGIN ["COM"]
properties('MP2/aug-cc-pvtz', properties = ['dipole'])
--------------------------------------------------------------------------

    Molecular point group: c1
  Charge       = 0
  Multiplicity = 1
  Basis Set: AUG-CC-PVTZ
    Blend: AUG-CC-PVTZ
  Basis Set: (AUG-CC-PVTZ AUX)
    Blend: AUG-CC-PVTZ-JKFIT

    Orbital Energies [Eh]
    ---------------------

    Doubly Occupied:

       1A    -20.601728     2A    -20.536638     3A    -11.340627
       4A    -11.333248     5A    -11.263634     6A    -11.262557
       7A    -11.251775     8A    -11.247652     9A    -11.240327
      10A    -11.233595    11A     -1.413243    12A     -1.366952
      13A     -1.154969    14A     -1.058524    15A     -1.010437
      16A     -0.995348    17A     -0.870938    18A     -0.849166
      19A     -0.769327    20A     -0.737908    21A     -0.685778
      22A     -0.670686    23A     -0.640110    24A     -0.635142
      25A     -0.612078    26A     -0.598420    27A     -0.586777
      28A     -0.574063    29A     -0.552593    30A     -0.539378
      31A     -0.503896    32A     -0.498742    33A     -0.478634
      34A     -0.409155    35A     -0.359742    36A     -0.317463

  @DF-RHF Final Energy:  -457.45645682782504

   => Energetics <=

    Nuclear Repulsion Energy =            492.1991851932592681
    One-Electron Energy =               -1598.9087876850799148
    Two-Electron Energy =                 649.2531456639954968
    Total Energy =                       -457.4564568278250363
  Basis Set: (AUG-CC-PVTZ AUX)
    Blend: AUG-CC-PVTZ-RI
    Molecular point group: c1

    Geometry (in Angstrom), charge = 0, multiplicity = 1:

       Center              X                  Y                   Z               Mass
    ------------   -----------------  -----------------  -----------------  -----------------
         O            0.001409664628     2.129899363977     0.230533636758    15.994914619570
         O            2.272551664628     0.864197363977    -0.579397363242    15.994914619570
         C            0.227832664628    -0.233000636023    -0.028952363242    12.000000000000
         C           -0.593556335372     0.906966363977     0.092135636758    12.000000000000
         C           -0.387501335372    -1.489641636023    -0.130585363242    12.000000000000
         C            1.719615664628    -0.117833636023    -0.088432363242    12.000000000000
         C           -2.120760435372     0.819082563977     0.120179836758    12.000000000000
         C           -1.773940335372    -1.628799636023    -0.127314363242    12.000000000000
         C           -2.573974335372    -0.492540636023    -0.006596363242    12.000000000000
         C            2.533649664628    -1.269033636023     0.471762636758    12.000000000000
         H            0.232486664628    -2.377006636023    -0.225211363242     1.007825032230
         H           -2.611565335372     1.651014363977     0.214637636758     1.007825032230
         H           -2.225013335372    -2.612773636023    -0.220644363242     1.007825032230
         H           -3.657706335372    -0.579935636023     0.003262636758     1.007825032230
         H            2.168157664628    -1.572075636023     1.456703636758     1.007825032230
         H            3.573890664628    -0.947013636023     0.537430636758     1.007825032230
         H            2.480111664628    -2.140349636023    -0.189091363242     1.007825032230
         H           -0.702752335372     2.790716363977     0.361421636758     1.007825032230

  Basis Set: AUG-CC-PVTZ
    Blend: AUG-CC-PVTZ
  Basis Set: (AUG-CC-PVTZ AUX)
    Blend: AUG-CC-PVTZ-JKFIT
	 Reference Energy          =    -457.4564568278250363 [Eh]
	 Singles Energy            =      -0.0000000000000000 [Eh]
	 Same-Spin Energy          =      -0.4779879323213213 [Eh]
	 Opposite-Spin Energy      =      -1.4751384760576776 [Eh]
	 Correlation Energy        =      -1.9531264083789988 [Eh]
	 Total Energy              =    -459.4095832362040142 [Eh]

	 ================> DF-SCS-MP2 Energies <==================
	-----------------------------------------------------------
	 SCS Same-Spin Scale       =       0.3333333333333333 [-]
	 SCS Opposite-Spin Scale   =       1.2000000000000000 [-]
	 SCS Same-Spin Energy      =      -0.1593293107737738 [Eh]
	 SCS Opposite-Spin Energy  =      -1.7701661712692129 [Eh]
	 SCS Correlation Energy    =      -1.9294954820429866 [Eh]
	 SCS Total Energy          =    -459.3859523098680029 [Eh]
	-----------------------------------------------------------

  Dipole Moment: [D]
     X:    -2.8606      Y:    -1.3273      Z:     1.2384     Total:     3.3880

*** Psi4 exiting successfully. Buy a developer a beer!
