                               Psi4 1.4a3.dev225

  ==> Input File <==

--------------------------------------------------------------------------
#psi4
#
memory 32 gb

molecule  {
0 1
  O       -0.0048250     2.1741760     0.2178480
  O        2.2663170     0.9084740    -0.5920830
  C        0.2215980    -0.1887240    -0.0416380
  C       -0.5997910     0.9512430     0.0794500
  C       -0.3937360    -1.4453650    -0.1432710
  C        1.7133810    -0.0735570    -0.1011180
  C       -1.9917600     0.8092840     0.0995930
  C       -1.7801750    -1.5845230    -0.1400000
  C       -2.5802090    -0.4482640    -0.0192820
  C        2.5274150    -1.2247570     0.4590770
  H        0.2262520    -2.3327300    -0.2378970
  H       -2.6178000     1.6952910     0.2019520
  H       -2.2312480    -2.5684970    -0.2333300
  H       -3.6639410    -0.5356590    -0.0094230
  H        2.1619230    -1.5277990     1.4440180
  H        3.4723017    -0.9322552     0.5187255
  H        2.4738770    -2.0960730    -0.2017770
  H       -0.7089870     2.8349930     0.3487360
units angstrom
no_reorient  #important for SAPT in psi4, default
symmetry c1  #important for SAPT in psi4, default
}

set PROPERTIES_ORIGIN ["COM"]
properties('MP2/aug-cc-pvtz', properties = ['dipole'])
--------------------------------------------------------------------------

    Molecular point group: c1
  Charge       = 0
  Multiplicity = 1
  Basis Set: AUG-CC-PVTZ
    Blend: AUG-CC-PVTZ
  Basis Set: (AUG-CC-PVTZ AUX)
    Blend: AUG-CC-PVTZ-JKFIT

    Orbital Energies [Eh]
    ---------------------

    Doubly Occupied:

       1A    -20.596966     2A    -20.537673     3A    -11.332729
       4A    -11.324370     5A    -11.260875     6A    -11.260794
       7A    -11.249254     8A    -11.247164     9A    -11.241513
      10A    -11.221902    11A     -1.410588    12A     -1.367613
      13A     -1.163302    14A     -1.057893    15A     -1.018959
      16A     -1.002877    17A     -0.872003    18A     -0.849181
      19A     -0.766168    20A     -0.740216    21A     -0.680775
      22A     -0.669379    23A     -0.640222    24A     -0.621203
      25A     -0.612670    26A     -0.599846    27A     -0.587267
      28A     -0.577418    29A     -0.565163    30A     -0.532465
      31A     -0.521000    32A     -0.499588    33A     -0.480113
      34A     -0.410219    35A     -0.356209    36A     -0.327002

  @DF-RHF Final Energy:  -457.47810944018767

   => Energetics <=

    Nuclear Repulsion Energy =            495.3259834712619636
    One-Electron Energy =               -1605.2030241361630942
    Two-Electron Energy =                 652.3989312247135786
    Total Energy =                       -457.4781094401876089
  Basis Set: (AUG-CC-PVTZ AUX)
    Blend: AUG-CC-PVTZ-RI
    Molecular point group: c1

    Geometry (in Angstrom), charge = 0, multiplicity = 1:

       Center              X                  Y                   Z               Mass
    ------------   -----------------  -----------------  -----------------  -----------------
         O           -0.009811897200     2.134887526139     0.231275122986    15.994914619570
         O            2.261330102800     0.869185526139    -0.578655877014    15.994914619570
         C            0.216611102800    -0.228012473861    -0.028210877014    12.000000000000
         C           -0.604777897200     0.911954526139     0.092877122986    12.000000000000
         C           -0.398722897200    -1.484653473861    -0.129843877014    12.000000000000
         C            1.708394102800    -0.112845473861    -0.087690877014    12.000000000000
         C           -1.996746897200     0.769995526139     0.113020122986    12.000000000000
         C           -1.785161897200    -1.623811473861    -0.126572877014    12.000000000000
         C           -2.585195897200    -0.487552473861    -0.005854877014    12.000000000000
         C            2.522428102800    -1.264045473861     0.472504122986    12.000000000000
         H            0.221265102800    -2.372018473861    -0.224469877014     1.007825032230
         H           -2.622786897200     1.656002526139     0.215379122986     1.007825032230
         H           -2.236234897200    -2.607785473861    -0.219902877014     1.007825032230
         H           -3.668927897200    -0.574947473861     0.004004122986     1.007825032230
         H            2.156936102800    -1.567087473861     1.457445122986     1.007825032230
         H            3.467314802800    -0.971543673861     0.532152622986     1.007825032230
         H            2.468890102800    -2.135361473861    -0.188349877014     1.007825032230
         H           -0.713973897200     2.795704526139     0.362163122986     1.007825032230

  Basis Set: AUG-CC-PVTZ
    Blend: AUG-CC-PVTZ
  Basis Set: (AUG-CC-PVTZ AUX)
    Blend: AUG-CC-PVTZ-JKFIT
	 Reference Energy          =    -457.4781094401876658 [Eh]
	 Singles Energy            =      -0.0000000000000000 [Eh]
	 Same-Spin Energy          =      -0.4782510108506844 [Eh]
	 Opposite-Spin Energy      =      -1.4731936864948540 [Eh]
	 Correlation Energy        =      -1.9514446973455386 [Eh]
	 Total Energy              =    -459.4295541375332164 [Eh]

	 ================> DF-SCS-MP2 Energies <==================
	-----------------------------------------------------------
	 SCS Same-Spin Scale       =       0.3333333333333333 [-]
	 SCS Opposite-Spin Scale   =       1.2000000000000000 [-]
	 SCS Same-Spin Energy      =      -0.1594170036168948 [Eh]
	 SCS Opposite-Spin Energy  =      -1.7678324237938248 [Eh]
	 SCS Correlation Energy    =      -1.9272494274107195 [Eh]
	 SCS Total Energy          =    -459.4053588675984088 [Eh]
	-----------------------------------------------------------

  Dipole Moment: [D]
     X:    -2.9009      Y:    -1.5031      Z:     1.2263     Total:     3.4898

*** Psi4 exiting successfully. Buy a developer a beer!
