                               Psi4 1.4a3.dev225

  ==> Input File <==

--------------------------------------------------------------------------
#psi4
#
memory 32 gb

molecule  {
0 1
  O       -0.0048250     2.1741760     0.2178480
  O        2.2663170     0.9084740    -0.5920830
  C        0.2215980    -0.1887240    -0.0416380
  C       -0.5997910     0.9512430     0.0794500
  C       -0.3937360    -1.4453650    -0.1432710
  C        1.7133810    -0.0735570    -0.1011180
  C       -1.9917600     0.8092840     0.0995930
  C       -1.7801750    -1.5845230    -0.1400000
  C       -2.5802090    -0.4482640    -0.0192820
  C        2.5274150    -1.2247570     0.4590770
  H        0.2262520    -2.3327300    -0.2378970
  H       -2.6178000     1.6952910     0.2019520
  H       -2.2312480    -2.5684970    -0.2333300
  H       -3.6639410    -0.5356590    -0.0094230
  H        2.1619230    -1.5277990     1.4440180
  H        3.5676560    -0.9027370     0.5247450
  H        2.4738770    -2.0960730    -0.2017770
  H       -0.7451163     2.8688984     0.3554516
units angstrom
no_reorient  #important for SAPT in psi4, default
symmetry c1  #important for SAPT in psi4, default
}

set PROPERTIES_ORIGIN ["COM"]
properties('MP2/aug-cc-pvtz', properties = ['dipole'])
--------------------------------------------------------------------------

    Molecular point group: c1
  Charge       = 0
  Multiplicity = 1
  Basis Set: AUG-CC-PVTZ
    Blend: AUG-CC-PVTZ
  Basis Set: (AUG-CC-PVTZ AUX)
    Blend: AUG-CC-PVTZ-JKFIT

    Orbital Energies [Eh]
    ---------------------

    Doubly Occupied:

       1A    -20.601044     2A    -20.537366     3A    -11.332942
       4A    -11.324317     5A    -11.260995     6A    -11.260907
       7A    -11.249565     8A    -11.247056     9A    -11.241444
      10A    -11.233166    11A     -1.401584    12A     -1.366822
      13A     -1.162759    14A     -1.056899    15A     -1.017685
      16A     -0.994420    17A     -0.870834    18A     -0.844346
      19A     -0.763647    20A     -0.733438    21A     -0.679642
      22A     -0.668772    23A     -0.636331    24A     -0.620599
      25A     -0.610190    26A     -0.598521    27A     -0.586664
      28A     -0.573032    29A     -0.550749    30A     -0.531481
      31A     -0.520162    32A     -0.499265    33A     -0.479735
      34A     -0.410318    35A     -0.356284    36A     -0.326679

  @DF-RHF Final Energy:  -457.47888759574016

   => Energetics <=

    Nuclear Repulsion Energy =            494.5232541858704280
    One-Electron Energy =               -1603.7049676637350331
    Two-Electron Energy =                 651.7028258821244435
    Total Energy =                       -457.4788875957401615
  Basis Set: (AUG-CC-PVTZ AUX)
    Blend: AUG-CC-PVTZ-RI
    Molecular point group: c1

    Geometry (in Angstrom), charge = 0, multiplicity = 1:

       Center              X                  Y                   Z               Mass
    ------------   -----------------  -----------------  -----------------  -----------------
         O           -0.010250613640     2.134417708056     0.231180786173    15.994914619570
         O            2.260891386360     0.868715708056    -0.578750213827    15.994914619570
         C            0.216172386360    -0.228482291944    -0.028305213827    12.000000000000
         C           -0.605216613640     0.911484708056     0.092782786173    12.000000000000
         C           -0.399161613640    -1.485123291944    -0.129938213827    12.000000000000
         C            1.707955386360    -0.113315291944    -0.087785213827    12.000000000000
         C           -1.997185613640     0.769525708056     0.112925786173    12.000000000000
         C           -1.785600613640    -1.624281291944    -0.126667213827    12.000000000000
         C           -2.585634613640    -0.488022291944    -0.005949213827    12.000000000000
         C            2.521989386360    -1.264515291944     0.472409786173    12.000000000000
         H            0.220826386360    -2.372488291944    -0.224564213827     1.007825032230
         H           -2.623225613640     1.655532708056     0.215284786173     1.007825032230
         H           -2.236673613640    -2.608255291944    -0.219997213827     1.007825032230
         H           -3.669366613640    -0.575417291944     0.003909786173     1.007825032230
         H            2.156497386360    -1.567557291944     1.457350786173     1.007825032230
         H            3.562230386360    -0.942495291944     0.538077786173     1.007825032230
         H            2.468451386360    -2.135831291944    -0.188444213827     1.007825032230
         H           -0.750541913640     2.829140108056     0.368784386173     1.007825032230

  Basis Set: AUG-CC-PVTZ
    Blend: AUG-CC-PVTZ
  Basis Set: (AUG-CC-PVTZ AUX)
    Blend: AUG-CC-PVTZ-JKFIT
	 Reference Energy          =    -457.4788875957401615 [Eh]
	 Singles Energy            =      -0.0000000000000000 [Eh]
	 Same-Spin Energy          =      -0.4789289589259187 [Eh]
	 Opposite-Spin Energy      =      -1.4753885250031777 [Eh]
	 Correlation Energy        =      -1.9543174839290964 [Eh]
	 Total Energy              =    -459.4332050796692783 [Eh]

	 ================> DF-SCS-MP2 Energies <==================
	-----------------------------------------------------------
	 SCS Same-Spin Scale       =       0.3333333333333333 [-]
	 SCS Opposite-Spin Scale   =       1.2000000000000000 [-]
	 SCS Same-Spin Energy      =      -0.1596429863086396 [Eh]
	 SCS Opposite-Spin Energy  =      -1.7704662300038132 [Eh]
	 SCS Correlation Energy    =      -1.9301092163124527 [Eh]
	 SCS Total Energy          =    -459.4089968120526351 [Eh]
	-----------------------------------------------------------

  Dipole Moment: [D]
     X:    -2.9511      Y:    -1.4431      Z:     1.2267     Total:     3.5066

*** Psi4 exiting successfully. Buy a developer a beer!
