                               Psi4 1.4a3.dev225

  ==> Input File <==

--------------------------------------------------------------------------
#psi4
#
memory 32 gb

molecule  {
0 1
  O       -0.0048250     2.1741760     0.2178480
  O        2.2663170     0.9084740    -0.5920830
  C        0.2215980    -0.1887240    -0.0416380
  C       -0.5997910     0.9512430     0.0794500
  C       -0.3937360    -1.4453650    -0.1432710
  C        1.8491544     0.0085900    -0.1070935
  C       -1.9917600     0.8092840     0.0995930
  C       -1.7801750    -1.5845230    -0.1400000
  C       -2.5802090    -0.4482640    -0.0192820
  C        2.5274150    -1.2247570     0.4590770
  H        0.2262520    -2.3327300    -0.2378970
  H       -2.6178000     1.6952910     0.2019520
  H       -2.2312480    -2.5684970    -0.2333300
  H       -3.6639410    -0.5356590    -0.0094230
  H        2.1619230    -1.5277990     1.4440180
  H        3.5676560    -0.9027370     0.5247450
  H        2.4738770    -2.0960730    -0.2017770
  H       -0.7089870     2.8349930     0.3487360
units angstrom
no_reorient  #important for SAPT in psi4, default
symmetry c1  #important for SAPT in psi4, default
}

set PROPERTIES_ORIGIN ["COM"]
properties('MP2/aug-cc-pvtz', properties = ['dipole'])
--------------------------------------------------------------------------

    Molecular point group: c1
  Charge       = 0
  Multiplicity = 1
  Basis Set: AUG-CC-PVTZ
    Blend: AUG-CC-PVTZ
  Basis Set: (AUG-CC-PVTZ AUX)
    Blend: AUG-CC-PVTZ-JKFIT

    Orbital Energies [Eh]
    ---------------------

    Doubly Occupied:

       1A    -20.591488     2A    -20.555223     3A    -11.332912
       4A    -11.311400     5A    -11.249669     6A    -11.249527
       7A    -11.239572     8A    -11.239175     9A    -11.234792
      10A    -11.233829    11A     -1.470492    12A     -1.403705
      13A     -1.150852    14A     -1.039749    15A     -1.009243
      16A     -0.996154    17A     -0.853829    18A     -0.831588
      19A     -0.754534    20A     -0.734692    21A     -0.690639
      22A     -0.671443    23A     -0.648773    24A     -0.635869
      25A     -0.617267    26A     -0.606061    27A     -0.588086
      28A     -0.575581    29A     -0.551691    30A     -0.539559
      31A     -0.529843    32A     -0.511482    33A     -0.485569
      34A     -0.387919    35A     -0.346876    36A     -0.318371

  @DF-RHF Final Energy:  -457.46103170267645

   => Energetics <=

    Nuclear Repulsion Energy =            494.6856332823272737
    One-Electron Energy =               -1603.9184216578585165
    Two-Electron Energy =                 651.7717566728548491
    Total Energy =                       -457.4610317026764505
  Basis Set: (AUG-CC-PVTZ AUX)
    Blend: AUG-CC-PVTZ-RI
    Molecular point group: c1

    Geometry (in Angstrom), charge = 0, multiplicity = 1:

       Center              X                  Y                   Z               Mass
    ------------   -----------------  -----------------  -----------------  -----------------
         O           -0.022493635092     2.127423394961     0.231757579620    15.994914619570
         O            2.248648364908     0.861721394961    -0.578173420380    15.994914619570
         C            0.203929364908    -0.235476605039    -0.027728420380    12.000000000000
         C           -0.617459635092     0.904490394961     0.093359579620    12.000000000000
         C           -0.411404635092    -1.492117605039    -0.129361420380    12.000000000000
         C            1.831485764908    -0.038162605039    -0.093183920380    12.000000000000
         C           -2.009428635092     0.762531394961     0.113502579620    12.000000000000
         C           -1.797843635092    -1.631275605039    -0.126090420380    12.000000000000
         C           -2.597877635092    -0.495016605039    -0.005372420380    12.000000000000
         C            2.509746364908    -1.271509605039     0.472986579620    12.000000000000
         H            0.208583364908    -2.379482605039    -0.223987420380     1.007825032230
         H           -2.635468635092     1.648538394961     0.215861579620     1.007825032230
         H           -2.248916635092    -2.615249605039    -0.219420420380     1.007825032230
         H           -3.681609635092    -0.582411605039     0.004486579620     1.007825032230
         H            2.144254364908    -1.574551605039     1.457927579620     1.007825032230
         H            3.549987364908    -0.949489605039     0.538654579620     1.007825032230
         H            2.456208364908    -2.142825605039    -0.187867420380     1.007825032230
         H           -0.726655635092     2.788240394961     0.362645579620     1.007825032230

  Basis Set: AUG-CC-PVTZ
    Blend: AUG-CC-PVTZ
  Basis Set: (AUG-CC-PVTZ AUX)
    Blend: AUG-CC-PVTZ-JKFIT
	 Reference Energy          =    -457.4610317026764505 [Eh]
	 Singles Energy            =      -0.0000000000000000 [Eh]
	 Same-Spin Energy          =      -0.4755724444283014 [Eh]
	 Opposite-Spin Energy      =      -1.4674107450762754 [Eh]
	 Correlation Energy        =      -1.9429831895045768 [Eh]
	 Total Energy              =    -459.4040148921810101 [Eh]

	 ================> DF-SCS-MP2 Energies <==================
	-----------------------------------------------------------
	 SCS Same-Spin Scale       =       0.3333333333333333 [-]
	 SCS Opposite-Spin Scale   =       1.2000000000000000 [-]
	 SCS Same-Spin Energy      =      -0.1585241481427671 [Eh]
	 SCS Opposite-Spin Energy  =      -1.7608928940915305 [Eh]
	 SCS Correlation Energy    =      -1.9194170422342975 [Eh]
	 SCS Total Energy          =    -459.3804487449107228 [Eh]
	-----------------------------------------------------------

  Dipole Moment: [D]
     X:    -1.7524      Y:    -1.1839      Z:     1.0490     Total:     2.3608

*** Psi4 exiting successfully. Buy a developer a beer!
