                               Psi4 1.4a3.dev225

  ==> Input File <==

--------------------------------------------------------------------------
#psi4
#
memory 32 gb

molecule  {
0 1
  O       -0.0048250     2.1741760     0.2178480
  O        2.2663170     0.9084740    -0.5920830
  C        0.2215980    -0.1887240    -0.0416380
  C       -0.5593449     0.9793000     0.0796677
  C       -0.3937360    -1.4453650    -0.1432710
  C        1.7133810    -0.0735570    -0.1011180
  C       -1.9917600     0.8092840     0.0995930
  C       -1.7801750    -1.5845230    -0.1400000
  C       -2.5802090    -0.4482640    -0.0192820
  C        2.5274150    -1.2247570     0.4590770
  H        0.2262520    -2.3327300    -0.2378970
  H       -2.6178000     1.6952910     0.2019520
  H       -2.2312480    -2.5684970    -0.2333300
  H       -3.6639410    -0.5356590    -0.0094230
  H        2.1619230    -1.5277990     1.4440180
  H        3.5676560    -0.9027370     0.5247450
  H        2.4738770    -2.0960730    -0.2017770
  H       -0.7089870     2.8349930     0.3487360
units angstrom
no_reorient  #important for SAPT in psi4, default
symmetry c1  #important for SAPT in psi4, default
}

set PROPERTIES_ORIGIN ["COM"]
properties('MP2/aug-cc-pvtz', properties = ['dipole'])
--------------------------------------------------------------------------

    Molecular point group: c1
  Charge       = 0
  Multiplicity = 1
  Basis Set: AUG-CC-PVTZ
    Blend: AUG-CC-PVTZ
  Basis Set: (AUG-CC-PVTZ AUX)
    Blend: AUG-CC-PVTZ-JKFIT

    Orbital Energies [Eh]
    ---------------------

    Doubly Occupied:

       1A    -20.605775     2A    -20.536367     3A    -11.331337
       4A    -11.330070     5A    -11.260174     6A    -11.259705
       7A    -11.249432     8A    -11.247166     9A    -11.239281
      10A    -11.232125    11A     -1.434225    12A     -1.367189
      13A     -1.158581    14A     -1.054987    15A     -1.013845
      16A     -0.993904    17A     -0.868299    18A     -0.852819
      19A     -0.761502    20A     -0.750380    21A     -0.681855
      22A     -0.674665    23A     -0.637632    24A     -0.621139
      25A     -0.613350    26A     -0.602252    27A     -0.592271
      28A     -0.575184    29A     -0.551040    30A     -0.532727
      31A     -0.515264    32A     -0.499322    33A     -0.478895
      34A     -0.408311    35A     -0.355031    36A     -0.320969

  @DF-RHF Final Energy:  -457.48197838941911

   => Energetics <=

    Nuclear Repulsion Energy =            494.8790743938741912
    One-Electron Energy =               -1604.3079632804572157
    Two-Electron Energy =                 651.9469104971639126
    Total Energy =                       -457.4819783894191687
  Basis Set: (AUG-CC-PVTZ AUX)
    Blend: AUG-CC-PVTZ-RI
    Molecular point group: c1

    Geometry (in Angstrom), charge = 0, multiplicity = 1:

       Center              X                  Y                   Z               Mass
    ------------   -----------------  -----------------  -----------------  -----------------
         O           -0.014085644112     2.132194202821     0.231211331382    15.994914619570
         O            2.257056355888     0.866492202821    -0.578719668618    15.994914619570
         C            0.212337355888    -0.230705797179    -0.028274668618    12.000000000000
         C           -0.568605544112     0.937318202821     0.093031031382    12.000000000000
         C           -0.402996644112    -1.487346797179    -0.129907668618    12.000000000000
         C            1.704120355888    -0.115538797179    -0.087754668618    12.000000000000
         C           -2.001020644112     0.767302202821     0.112956331382    12.000000000000
         C           -1.789435644112    -1.626504797179    -0.126636668618    12.000000000000
         C           -2.589469644112    -0.490245797179    -0.005918668618    12.000000000000
         C            2.518154355888    -1.266738797179     0.472440331382    12.000000000000
         H            0.216991355888    -2.374711797179    -0.224533668618     1.007825032230
         H           -2.627060644112     1.653309202821     0.215315331382     1.007825032230
         H           -2.240508644112    -2.610478797179    -0.219966668618     1.007825032230
         H           -3.673201644112    -0.577640797179     0.003940331382     1.007825032230
         H            2.152662355888    -1.569780797179     1.457381331382     1.007825032230
         H            3.558395355888    -0.944718797179     0.538108331382     1.007825032230
         H            2.464616355888    -2.138054797179    -0.188413668618     1.007825032230
         H           -0.718247644112     2.793011202821     0.362099331382     1.007825032230

  Basis Set: AUG-CC-PVTZ
    Blend: AUG-CC-PVTZ
  Basis Set: (AUG-CC-PVTZ AUX)
    Blend: AUG-CC-PVTZ-JKFIT
	 Reference Energy          =    -457.4819783894191119 [Eh]
	 Singles Energy            =      -0.0000000000000000 [Eh]
	 Same-Spin Energy          =      -0.4782271734152597 [Eh]
	 Opposite-Spin Energy      =      -1.4731723183830137 [Eh]
	 Correlation Energy        =      -1.9513994917982733 [Eh]
	 Total Energy              =    -459.4333778812173819 [Eh]

	 ================> DF-SCS-MP2 Energies <==================
	-----------------------------------------------------------
	 SCS Same-Spin Scale       =       0.3333333333333333 [-]
	 SCS Opposite-Spin Scale   =       1.2000000000000000 [-]
	 SCS Same-Spin Energy      =      -0.1594090578050865 [Eh]
	 SCS Opposite-Spin Energy  =      -1.7678067820596164 [Eh]
	 SCS Correlation Energy    =      -1.9272158398647030 [Eh]
	 SCS Total Energy          =    -459.4091942292837984 [Eh]
	-----------------------------------------------------------

  Dipole Moment: [D]
     X:    -2.8585      Y:    -1.2189      Z:     1.2506     Total:     3.3498

*** Psi4 exiting successfully. Buy a developer a beer!
