                               Psi4 1.4a3.dev225

  ==> Input File <==

--------------------------------------------------------------------------
#psi4
#
memory 32 gb

molecule  {
0 1
  O       -0.0048250     2.1741760     0.2178480
  O        2.2663170     0.9084740    -0.5920830
  C        0.2215980    -0.1887240    -0.0416380
  C       -0.7162776     1.1129093     0.0966223
  C       -0.3937360    -1.4453650    -0.1432710
  C        1.7133810    -0.0735570    -0.1011180
  C       -1.9917600     0.8092840     0.0995930
  C       -1.7801750    -1.5845230    -0.1400000
  C       -2.5802090    -0.4482640    -0.0192820
  C        2.5274150    -1.2247570     0.4590770
  H        0.2262520    -2.3327300    -0.2378970
  H       -2.6178000     1.6952910     0.2019520
  H       -2.2312480    -2.5684970    -0.2333300
  H       -3.6639410    -0.5356590    -0.0094230
  H        2.1619230    -1.5277990     1.4440180
  H        3.5676560    -0.9027370     0.5247450
  H        2.4738770    -2.0960730    -0.2017770
  H       -0.7089870     2.8349930     0.3487360
units angstrom
no_reorient  #important for SAPT in psi4, default
symmetry c1  #important for SAPT in psi4, default
}

set PROPERTIES_ORIGIN ["COM"]
properties('MP2/aug-cc-pvtz', properties = ['dipole'])
--------------------------------------------------------------------------

    Molecular point group: c1
  Charge       = 0
  Multiplicity = 1
  Basis Set: AUG-CC-PVTZ
    Blend: AUG-CC-PVTZ
  Basis Set: (AUG-CC-PVTZ AUX)
    Blend: AUG-CC-PVTZ-JKFIT

    Orbital Energies [Eh]
    ---------------------

    Doubly Occupied:

       1A    -20.621418     2A    -20.534094     3A    -11.331201
       4A    -11.329879     5A    -11.261759     6A    -11.258015
       7A    -11.256800     8A    -11.238677     9A    -11.233336
      10A    -11.230498    11A     -1.468439    12A     -1.365078
      13A     -1.154540    14A     -1.054908    15A     -1.022392
      16A     -0.982423    17A     -0.876943    18A     -0.846925
      19A     -0.768900    20A     -0.743476    21A     -0.692017
      22A     -0.672812    23A     -0.631319    24A     -0.626748
      25A     -0.616179    26A     -0.610239    27A     -0.594115
      28A     -0.578200    29A     -0.551401    30A     -0.538713
      31A     -0.501441    32A     -0.485203    33A     -0.472816
      34A     -0.405358    35A     -0.362499    36A     -0.312019

  @DF-RHF Final Energy:  -457.43968428045167

   => Energetics <=

    Nuclear Repulsion Energy =            493.5496380567296342
    One-Electron Energy =               -1601.5170822751460946
    Two-Electron Energy =                 650.5277599379647882
    Total Energy =                       -457.4396842804516155
  Basis Set: (AUG-CC-PVTZ AUX)
    Blend: AUG-CC-PVTZ-RI
    Molecular point group: c1

    Geometry (in Angstrom), charge = 0, multiplicity = 1:

       Center              X                  Y                   Z               Mass
    ------------   -----------------  -----------------  -----------------  -----------------
         O           -0.000243977286     2.120409689998     0.229715913764    15.994914619570
         O            2.270898022714     0.854707689998    -0.580215086236    15.994914619570
         C            0.226179022714    -0.242490310002    -0.029770086236    12.000000000000
         C           -0.711696577286     1.059142989998     0.108490213764    12.000000000000
         C           -0.389154977286    -1.499131310002    -0.131403086236    12.000000000000
         C            1.717962022714    -0.127323310002    -0.089250086236    12.000000000000
         C           -1.987178977286     0.755517689998     0.111460913764    12.000000000000
         C           -1.775593977286    -1.638289310002    -0.128132086236    12.000000000000
         C           -2.575627977286    -0.502030310002    -0.007414086236    12.000000000000
         C            2.531996022714    -1.278523310002     0.470944913764    12.000000000000
         H            0.230833022714    -2.386496310002    -0.226029086236     1.007825032230
         H           -2.613218977286     1.641524689998     0.213819913764     1.007825032230
         H           -2.226666977286    -2.622263310002    -0.221462086236     1.007825032230
         H           -3.659359977286    -0.589425310002     0.002444913764     1.007825032230
         H            2.166504022714    -1.581565310002     1.455885913764     1.007825032230
         H            3.572237022714    -0.956503310002     0.536612913764     1.007825032230
         H            2.478458022714    -2.149839310002    -0.189909086236     1.007825032230
         H           -0.704405977286     2.781226689998     0.360603913764     1.007825032230

  Basis Set: AUG-CC-PVTZ
    Blend: AUG-CC-PVTZ
  Basis Set: (AUG-CC-PVTZ AUX)
    Blend: AUG-CC-PVTZ-JKFIT
	 Reference Energy          =    -457.4396842804516723 [Eh]
	 Singles Energy            =      -0.0000000000000000 [Eh]
	 Same-Spin Energy          =      -0.4787108393428382 [Eh]
	 Opposite-Spin Energy      =      -1.4757746332385011 [Eh]
	 Correlation Energy        =      -1.9544854725813394 [Eh]
	 Total Energy              =    -459.3941697530329975 [Eh]

	 ================> DF-SCS-MP2 Energies <==================
	-----------------------------------------------------------
	 SCS Same-Spin Scale       =       0.3333333333333333 [-]
	 SCS Opposite-Spin Scale   =       1.2000000000000000 [-]
	 SCS Same-Spin Energy      =      -0.1595702797809461 [Eh]
	 SCS Opposite-Spin Energy  =      -1.7709295598862014 [Eh]
	 SCS Correlation Energy    =      -1.9304998396671473 [Eh]
	 SCS Total Energy          =    -459.3701841201188358 [Eh]
	-----------------------------------------------------------

  Dipole Moment: [D]
     X:    -2.8185      Y:    -0.9310      Z:     1.2964     Total:     3.2390

*** Psi4 exiting successfully. Buy a developer a beer!
