                               Psi4 1.4a3.dev225

  ==> Input File <==

--------------------------------------------------------------------------
#psi4
#
memory 32 gb

molecule  {
0 1
  O       -0.0048250     2.1741760     0.2178480
  O        2.2663170     0.9084740    -0.5920830
  C        0.2215980    -0.1887240    -0.0416380
  C       -0.6392364     0.9217971     0.0790847
  C       -0.3937360    -1.4453650    -0.1432710
  C        1.7133810    -0.0735570    -0.1011180
  C       -1.9917600     0.8092840     0.0995930
  C       -1.7801750    -1.5845230    -0.1400000
  C       -2.5802090    -0.4482640    -0.0192820
  C        2.5274150    -1.2247570     0.4590770
  H        0.2262520    -2.3327300    -0.2378970
  H       -2.6178000     1.6952910     0.2019520
  H       -2.2312480    -2.5684970    -0.2333300
  H       -3.6639410    -0.5356590    -0.0094230
  H        2.1619230    -1.5277990     1.4440180
  H        3.5676560    -0.9027370     0.5247450
  H        2.4738770    -2.0960730    -0.2017770
  H       -0.7089870     2.8349930     0.3487360
units angstrom
no_reorient  #important for SAPT in psi4, default
symmetry c1  #important for SAPT in psi4, default
}

set PROPERTIES_ORIGIN ["COM"]
properties('MP2/aug-cc-pvtz', properties = ['dipole'])
--------------------------------------------------------------------------

    Molecular point group: c1
  Charge       = 0
  Multiplicity = 1
  Basis Set: AUG-CC-PVTZ
    Blend: AUG-CC-PVTZ
  Basis Set: (AUG-CC-PVTZ AUX)
    Blend: AUG-CC-PVTZ-JKFIT

    Orbital Energies [Eh]
    ---------------------

    Doubly Occupied:

       1A    -20.588838     2A    -20.538589     3A    -11.334829
       4A    -11.319637     5A    -11.262606     6A    -11.262211
       7A    -11.252471     8A    -11.245099     9A    -11.244114
      10A    -11.234443    11A     -1.389846    12A     -1.366829
      13A     -1.169153    14A     -1.060091    15A     -1.024472
      16A     -0.995779    17A     -0.874737    18A     -0.843933
      19A     -0.767393    20A     -0.731340    21A     -0.680271
      22A     -0.665119    23A     -0.637799    24A     -0.622401
      25A     -0.609605    26A     -0.597635    27A     -0.580843
      28A     -0.574481    29A     -0.551077    30A     -0.531560
      31A     -0.523690    32A     -0.499463    33A     -0.480887
      34A     -0.412563    35A     -0.358806    36A     -0.332983

  @DF-RHF Final Energy:  -457.48033117063380

   => Energetics <=

    Nuclear Repulsion Energy =            494.8436226256764598
    One-Electron Energy =               -1604.3167182897527709
    Two-Electron Energy =                 651.9927644934424507
    Total Energy =                       -457.4803311706338036
  Basis Set: (AUG-CC-PVTZ AUX)
    Blend: AUG-CC-PVTZ-RI
    Molecular point group: c1

    Geometry (in Angstrom), charge = 0, multiplicity = 1:

       Center              X                  Y                   Z               Mass
    ------------   -----------------  -----------------  -----------------  -----------------
         O           -0.007039110629     2.137266032869     0.231262752735    15.994914619570
         O            2.264102889371     0.871564032869    -0.578668247265    15.994914619570
         C            0.219383889371    -0.225633967131    -0.028223247265    12.000000000000
         C           -0.641450510629     0.884887132869     0.092499452735    12.000000000000
         C           -0.395950110629    -1.482274967131    -0.129856247265    12.000000000000
         C            1.711166889371    -0.110466967131    -0.087703247265    12.000000000000
         C           -1.993974110629     0.772374032869     0.113007752735    12.000000000000
         C           -1.782389110629    -1.621432967131    -0.126585247265    12.000000000000
         C           -2.582423110629    -0.485173967131    -0.005867247265    12.000000000000
         C            2.525200889371    -1.261666967131     0.472491752735    12.000000000000
         H            0.224037889371    -2.369639967131    -0.224482247265     1.007825032230
         H           -2.620014110629     1.658381032869     0.215366752735     1.007825032230
         H           -2.233462110629    -2.605406967131    -0.219915247265     1.007825032230
         H           -3.666155110629    -0.572568967131     0.003991752735     1.007825032230
         H            2.159708889371    -1.564708967131     1.457432752735     1.007825032230
         H            3.565441889371    -0.939646967131     0.538159752735     1.007825032230
         H            2.471662889371    -2.132982967131    -0.188362247265     1.007825032230
         H           -0.711201110629     2.798083032869     0.362150752735     1.007825032230

  Basis Set: AUG-CC-PVTZ
    Blend: AUG-CC-PVTZ
  Basis Set: (AUG-CC-PVTZ AUX)
    Blend: AUG-CC-PVTZ-JKFIT
	 Reference Energy          =    -457.4803311706338036 [Eh]
	 Singles Energy            =      -0.0000000000000000 [Eh]
	 Same-Spin Energy          =      -0.4783800619695770 [Eh]
	 Opposite-Spin Energy      =      -1.4745395694978523 [Eh]
	 Correlation Energy        =      -1.9529196314674293 [Eh]
	 Total Energy              =    -459.4332508021012131 [Eh]

	 ================> DF-SCS-MP2 Energies <==================
	-----------------------------------------------------------
	 SCS Same-Spin Scale       =       0.3333333333333333 [-]
	 SCS Opposite-Spin Scale   =       1.2000000000000000 [-]
	 SCS Same-Spin Energy      =      -0.1594600206565256 [Eh]
	 SCS Opposite-Spin Energy  =      -1.7694474833974227 [Eh]
	 SCS Correlation Energy    =      -1.9289075040539485 [Eh]
	 SCS Total Energy          =    -459.4092386746877423 [Eh]
	-----------------------------------------------------------

  Dipole Moment: [D]
     X:    -3.0039      Y:    -1.7548      Z:     1.1889     Total:     3.6765

*** Psi4 exiting successfully. Buy a developer a beer!
