                               Psi4 1.4a3.dev225

  ==> Input File <==

--------------------------------------------------------------------------
#psi4
#
memory 32 gb

molecule  {
0 1
  O       -0.0048250     2.1741760     0.2178480
  O        2.2663170     0.9084740    -0.5920830
  C        0.2215980    -0.1887240    -0.0416380
  C       -0.5997910     0.9512430     0.0794500
  C       -0.3937360    -1.4453650    -0.1432710
  C        1.7133810    -0.0735570    -0.1011180
  C       -1.9480377     0.7881239     0.0970569
  C       -1.7801750    -1.5845230    -0.1400000
  C       -2.5802090    -0.4482640    -0.0192820
  C        2.5274150    -1.2247570     0.4590770
  H        0.2262520    -2.3327300    -0.2378970
  H       -2.6178000     1.6952910     0.2019520
  H       -2.2312480    -2.5684970    -0.2333300
  H       -3.6639410    -0.5356590    -0.0094230
  H        2.1619230    -1.5277990     1.4440180
  H        3.5676560    -0.9027370     0.5247450
  H        2.4738770    -2.0960730    -0.2017770
  H       -0.7089870     2.8349930     0.3487360
units angstrom
no_reorient  #important for SAPT in psi4, default
symmetry c1  #important for SAPT in psi4, default
}

set PROPERTIES_ORIGIN ["COM"]
properties('MP2/aug-cc-pvtz', properties = ['dipole'])
--------------------------------------------------------------------------

    Molecular point group: c1
  Charge       = 0
  Multiplicity = 1
  Basis Set: AUG-CC-PVTZ
    Blend: AUG-CC-PVTZ
  Basis Set: (AUG-CC-PVTZ AUX)
    Blend: AUG-CC-PVTZ-JKFIT

    Orbital Energies [Eh]
    ---------------------

    Doubly Occupied:

       1A    -20.595698     2A    -20.537921     3A    -11.333129
       4A    -11.318682     5A    -11.261378     6A    -11.260585
       7A    -11.250734     8A    -11.246387     9A    -11.242623
      10A    -11.233290    11A     -1.409926    12A     -1.367625
      13A     -1.167623    14A     -1.056946    15A     -1.023923
      16A     -0.994555    17A     -0.874438    18A     -0.845751
      19A     -0.763805    20A     -0.740899    21A     -0.683570
      22A     -0.667172    23A     -0.637194    24A     -0.617838
      25A     -0.608439    26A     -0.600046    27A     -0.588026
      28A     -0.575234    29A     -0.551598    30A     -0.534386
      31A     -0.516680    32A     -0.500124    33A     -0.480456
      34A     -0.410877    35A     -0.356288    36A     -0.330823

  @DF-RHF Final Energy:  -457.48120682563797

   => Energetics <=

    Nuclear Repulsion Energy =            495.7646350488723783
    One-Electron Energy =               -1606.1223442746647834
    Two-Electron Energy =                 652.8765024001544361
    Total Energy =                       -457.4812068256379689
  Basis Set: (AUG-CC-PVTZ AUX)
    Blend: AUG-CC-PVTZ-RI
    Molecular point group: c1

    Geometry (in Angstrom), charge = 0, multiplicity = 1:

       Center              X                  Y                   Z               Mass
    ------------   -----------------  -----------------  -----------------  -----------------
         O           -0.014374609184     2.136535214607     0.231454220098    15.994914619570
         O            2.256767390816     0.870833214607    -0.578476779902    15.994914619570
         C            0.212048390816    -0.226364785393    -0.028031779902    12.000000000000
         C           -0.609340609184     0.913602214607     0.093056220098    12.000000000000
         C           -0.403285609184    -1.483005785393    -0.129664779902    12.000000000000
         C            1.703831390816    -0.111197785393    -0.087511779902    12.000000000000
         C           -1.957587309184     0.750483114607     0.110663120098    12.000000000000
         C           -1.789724609184    -1.622163785393    -0.126393779902    12.000000000000
         C           -2.589758609184    -0.485904785393    -0.005675779902    12.000000000000
         C            2.517865390816    -1.262397785393     0.472683220098    12.000000000000
         H            0.216702390816    -2.370370785393    -0.224290779902     1.007825032230
         H           -2.627349609184     1.657650214607     0.215558220098     1.007825032230
         H           -2.240797609184    -2.606137785393    -0.219723779902     1.007825032230
         H           -3.673490609184    -0.573299785393     0.004183220098     1.007825032230
         H            2.152373390816    -1.565439785393     1.457624220098     1.007825032230
         H            3.558106390816    -0.940377785393     0.538351220098     1.007825032230
         H            2.464327390816    -2.133713785393    -0.188170779902     1.007825032230
         H           -0.718536609184     2.797352214607     0.362342220098     1.007825032230

  Basis Set: AUG-CC-PVTZ
    Blend: AUG-CC-PVTZ
  Basis Set: (AUG-CC-PVTZ AUX)
    Blend: AUG-CC-PVTZ-JKFIT
	 Reference Energy          =    -457.4812068256379689 [Eh]
	 Singles Energy            =      -0.0000000000000000 [Eh]
	 Same-Spin Energy          =      -0.4784885832072195 [Eh]
	 Opposite-Spin Energy      =      -1.4738889777608817 [Eh]
	 Correlation Energy        =      -1.9523775609681011 [Eh]
	 Total Energy              =    -459.4335843866060713 [Eh]

	 ================> DF-SCS-MP2 Energies <==================
	-----------------------------------------------------------
	 SCS Same-Spin Scale       =       0.3333333333333333 [-]
	 SCS Opposite-Spin Scale   =       1.2000000000000000 [-]
	 SCS Same-Spin Energy      =      -0.1594961944024065 [Eh]
	 SCS Opposite-Spin Energy  =      -1.7686667733130579 [Eh]
	 SCS Correlation Energy    =      -1.9281629677154644 [Eh]
	 SCS Total Energy          =    -459.4093697933534486 [Eh]
	-----------------------------------------------------------

  Dipole Moment: [D]
     X:    -2.9485      Y:    -1.5663      Z:     1.2102     Total:     3.5513

*** Psi4 exiting successfully. Buy a developer a beer!
