                               Psi4 1.4a3.dev225

  ==> Input File <==

--------------------------------------------------------------------------
#psi4
#
memory 32 gb

molecule  {
0 1
  O       -0.0048250     2.1741760     0.2178480
  O        2.2663170     0.9084740    -0.5920830
  C        0.2215980    -0.1887240    -0.0416380
  C       -0.5997910     0.9512430     0.0794500
  C       -0.3937360    -1.4453650    -0.1432710
  C        1.7133810    -0.0735570    -0.1011180
  C       -1.9917600     0.8092840     0.0995930
  C       -1.7870220    -1.4395373    -0.1256921
  C       -2.5802090    -0.4482640    -0.0192820
  C        2.5274150    -1.2247570     0.4590770
  H        0.2262520    -2.3327300    -0.2378970
  H       -2.6178000     1.6952910     0.2019520
  H       -2.2312480    -2.5684970    -0.2333300
  H       -3.6639410    -0.5356590    -0.0094230
  H        2.1619230    -1.5277990     1.4440180
  H        3.5676560    -0.9027370     0.5247450
  H        2.4738770    -2.0960730    -0.2017770
  H       -0.7089870     2.8349930     0.3487360
units angstrom
no_reorient  #important for SAPT in psi4, default
symmetry c1  #important for SAPT in psi4, default
}

set PROPERTIES_ORIGIN ["COM"]
properties('MP2/aug-cc-pvtz', properties = ['dipole'])
--------------------------------------------------------------------------

    Molecular point group: c1
  Charge       = 0
  Multiplicity = 1
  Basis Set: AUG-CC-PVTZ
    Blend: AUG-CC-PVTZ
  Basis Set: (AUG-CC-PVTZ AUX)
    Blend: AUG-CC-PVTZ-JKFIT

    Orbital Energies [Eh]
    ---------------------

    Doubly Occupied:

       1A    -20.593892     2A    -20.539868     3A    -11.334291
       4A    -11.320495     5A    -11.263117     6A    -11.252973
       7A    -11.245408     8A    -11.243869     9A    -11.239544
      10A    -11.235231    11A     -1.408197    12A     -1.369205
      13A     -1.179138    14A     -1.068039    15A     -1.016299
      16A     -0.998734    17A     -0.881076    18A     -0.844716
      19A     -0.755319    20A     -0.743369    21A     -0.684677
      22A     -0.664147    23A     -0.646675    24A     -0.623451
      25A     -0.610945    26A     -0.594559    27A     -0.588097
      28A     -0.579756    29A     -0.554142    30A     -0.531941
      31A     -0.510208    32A     -0.494788    33A     -0.481783
      34A     -0.410880    35A     -0.360367    36A     -0.330513

  @DF-RHF Final Energy:  -457.45524084352667

   => Energetics <=

    Nuclear Repulsion Energy =            497.2990009339847575
    One-Electron Energy =               -1609.1090717043814493
    Two-Electron Energy =                 654.3548299268699111
    Total Energy =                       -457.4552408435266670
  Basis Set: (AUG-CC-PVTZ AUX)
    Blend: AUG-CC-PVTZ-RI
    Molecular point group: c1

    Geometry (in Angstrom), charge = 0, multiplicity = 1:

       Center              X                  Y                   Z               Mass
    ------------   -----------------  -----------------  -----------------  -----------------
         O           -0.009914331611     2.121880940462     0.229968557543    15.994914619570
         O            2.261227668389     0.856178940462    -0.579962442457    15.994914619570
         C            0.216508668389    -0.241019059538    -0.029517442457    12.000000000000
         C           -0.604880331611     0.898947940462     0.091570557543    12.000000000000
         C           -0.398825331611    -1.497660059538    -0.131150442457    12.000000000000
         C            1.708291668389    -0.125852059538    -0.088997442457    12.000000000000
         C           -1.996849331611     0.756988940462     0.111713557543    12.000000000000
         C           -1.792111331611    -1.491832359538    -0.113571542457    12.000000000000
         C           -2.585298331611    -0.500559059538    -0.007161442457    12.000000000000
         C            2.522325668389    -1.277052059538     0.471197557543    12.000000000000
         H            0.221162668389    -2.385025059538    -0.225776442457     1.007825032230
         H           -2.622889331611     1.642995940462     0.214072557543     1.007825032230
         H           -2.236337331611    -2.620792059538    -0.221209442457     1.007825032230
         H           -3.669030331611    -0.587954059538     0.002697557543     1.007825032230
         H            2.156833668389    -1.580094059538     1.456138557543     1.007825032230
         H            3.562566668389    -0.955032059538     0.536865557543     1.007825032230
         H            2.468787668389    -2.148368059538    -0.189656442457     1.007825032230
         H           -0.714076331611     2.782697940462     0.360856557543     1.007825032230

  Basis Set: AUG-CC-PVTZ
    Blend: AUG-CC-PVTZ
  Basis Set: (AUG-CC-PVTZ AUX)
    Blend: AUG-CC-PVTZ-JKFIT
	 Reference Energy          =    -457.4552408435266670 [Eh]
	 Singles Energy            =      -0.0000000000000000 [Eh]
	 Same-Spin Energy          =      -0.4789159993493659 [Eh]
	 Opposite-Spin Energy      =      -1.4747804308673893 [Eh]
	 Correlation Energy        =      -1.9536964302167552 [Eh]
	 Total Energy              =    -459.4089372737434473 [Eh]

	 ================> DF-SCS-MP2 Energies <==================
	-----------------------------------------------------------
	 SCS Same-Spin Scale       =       0.3333333333333333 [-]
	 SCS Opposite-Spin Scale   =       1.2000000000000000 [-]
	 SCS Same-Spin Energy      =      -0.1596386664497886 [Eh]
	 SCS Opposite-Spin Energy  =      -1.7697365170408672 [Eh]
	 SCS Correlation Energy    =      -1.9293751834906558 [Eh]
	 SCS Total Energy          =    -459.3846160270173300 [Eh]
	-----------------------------------------------------------

  Dipole Moment: [D]
     X:    -2.8187      Y:    -1.4521      Z:     1.2250     Total:     3.3992

*** Psi4 exiting successfully. Buy a developer a beer!
