                               Psi4 1.4a3.dev225

  ==> Input File <==

--------------------------------------------------------------------------
#psi4
#
memory 32 gb

molecule  {
0 1
  O       -0.0048250     2.1741760     0.2178480
  O        2.2663170     0.9084740    -0.5920830
  C        0.2215980    -0.1887240    -0.0416380
  C       -0.5997910     0.9512430     0.0794500
  C       -0.3937360    -1.4453650    -0.1432710
  C        1.6915804    -0.0885008    -0.0995226
  C       -1.9917600     0.8092840     0.0995930
  C       -1.7801750    -1.5845230    -0.1400000
  C       -2.5802090    -0.4482640    -0.0192820
  C        2.5274150    -1.2247570     0.4590770
  H        0.2262520    -2.3327300    -0.2378970
  H       -2.6178000     1.6952910     0.2019520
  H       -2.2312480    -2.5684970    -0.2333300
  H       -3.6639410    -0.5356590    -0.0094230
  H        2.1619230    -1.5277990     1.4440180
  H        3.5676560    -0.9027370     0.5247450
  H        2.4738770    -2.0960730    -0.2017770
  H       -0.7089870     2.8349930     0.3487360
units angstrom
no_reorient  #important for SAPT in psi4, default
symmetry c1  #important for SAPT in psi4, default
}

set PROPERTIES_ORIGIN ["COM"]
properties('MP2/aug-cc-pvtz', properties = ['dipole'])
--------------------------------------------------------------------------

    Molecular point group: c1
  Charge       = 0
  Multiplicity = 1
  Basis Set: AUG-CC-PVTZ
    Blend: AUG-CC-PVTZ
  Basis Set: (AUG-CC-PVTZ AUX)
    Blend: AUG-CC-PVTZ-JKFIT

    Orbital Energies [Eh]
    ---------------------

    Doubly Occupied:

       1A    -20.598046     2A    -20.534779     3A    -11.333413
       4A    -11.326824     5A    -11.262999     6A    -11.262889
       7A    -11.250332     8A    -11.248668     9A    -11.242932
      10A    -11.233703    11A     -1.411375    12A     -1.352002
      13A     -1.165651    14A     -1.060538    15A     -1.020764
      16A     -0.994752    17A     -0.874674    18A     -0.850421
      19A     -0.766085    20A     -0.741505    21A     -0.680915
      22A     -0.669048    23A     -0.636913    24A     -0.620889
      25A     -0.610231    26A     -0.597606    27A     -0.587164
      28A     -0.573843    29A     -0.552224    30A     -0.531425
      31A     -0.521499    32A     -0.499621    33A     -0.473326
      34A     -0.411652    35A     -0.357512    36A     -0.328444

  @DF-RHF Final Energy:  -457.48057309805256

   => Energetics <=

    Nuclear Repulsion Energy =            494.8858682583285713
    One-Electron Energy =               -1604.3635511713139294
    Two-Electron Energy =                 651.9971098149327418
    Total Energy =                       -457.4805730980525595
  Basis Set: (AUG-CC-PVTZ AUX)
    Blend: AUG-CC-PVTZ-RI
    Molecular point group: c1

    Geometry (in Angstrom), charge = 0, multiplicity = 1:

       Center              X                  Y                   Z               Mass
    ------------   -----------------  -----------------  -----------------  -----------------
         O           -0.008595404778     2.135986928919     0.231089816462    15.994914619570
         O            2.262546595222     0.870284928919    -0.578841183538    15.994914619570
         C            0.217827595222    -0.226913071081    -0.028396183538    12.000000000000
         C           -0.603561404778     0.913053928919     0.092691816462    12.000000000000
         C           -0.397506404778    -1.483554071081    -0.130029183538    12.000000000000
         C            1.687809995222    -0.126689871081    -0.086280783538    12.000000000000
         C           -1.995530404778     0.771094928919     0.112834816462    12.000000000000
         C           -1.783945404778    -1.622712071081    -0.126758183538    12.000000000000
         C           -2.583979404778    -0.486453071081    -0.006040183538    12.000000000000
         C            2.523644595222    -1.262946071081     0.472318816462    12.000000000000
         H            0.222481595222    -2.370919071081    -0.224655183538     1.007825032230
         H           -2.621570404778     1.657101928919     0.215193816462     1.007825032230
         H           -2.235018404778    -2.606686071081    -0.220088183538     1.007825032230
         H           -3.667711404778    -0.573848071081     0.003818816462     1.007825032230
         H            2.158152595222    -1.565988071081     1.457259816462     1.007825032230
         H            3.563885595222    -0.940926071081     0.537986816462     1.007825032230
         H            2.470106595222    -2.134262071081    -0.188535183538     1.007825032230
         H           -0.712757404778     2.796803928919     0.361977816462     1.007825032230

  Basis Set: AUG-CC-PVTZ
    Blend: AUG-CC-PVTZ
  Basis Set: (AUG-CC-PVTZ AUX)
    Blend: AUG-CC-PVTZ-JKFIT
	 Reference Energy          =    -457.4805730980525595 [Eh]
	 Singles Energy            =      -0.0000000000000000 [Eh]
	 Same-Spin Energy          =      -0.4790159246862784 [Eh]
	 Opposite-Spin Energy      =      -1.4753000891185875 [Eh]
	 Correlation Energy        =      -1.9543160138048659 [Eh]
	 Total Energy              =    -459.4348891118574443 [Eh]

	 ================> DF-SCS-MP2 Energies <==================
	-----------------------------------------------------------
	 SCS Same-Spin Scale       =       0.3333333333333333 [-]
	 SCS Opposite-Spin Scale   =       1.2000000000000000 [-]
	 SCS Same-Spin Energy      =      -0.1596719748954261 [Eh]
	 SCS Opposite-Spin Energy  =      -1.7703601069423049 [Eh]
	 SCS Correlation Energy    =      -1.9300320818377310 [Eh]
	 SCS Total Energy          =    -459.4106051798902968 [Eh]
	-----------------------------------------------------------

  Dipole Moment: [D]
     X:    -3.0872      Y:    -1.5315      Z:     1.2445     Total:     3.6640

*** Psi4 exiting successfully. Buy a developer a beer!
