                               Psi4 1.4a3.dev225

  ==> Input File <==

--------------------------------------------------------------------------
#psi4
#
memory 32 gb

molecule  {
0 1
  O       -0.0048250     2.1741760     0.2178480
  O        2.2663170     0.9084740    -0.5920830
  C        0.2215980    -0.1887240    -0.0416380
  C       -0.6289127     0.9916596     0.0837431
  C       -0.3937360    -1.4453650    -0.1432710
  C        1.7133810    -0.0735570    -0.1011180
  C       -1.9917600     0.8092840     0.0995930
  C       -1.7801750    -1.5845230    -0.1400000
  C       -2.5802090    -0.4482640    -0.0192820
  C        2.5274150    -1.2247570     0.4590770
  H        0.2262520    -2.3327300    -0.2378970
  H       -2.6178000     1.6952910     0.2019520
  H       -2.2312480    -2.5684970    -0.2333300
  H       -3.6639410    -0.5356590    -0.0094230
  H        2.1619230    -1.5277990     1.4440180
  H        3.5676560    -0.9027370     0.5247450
  H        2.4738770    -2.0960730    -0.2017770
  H       -0.7089870     2.8349930     0.3487360
units angstrom
no_reorient  #important for SAPT in psi4, default
symmetry c1  #important for SAPT in psi4, default
}

set PROPERTIES_ORIGIN ["COM"]
properties('MP2/aug-cc-pvtz', properties = ['dipole'])
--------------------------------------------------------------------------

    Molecular point group: c1
  Charge       = 0
  Multiplicity = 1
  Basis Set: AUG-CC-PVTZ
    Blend: AUG-CC-PVTZ
  Basis Set: (AUG-CC-PVTZ AUX)
    Blend: AUG-CC-PVTZ-JKFIT

    Orbital Energies [Eh]
    ---------------------

    Doubly Occupied:

       1A    -20.603430     2A    -20.536497     3A    -11.332217
       4A    -11.326491     5A    -11.261478     6A    -11.260431
       7A    -11.252834     8A    -11.243385     9A    -11.240591
      10A    -11.232550    11A     -1.425148    12A     -1.366862
      13A     -1.160522    14A     -1.055116    15A     -1.020086
      16A     -0.991689    17A     -0.872477    18A     -0.847358
      19A     -0.763212    20A     -0.744211    21A     -0.683226
      22A     -0.669257    23A     -0.631574    24A     -0.621440
      25A     -0.612835    26A     -0.602925    27A     -0.591234
      28A     -0.577416    29A     -0.551237    30A     -0.535186
      31A     -0.515190    32A     -0.498861    33A     -0.479350
      34A     -0.409705    35A     -0.356761    36A     -0.323309

  @DF-RHF Final Energy:  -457.48103253274201

   => Energetics <=

    Nuclear Repulsion Energy =            494.4861361675793319
    One-Electron Energy =               -1603.5421597632914654
    Two-Electron Energy =                 651.5749910629700707
    Total Energy =                       -457.4810325327420060
  Basis Set: (AUG-CC-PVTZ AUX)
    Blend: AUG-CC-PVTZ-RI
    Molecular point group: c1

    Geometry (in Angstrom), charge = 0, multiplicity = 1:

       Center              X                  Y                   Z               Mass
    ------------   -----------------  -----------------  -----------------  -----------------
         O           -0.007949674302     2.131104070138     0.230851875838    15.994914619570
         O            2.263192325698     0.865402070138    -0.579079124162    15.994914619570
         C            0.218473325698    -0.231795929862    -0.028634124162    12.000000000000
         C           -0.632037374302     0.948587670138     0.096746975838    12.000000000000
         C           -0.396860674302    -1.488436929862    -0.130267124162    12.000000000000
         C            1.710256325698    -0.116628929862    -0.088114124162    12.000000000000
         C           -1.994884674302     0.766212070138     0.112596875838    12.000000000000
         C           -1.783299674302    -1.627594929862    -0.126996124162    12.000000000000
         C           -2.583333674302    -0.491335929862    -0.006278124162    12.000000000000
         C            2.524290325698    -1.267828929862     0.472080875838    12.000000000000
         H            0.223127325698    -2.375801929862    -0.224893124162     1.007825032230
         H           -2.620924674302     1.652219070138     0.214955875838     1.007825032230
         H           -2.234372674302    -2.611568929862    -0.220326124162     1.007825032230
         H           -3.667065674302    -0.578730929862     0.003580875838     1.007825032230
         H            2.158798325698    -1.570870929862     1.457021875838     1.007825032230
         H            3.564531325698    -0.945808929862     0.537748875838     1.007825032230
         H            2.470752325698    -2.139144929862    -0.188773124162     1.007825032230
         H           -0.712111674302     2.791921070138     0.361739875838     1.007825032230

  Basis Set: AUG-CC-PVTZ
    Blend: AUG-CC-PVTZ
  Basis Set: (AUG-CC-PVTZ AUX)
    Blend: AUG-CC-PVTZ-JKFIT
	 Reference Energy          =    -457.4810325327420060 [Eh]
	 Singles Energy            =      -0.0000000000000000 [Eh]
	 Same-Spin Energy          =      -0.4783614757154671 [Eh]
	 Opposite-Spin Energy      =      -1.4737892917081263 [Eh]
	 Correlation Energy        =      -1.9521507674235934 [Eh]
	 Total Energy              =    -459.4331833001655809 [Eh]

	 ================> DF-SCS-MP2 Energies <==================
	-----------------------------------------------------------
	 SCS Same-Spin Scale       =       0.3333333333333333 [-]
	 SCS Opposite-Spin Scale   =       1.2000000000000000 [-]
	 SCS Same-Spin Energy      =      -0.1594538252384890 [Eh]
	 SCS Opposite-Spin Energy  =      -1.7685471500497516 [Eh]
	 SCS Correlation Energy    =      -1.9280009752882405 [Eh]
	 SCS Total Energy          =    -459.4090335080302339 [Eh]
	-----------------------------------------------------------

  Dipole Moment: [D]
     X:    -2.9032      Y:    -1.3396      Z:     1.2400     Total:     3.4293

*** Psi4 exiting successfully. Buy a developer a beer!
