                               Psi4 1.4a3.dev225

  ==> Input File <==

--------------------------------------------------------------------------
#psi4
#
memory 32 gb

molecule  {
0 1
  O       -0.0048250     2.1741760     0.2178480
  O        2.2663170     0.9084740    -0.5920830
  C        0.2215980    -0.1887240    -0.0416380
  C       -0.5997910     0.9512430     0.0794500
  C       -0.3937360    -1.4453650    -0.1432710
  C        1.5865263    -0.1683168    -0.0890049
  C       -1.9917600     0.8092840     0.0995930
  C       -1.7801750    -1.5845230    -0.1400000
  C       -2.5802090    -0.4482640    -0.0192820
  C        2.5274150    -1.2247570     0.4590770
  H        0.2262520    -2.3327300    -0.2378970
  H       -2.6178000     1.6952910     0.2019520
  H       -2.2312480    -2.5684970    -0.2333300
  H       -3.6639410    -0.5356590    -0.0094230
  H        2.1619230    -1.5277990     1.4440180
  H        3.5676560    -0.9027370     0.5247450
  H        2.4738770    -2.0960730    -0.2017770
  H       -0.7089870     2.8349930     0.3487360
units angstrom
no_reorient  #important for SAPT in psi4, default
symmetry c1  #important for SAPT in psi4, default
}

set PROPERTIES_ORIGIN ["COM"]
properties('MP2/aug-cc-pvtz', properties = ['dipole'])
--------------------------------------------------------------------------

    Molecular point group: c1
  Charge       = 0
  Multiplicity = 1
  Basis Set: AUG-CC-PVTZ
    Blend: AUG-CC-PVTZ
  Basis Set: (AUG-CC-PVTZ AUX)
    Blend: AUG-CC-PVTZ-JKFIT

    Orbital Energies [Eh]
    ---------------------

    Doubly Occupied:

       1A    -20.602657     2A    -20.518540     3A    -11.337745
       4A    -11.333277     5A    -11.272710     6A    -11.271534
       7A    -11.254747     8A    -11.249599     9A    -11.248453
      10A    -11.236748    11A     -1.415207    12A     -1.282077
      13A     -1.175353    14A     -1.078164    15A     -1.028271
      16A     -0.994439    17A     -0.893537    18A     -0.861447
      19A     -0.775617    20A     -0.747003    21A     -0.684212
      22A     -0.669375    23A     -0.633522    24A     -0.623988
      25A     -0.611384    26A     -0.596544    27A     -0.585706
      28A     -0.568775    29A     -0.550100    30A     -0.527305
      31A     -0.518957    32A     -0.500963    33A     -0.439879
      34A     -0.405416    35A     -0.359076    36A     -0.332942

  @DF-RHF Final Energy:  -457.43553249695265

   => Energetics <=

    Nuclear Repulsion Energy =            495.2854356304645194
    One-Electron Energy =               -1605.0713982664226478
    Two-Electron Energy =                 652.3504301390055389
    Total Energy =                       -457.4355324969526464
  Basis Set: (AUG-CC-PVTZ AUX)
    Blend: AUG-CC-PVTZ-RI
    Molecular point group: c1

    Geometry (in Angstrom), charge = 0, multiplicity = 1:

       Center              X                  Y                   Z               Mass
    ------------   -----------------  -----------------  -----------------  -----------------
         O            0.000670502525     2.143026803205     0.230162141738    15.994914619570
         O            2.271812502525     0.877324803205    -0.579768858262    15.994914619570
         C            0.227093502525    -0.219873196795    -0.029323858262    12.000000000000
         C           -0.594295497475     0.920093803205     0.091764141738    12.000000000000
         C           -0.388240497475    -1.476514196795    -0.130956858262    12.000000000000
         C            1.592021802525    -0.199465996795    -0.076690758262    12.000000000000
         C           -1.986264497475     0.778134803205     0.111907141738    12.000000000000
         C           -1.774679497475    -1.615672196795    -0.127685858262    12.000000000000
         C           -2.574713497475    -0.479413196795    -0.006967858262    12.000000000000
         C            2.532910502525    -1.255906196795     0.471391141738    12.000000000000
         H            0.231747502525    -2.363879196795    -0.225582858262     1.007825032230
         H           -2.612304497475     1.664141803205     0.214266141738     1.007825032230
         H           -2.225752497475    -2.599646196795    -0.221015858262     1.007825032230
         H           -3.658445497475    -0.566808196795     0.002891141738     1.007825032230
         H            2.167418502525    -1.558948196795     1.456332141738     1.007825032230
         H            3.573151502525    -0.933886196795     0.537059141738     1.007825032230
         H            2.479372502525    -2.127222196795    -0.189462858262     1.007825032230
         H           -0.703491497475     2.803843803205     0.361050141738     1.007825032230

  Basis Set: AUG-CC-PVTZ
    Blend: AUG-CC-PVTZ
  Basis Set: (AUG-CC-PVTZ AUX)
    Blend: AUG-CC-PVTZ-JKFIT
	 Reference Energy          =    -457.4355324969526464 [Eh]
	 Singles Energy            =      -0.0000000000000000 [Eh]
	 Same-Spin Energy          =      -0.4837855204843405 [Eh]
	 Opposite-Spin Energy      =      -1.4849222778206597 [Eh]
	 Correlation Energy        =      -1.9687077983050001 [Eh]
	 Total Energy              =    -459.4042402952576367 [Eh]

	 ================> DF-SCS-MP2 Energies <==================
	-----------------------------------------------------------
	 SCS Same-Spin Scale       =       0.3333333333333333 [-]
	 SCS Opposite-Spin Scale   =       1.2000000000000000 [-]
	 SCS Same-Spin Energy      =      -0.1612618401614468 [Eh]
	 SCS Opposite-Spin Energy  =      -1.7819067333847916 [Eh]
	 SCS Correlation Energy    =      -1.9431685735462383 [Eh]
	 SCS Total Energy          =    -459.3787010704988916 [Eh]
	-----------------------------------------------------------

  Dipole Moment: [D]
     X:    -3.7173      Y:    -1.6542      Z:     1.3474     Total:     4.2860

*** Psi4 exiting successfully. Buy a developer a beer!
