                               Psi4 1.4a3.dev225

  ==> Input File <==

--------------------------------------------------------------------------
#psi4
#
memory 32 gb

molecule  {
0 1
  O       -0.0048250     2.1741760     0.2178480
  O        2.2663170     0.9084740    -0.5920830
  C        0.2215980    -0.1887240    -0.0416380
  C       -0.5997910     0.9512430     0.0794500
  C       -0.3937360    -1.4453650    -0.1432710
  C        1.7133810    -0.0735570    -0.1011180
  C       -1.9917600     0.8092840     0.0995930
  C       -1.7801750    -1.5845230    -0.1400000
  C       -2.5802090    -0.4482640    -0.0192820
  C        2.5274150    -1.2247570     0.4590770
  H        0.2262520    -2.3327300    -0.2378970
  H       -2.6178000     1.6952910     0.2019520
  H       -2.2312480    -2.5684970    -0.2333300
  H       -3.6639410    -0.5356590    -0.0094230
  H        2.1619230    -1.5277990     1.4440180
  H        3.5199788    -0.9174961     0.5217353
  H        2.4738770    -2.0960730    -0.2017770
  H       -0.7089870     2.8349930     0.3487360
units angstrom
no_reorient  #important for SAPT in psi4, default
symmetry c1  #important for SAPT in psi4, default
}

set PROPERTIES_ORIGIN ["COM"]
properties('MP2/aug-cc-pvtz', properties = ['dipole'])
--------------------------------------------------------------------------

    Molecular point group: c1
  Charge       = 0
  Multiplicity = 1
  Basis Set: AUG-CC-PVTZ
    Blend: AUG-CC-PVTZ
  Basis Set: (AUG-CC-PVTZ AUX)
    Blend: AUG-CC-PVTZ-JKFIT

    Orbital Energies [Eh]
    ---------------------

    Doubly Occupied:

       1A    -20.597061     2A    -20.537598     3A    -11.332905
       4A    -11.324533     5A    -11.261010     6A    -11.260967
       7A    -11.249528     8A    -11.247296     9A    -11.241645
      10A    -11.227667    11A     -1.410681    12A     -1.367503
      13A     -1.163456    14A     -1.057445    15A     -1.019085
      16A     -0.998543    17A     -0.871577    18A     -0.848544
      19A     -0.765026    20A     -0.740341    21A     -0.680853
      22A     -0.669351    23A     -0.638520    24A     -0.621283
      25A     -0.611518    26A     -0.599645    27A     -0.587397
      28A     -0.576059    29A     -0.558901    30A     -0.532343
      31A     -0.520982    32A     -0.499696    33A     -0.480058
      34A     -0.410388    35A     -0.356339    36A     -0.327129

  @DF-RHF Final Energy:  -457.48321978774055

   => Energetics <=

    Nuclear Repulsion Energy =            495.0716249492749057
    One-Electron Energy =               -1604.7239481444619287
    Two-Electron Energy =                 652.1691034074463005
    Total Energy =                       -457.4832197877406088
  Basis Set: (AUG-CC-PVTZ AUX)
    Blend: AUG-CC-PVTZ-RI
    Molecular point group: c1

    Geometry (in Angstrom), charge = 0, multiplicity = 1:

       Center              X                  Y                   Z               Mass
    ------------   -----------------  -----------------  -----------------  -----------------
         O           -0.010165071157     2.134778196299     0.231252827524    15.994914619570
         O            2.260976928843     0.869076196299    -0.578678172476    15.994914619570
         C            0.216257928843    -0.228121803701    -0.028233172476    12.000000000000
         C           -0.605131071157     0.911845196299     0.092854827524    12.000000000000
         C           -0.399076071157    -1.484762803701    -0.129866172476    12.000000000000
         C            1.708040928843    -0.112954803701    -0.087713172476    12.000000000000
         C           -1.997100071157     0.769886196299     0.112997827524    12.000000000000
         C           -1.785515071157    -1.623920803701    -0.126595172476    12.000000000000
         C           -2.585549071157    -0.487661803701    -0.005877172476    12.000000000000
         C            2.522074928843    -1.264154803701     0.472481827524    12.000000000000
         H            0.220911928843    -2.372127803701    -0.224492172476     1.007825032230
         H           -2.623140071157     1.655893196299     0.215356827524     1.007825032230
         H           -2.236588071157    -2.607894803701    -0.219925172476     1.007825032230
         H           -3.669281071157    -0.575056803701     0.003981827524     1.007825032230
         H            2.156582928843    -1.567196803701     1.457422827524     1.007825032230
         H            3.514638728843    -0.956893903701     0.535140127524     1.007825032230
         H            2.468536928843    -2.135470803701    -0.188372172476     1.007825032230
         H           -0.714327071157     2.795595196299     0.362140827524     1.007825032230

  Basis Set: AUG-CC-PVTZ
    Blend: AUG-CC-PVTZ
  Basis Set: (AUG-CC-PVTZ AUX)
    Blend: AUG-CC-PVTZ-JKFIT
	 Reference Energy          =    -457.4832197877405520 [Eh]
	 Singles Energy            =      -0.0000000000000000 [Eh]
	 Same-Spin Energy          =      -0.4782565529929079 [Eh]
	 Opposite-Spin Energy      =      -1.4734227405676243 [Eh]
	 Correlation Energy        =      -1.9516792935605323 [Eh]
	 Total Energy              =    -459.4348990813010687 [Eh]

	 ================> DF-SCS-MP2 Energies <==================
	-----------------------------------------------------------
	 SCS Same-Spin Scale       =       0.3333333333333333 [-]
	 SCS Opposite-Spin Scale   =       1.2000000000000000 [-]
	 SCS Same-Spin Energy      =      -0.1594188509976359 [Eh]
	 SCS Opposite-Spin Energy  =      -1.7681072886811491 [Eh]
	 SCS Correlation Energy    =      -1.9275261396787851 [Eh]
	 SCS Total Energy          =    -459.4107459274193275 [Eh]
	-----------------------------------------------------------

  Dipole Moment: [D]
     X:    -2.9143      Y:    -1.4978      Z:     1.2231     Total:     3.4975

*** Psi4 exiting successfully. Buy a developer a beer!
