                               Psi4 1.4a3.dev225

  ==> Input File <==

--------------------------------------------------------------------------
#psi4
#
memory 32 gb

molecule  {
0 1
  O       -0.0048250     2.1741760     0.2178480
  O        2.2663170     0.9084740    -0.5920830
  C        0.3499728    -0.2594162    -0.0508886
  C       -0.5997910     0.9512430     0.0794500
  C       -0.3937360    -1.4453650    -0.1432710
  C        1.7133810    -0.0735570    -0.1011180
  C       -1.9917600     0.8092840     0.0995930
  C       -1.7801750    -1.5845230    -0.1400000
  C       -2.5802090    -0.4482640    -0.0192820
  C        2.5274150    -1.2247570     0.4590770
  H        0.2262520    -2.3327300    -0.2378970
  H       -2.6178000     1.6952910     0.2019520
  H       -2.2312480    -2.5684970    -0.2333300
  H       -3.6639410    -0.5356590    -0.0094230
  H        2.1619230    -1.5277990     1.4440180
  H        3.5676560    -0.9027370     0.5247450
  H        2.4738770    -2.0960730    -0.2017770
  H       -0.7089870     2.8349930     0.3487360
units angstrom
no_reorient  #important for SAPT in psi4, default
symmetry c1  #important for SAPT in psi4, default
}

set PROPERTIES_ORIGIN ["COM"]
properties('MP2/aug-cc-pvtz', properties = ['dipole'])
--------------------------------------------------------------------------

    Molecular point group: c1
  Charge       = 0
  Multiplicity = 1
  Basis Set: AUG-CC-PVTZ
    Blend: AUG-CC-PVTZ
  Basis Set: (AUG-CC-PVTZ AUX)
    Blend: AUG-CC-PVTZ-JKFIT

    Orbital Energies [Eh]
    ---------------------

    Doubly Occupied:

       1A    -20.602817     2A    -20.532768     3A    -11.343340
       4A    -11.322018     5A    -11.269326     6A    -11.268287
       7A    -11.254824     8A    -11.247695     9A    -11.242994
      10A    -11.227702    11A     -1.414172    12A     -1.366169
      13A     -1.159300    14A     -1.072456    15A     -1.016885
      16A     -0.987243    17A     -0.888671    18A     -0.844838
      19A     -0.774582    20A     -0.738988    21A     -0.685992
      22A     -0.671291    23A     -0.634739    24A     -0.620383
      25A     -0.608529    26A     -0.600163    27A     -0.586548
      28A     -0.576894    29A     -0.549823    30A     -0.539099
      31A     -0.511415    32A     -0.494287    33A     -0.476006
      34A     -0.413443    35A     -0.361759    36A     -0.319353

  @DF-RHF Final Energy:  -457.45605505736296

   => Energetics <=

    Nuclear Repulsion Energy =            494.3286950050560904
    One-Electron Energy =               -1603.1199030817388120
    Two-Electron Energy =                 651.3351530193198187
    Total Energy =                       -457.4560550573629598
  Basis Set: (AUG-CC-PVTZ AUX)
    Blend: AUG-CC-PVTZ-RI
    Molecular point group: c1

    Geometry (in Angstrom), charge = 0, multiplicity = 1:

       Center              X                  Y                   Z               Mass
    ------------   -----------------  -----------------  -----------------  -----------------
         O           -0.021841069017     2.140904009801     0.232046447670    15.994914619570
         O            2.249300930983     0.875202009801    -0.577884552330    15.994914619570
         C            0.332956730983    -0.292688190199    -0.036690152330    12.000000000000
         C           -0.616807069017     0.917971009801     0.093648447670    12.000000000000
         C           -0.410752069017    -1.478636990199    -0.129072552330    12.000000000000
         C            1.696364930983    -0.106828990199    -0.086919552330    12.000000000000
         C           -2.008776069017     0.776012009801     0.113791447670    12.000000000000
         C           -1.797191069017    -1.617794990199    -0.125801552330    12.000000000000
         C           -2.597225069017    -0.481535990199    -0.005083552330    12.000000000000
         C            2.510398930983    -1.258028990199     0.473275447670    12.000000000000
         H            0.209235930983    -2.366001990199    -0.223698552330     1.007825032230
         H           -2.634816069017     1.662019009801     0.216150447670     1.007825032230
         H           -2.248264069017    -2.601768990199    -0.219131552330     1.007825032230
         H           -3.680957069017    -0.568930990199     0.004775447670     1.007825032230
         H            2.144906930983    -1.561070990199     1.458216447670     1.007825032230
         H            3.550639930983    -0.936008990199     0.538943447670     1.007825032230
         H            2.456860930983    -2.129344990199    -0.187578552330     1.007825032230
         H           -0.726003069017     2.801721009801     0.362934447670     1.007825032230

  Basis Set: AUG-CC-PVTZ
    Blend: AUG-CC-PVTZ
  Basis Set: (AUG-CC-PVTZ AUX)
    Blend: AUG-CC-PVTZ-JKFIT
	 Reference Energy          =    -457.4560550573629598 [Eh]
	 Singles Energy            =      -0.0000000000000000 [Eh]
	 Same-Spin Energy          =      -0.4797714694149908 [Eh]
	 Opposite-Spin Energy      =      -1.4767594229412770 [Eh]
	 Correlation Energy        =      -1.9565308923562679 [Eh]
	 Total Energy              =    -459.4125859497192437 [Eh]

	 ================> DF-SCS-MP2 Energies <==================
	-----------------------------------------------------------
	 SCS Same-Spin Scale       =       0.3333333333333333 [-]
	 SCS Opposite-Spin Scale   =       1.2000000000000000 [-]
	 SCS Same-Spin Energy      =      -0.1599238231383303 [Eh]
	 SCS Opposite-Spin Energy  =      -1.7721113075295325 [Eh]
	 SCS Correlation Energy    =      -1.9320351306678627 [Eh]
	 SCS Total Energy          =    -459.3880901880308443 [Eh]
	-----------------------------------------------------------

  Dipole Moment: [D]
     X:    -3.2716      Y:    -1.3680      Z:     1.2229     Total:     3.7511

*** Psi4 exiting successfully. Buy a developer a beer!
