                               Psi4 1.4a3.dev225

  ==> Input File <==

--------------------------------------------------------------------------
#psi4
#
memory 32 gb

molecule  {
0 1
  O       -0.0048250     2.1741760     0.2178480
  O        2.2663170     0.9084740    -0.5920830
  C        0.0864815    -0.1317998    -0.0335010
  C       -0.5997910     0.9512430     0.0794500
  C       -0.3937360    -1.4453650    -0.1432710
  C        1.7133810    -0.0735570    -0.1011180
  C       -1.9917600     0.8092840     0.0995930
  C       -1.7801750    -1.5845230    -0.1400000
  C       -2.5802090    -0.4482640    -0.0192820
  C        2.5274150    -1.2247570     0.4590770
  H        0.2262520    -2.3327300    -0.2378970
  H       -2.6178000     1.6952910     0.2019520
  H       -2.2312480    -2.5684970    -0.2333300
  H       -3.6639410    -0.5356590    -0.0094230
  H        2.1619230    -1.5277990     1.4440180
  H        3.5676560    -0.9027370     0.5247450
  H        2.4738770    -2.0960730    -0.2017770
  H       -0.7089870     2.8349930     0.3487360
units angstrom
no_reorient  #important for SAPT in psi4, default
symmetry c1  #important for SAPT in psi4, default
}

set PROPERTIES_ORIGIN ["COM"]
properties('MP2/aug-cc-pvtz', properties = ['dipole'])
--------------------------------------------------------------------------

    Molecular point group: c1
  Charge       = 0
  Multiplicity = 1
  Basis Set: AUG-CC-PVTZ
    Blend: AUG-CC-PVTZ
  Basis Set: (AUG-CC-PVTZ AUX)
    Blend: AUG-CC-PVTZ-JKFIT

    Orbital Energies [Eh]
    ---------------------

    Doubly Occupied:

       1A    -20.592504     2A    -20.539947     3A    -11.339393
       4A    -11.303152     5A    -11.257541     6A    -11.254941
       7A    -11.248388     8A    -11.243233     9A    -11.242328
      10A    -11.237449    11A     -1.407691    12A     -1.366617
      13A     -1.174079    14A     -1.047779    15A     -1.029506
      16A     -0.998587    17A     -0.868287    18A     -0.840023
      19A     -0.759329    20A     -0.738321    21A     -0.677523
      22A     -0.668837    23A     -0.641738    24A     -0.621821
      25A     -0.612255    26A     -0.600307    27A     -0.589808
      28A     -0.572656    29A     -0.549432    30A     -0.533299
      31A     -0.518952    32A     -0.500764    33A     -0.481807
      34A     -0.397090    35A     -0.354665    36A     -0.336498

  @DF-RHF Final Energy:  -457.45978883520002

   => Energetics <=

    Nuclear Repulsion Energy =            495.6212554117794866
    One-Electron Energy =               -1605.8689907732864413
    Two-Electron Energy =                 652.7879465263069960
    Total Energy =                       -457.4597888352000155
  Basis Set: (AUG-CC-PVTZ AUX)
    Blend: AUG-CC-PVTZ-RI
    Molecular point group: c1

    Geometry (in Angstrom), charge = 0, multiplicity = 1:

       Center              X                  Y                   Z               Mass
    ------------   -----------------  -----------------  -----------------  -----------------
         O            0.001399203955     2.129648078498     0.230512838893    15.994914619570
         O            2.272541203955     0.863946078498    -0.579418161107    15.994914619570
         C            0.092705703955    -0.176327721502    -0.020836161107    12.000000000000
         C           -0.593566796045     0.906715078498     0.092114838893    12.000000000000
         C           -0.387511796045    -1.489892921502    -0.130606161107    12.000000000000
         C            1.719605203955    -0.118084921502    -0.088453161107    12.000000000000
         C           -1.985535796045     0.764756078498     0.112257838893    12.000000000000
         C           -1.773950796045    -1.629050921502    -0.127335161107    12.000000000000
         C           -2.573984796045    -0.492791921502    -0.006617161107    12.000000000000
         C            2.533639203955    -1.269284921502     0.471741838893    12.000000000000
         H            0.232476203955    -2.377257921502    -0.225232161107     1.007825032230
         H           -2.611575796045     1.650763078498     0.214616838893     1.007825032230
         H           -2.225023796045    -2.613024921502    -0.220665161107     1.007825032230
         H           -3.657716796045    -0.580186921502     0.003241838893     1.007825032230
         H            2.168147203955    -1.572326921502     1.456682838893     1.007825032230
         H            3.573880203955    -0.947264921502     0.537409838893     1.007825032230
         H            2.480101203955    -2.140600921502    -0.189112161107     1.007825032230
         H           -0.702762796045     2.790465078498     0.361400838893     1.007825032230

  Basis Set: AUG-CC-PVTZ
    Blend: AUG-CC-PVTZ
  Basis Set: (AUG-CC-PVTZ AUX)
    Blend: AUG-CC-PVTZ-JKFIT
	 Reference Energy          =    -457.4597888352000155 [Eh]
	 Singles Energy            =      -0.0000000000000000 [Eh]
	 Same-Spin Energy          =      -0.4781670314080196 [Eh]
	 Opposite-Spin Energy      =      -1.4739180093973108 [Eh]
	 Correlation Energy        =      -1.9520850408053303 [Eh]
	 Total Energy              =    -459.4118738760053589 [Eh]

	 ================> DF-SCS-MP2 Energies <==================
	-----------------------------------------------------------
	 SCS Same-Spin Scale       =       0.3333333333333333 [-]
	 SCS Opposite-Spin Scale   =       1.2000000000000000 [-]
	 SCS Same-Spin Energy      =      -0.1593890104693398 [Eh]
	 SCS Opposite-Spin Energy  =      -1.7687016112767728 [Eh]
	 SCS Correlation Energy    =      -1.9280906217461127 [Eh]
	 SCS Total Energy          =    -459.3878794569461093 [Eh]
	-----------------------------------------------------------

  Dipole Moment: [D]
     X:    -2.6301      Y:    -1.6360      Z:     1.2102     Total:     3.3254

*** Psi4 exiting successfully. Buy a developer a beer!
