                               Psi4 1.4a3.dev225

  ==> Input File <==

--------------------------------------------------------------------------
#psi4
#
memory 32 gb

molecule  {
0 1
  O       -0.0048250     2.1741760     0.2178480
  O        2.2663170     0.9084740    -0.5920830
  C        0.2215980    -0.1887240    -0.0416380
  C       -0.5997910     0.9512430     0.0794500
  C       -0.3937360    -1.4453650    -0.1432710
  C        1.7133810    -0.0735570    -0.1011180
  C       -1.9917600     0.8092840     0.0995930
  C       -1.7801750    -1.5845230    -0.1400000
  C       -2.5802090    -0.4482640    -0.0192820
  C        2.5274150    -1.2247570     0.4590770
  H        0.2262520    -2.3327300    -0.2378970
  H       -2.6178000     1.6952910     0.2019520
  H       -2.2312480    -2.5684970    -0.2333300
  H       -3.6639410    -0.5356590    -0.0094230
  H        2.1619230    -1.5277990     1.4440180
  H        3.5676560    -0.9027370     0.5247450
  H        2.4738770    -2.0960730    -0.2017770
  H       -0.6728577     2.8010876     0.3420204
units angstrom
no_reorient  #important for SAPT in psi4, default
symmetry c1  #important for SAPT in psi4, default
}

set PROPERTIES_ORIGIN ["COM"]
properties('MP2/aug-cc-pvtz', properties = ['dipole'])
--------------------------------------------------------------------------

    Molecular point group: c1
  Charge       = 0
  Multiplicity = 1
  Basis Set: AUG-CC-PVTZ
    Blend: AUG-CC-PVTZ
  Basis Set: (AUG-CC-PVTZ AUX)
    Blend: AUG-CC-PVTZ-JKFIT

    Orbital Energies [Eh]
    ---------------------

    Doubly Occupied:

       1A    -20.592807     2A    -20.537762     3A    -11.333342
       4A    -11.325157     5A    -11.261430     6A    -11.261377
       7A    -11.250159     8A    -11.247880     9A    -11.242184
      10A    -11.233499    11A     -1.421835    12A     -1.367936
      13A     -1.164619    14A     -1.057533    15A     -1.021072
      16A     -0.995367    17A     -0.871763    18A     -0.852293
      19A     -0.764593    20A     -0.747652    21A     -0.682137
      22A     -0.670053    23A     -0.638254    24A     -0.622179
      25A     -0.611285    26A     -0.600635    27A     -0.588601
      28A     -0.577632    29A     -0.551703    30A     -0.532559
      31A     -0.521505    32A     -0.500454    33A     -0.480302
      34A     -0.410889    35A     -0.356718    36A     -0.327923

  @DF-RHF Final Energy:  -457.48498171563125

   => Energetics <=

    Nuclear Repulsion Energy =            495.1660455010602391
    One-Electron Energy =               -1604.8558768408593096
    Two-Electron Energy =                 652.2048496241679914
    Total Energy =                       -457.4849817156311929
  Basis Set: (AUG-CC-PVTZ AUX)
    Blend: AUG-CC-PVTZ-RI
    Molecular point group: c1

    Geometry (in Angstrom), charge = 0, multiplicity = 1:

       Center              X                  Y                   Z               Mass
    ------------   -----------------  -----------------  -----------------  -----------------
         O           -0.010785878068     2.134920024861     0.231280279432    15.994914619570
         O            2.260356121932     0.869218024861    -0.578650720568    15.994914619570
         C            0.215637121932    -0.227979975139    -0.028205720568    12.000000000000
         C           -0.605751878068     0.911987024861     0.092882279432    12.000000000000
         C           -0.399696878068    -1.484620975139    -0.129838720568    12.000000000000
         C            1.707420121932    -0.112812975139    -0.087685720568    12.000000000000
         C           -1.997720878068     0.770028024861     0.113025279432    12.000000000000
         C           -1.786135878068    -1.623778975139    -0.126567720568    12.000000000000
         C           -2.586169878068    -0.487519975139    -0.005849720568    12.000000000000
         C            2.521454121932    -1.264012975139     0.472509279432    12.000000000000
         H            0.220291121932    -2.371985975139    -0.224464720568     1.007825032230
         H           -2.623760878068     1.656035024861     0.215384279432     1.007825032230
         H           -2.237208878068    -2.607752975139    -0.219897720568     1.007825032230
         H           -3.669901878068    -0.574914975139     0.004009279432     1.007825032230
         H            2.155962121932    -1.567054975139     1.457450279432     1.007825032230
         H            3.561695121932    -0.941992975139     0.538177279432     1.007825032230
         H            2.467916121932    -2.135328975139    -0.188344720568     1.007825032230
         H           -0.678818578068     2.761831624861     0.355452679432     1.007825032230

  Basis Set: AUG-CC-PVTZ
    Blend: AUG-CC-PVTZ
  Basis Set: (AUG-CC-PVTZ AUX)
    Blend: AUG-CC-PVTZ-JKFIT
	 Reference Energy          =    -457.4849817156312497 [Eh]
	 Singles Energy            =      -0.0000000000000000 [Eh]
	 Same-Spin Energy          =      -0.4776235353113416 [Eh]
	 Opposite-Spin Energy      =      -1.4721641963332661 [Eh]
	 Correlation Energy        =      -1.9497877316446077 [Eh]
	 Total Energy              =    -459.4347694472758690 [Eh]

	 ================> DF-SCS-MP2 Energies <==================
	-----------------------------------------------------------
	 SCS Same-Spin Scale       =       0.3333333333333333 [-]
	 SCS Opposite-Spin Scale   =       1.2000000000000000 [-]
	 SCS Same-Spin Energy      =      -0.1592078451037805 [Eh]
	 SCS Opposite-Spin Energy  =      -1.7665970355999192 [Eh]
	 SCS Correlation Energy    =      -1.9258048807036998 [Eh]
	 SCS Total Energy          =    -459.4107865963349582 [Eh]
	-----------------------------------------------------------

  Dipole Moment: [D]
     X:    -2.9116      Y:    -1.5450      Z:     1.2113     Total:     3.5116

*** Psi4 exiting successfully. Buy a developer a beer!
