                               Psi4 1.4a3.dev225

  ==> Input File <==

--------------------------------------------------------------------------
#psi4
#
memory 32 gb

molecule  {
0 1
  O       -0.0048250     2.1741760     0.2178480
  O        2.2663170     0.9084740    -0.5920830
  C        0.2215980    -0.1887240    -0.0416380
  C       -0.5179474     1.0059339     0.0797377
  C       -0.3937360    -1.4453650    -0.1432710
  C        1.7133810    -0.0735570    -0.1011180
  C       -1.9917600     0.8092840     0.0995930
  C       -1.7801750    -1.5845230    -0.1400000
  C       -2.5802090    -0.4482640    -0.0192820
  C        2.5274150    -1.2247570     0.4590770
  H        0.2262520    -2.3327300    -0.2378970
  H       -2.6178000     1.6952910     0.2019520
  H       -2.2312480    -2.5684970    -0.2333300
  H       -3.6639410    -0.5356590    -0.0094230
  H        2.1619230    -1.5277990     1.4440180
  H        3.5676560    -0.9027370     0.5247450
  H        2.4738770    -2.0960730    -0.2017770
  H       -0.7089870     2.8349930     0.3487360
units angstrom
no_reorient  #important for SAPT in psi4, default
symmetry c1  #important for SAPT in psi4, default
}

set PROPERTIES_ORIGIN ["COM"]
properties('MP2/aug-cc-pvtz', properties = ['dipole'])
--------------------------------------------------------------------------

    Molecular point group: c1
  Charge       = 0
  Multiplicity = 1
  Basis Set: AUG-CC-PVTZ
    Blend: AUG-CC-PVTZ
  Basis Set: (AUG-CC-PVTZ AUX)
    Blend: AUG-CC-PVTZ-JKFIT

    Orbital Energies [Eh]
    ---------------------

    Doubly Occupied:

       1A    -20.614696     2A    -20.535040     3A    -11.335550
       4A    -11.329453     5A    -11.259193     6A    -11.258191
       7A    -11.250927     8A    -11.244478     9A    -11.236579
      10A    -11.230846    11A     -1.459456    12A     -1.366688
      13A     -1.153917    14A     -1.053250    15A     -1.008669
      16A     -0.992802    17A     -0.867979    18A     -0.856875
      19A     -0.764077    20A     -0.755687    21A     -0.685059
      22A     -0.678587    23A     -0.638089    24A     -0.627774
      25A     -0.615553    26A     -0.602403    27A     -0.594169
      28A     -0.573771    29A     -0.550454    30A     -0.532816
      31A     -0.508566    32A     -0.497856    33A     -0.477596
      34A     -0.405665    35A     -0.354078    36A     -0.314473

  @DF-RHF Final Energy:  -457.47381711674677

   => Energetics <=

    Nuclear Repulsion Energy =            494.9816683419483638
    One-Electron Energy =               -1604.4484463249407327
    Two-Electron Energy =                 651.9929608662456531
    Total Energy =                       -457.4738171167467726
  Basis Set: (AUG-CC-PVTZ AUX)
    Blend: AUG-CC-PVTZ-RI
    Molecular point group: c1

    Geometry (in Angstrom), charge = 0, multiplicity = 1:

       Center              X                  Y                   Z               Mass
    ------------   -----------------  -----------------  -----------------  -----------------
         O           -0.017736957079     2.129845058442     0.231205157291    15.994914619570
         O            2.253405042921     0.864143058442    -0.578725842709    15.994914619570
         C            0.208686042921    -0.233054941558    -0.028280842709    12.000000000000
         C           -0.530859357079     0.961602958442     0.093094857291    12.000000000000
         C           -0.406647957079    -1.489695941558    -0.129913842709    12.000000000000
         C            1.700469042921    -0.117887941558    -0.087760842709    12.000000000000
         C           -2.004671957079     0.764953058442     0.112950157291    12.000000000000
         C           -1.793086957079    -1.628853941558    -0.126642842709    12.000000000000
         C           -2.593120957079    -0.492594941558    -0.005924842709    12.000000000000
         C            2.514503042921    -1.269087941558     0.472434157291    12.000000000000
         H            0.213340042921    -2.377060941558    -0.224539842709     1.007825032230
         H           -2.630711957079     1.650960058442     0.215309157291     1.007825032230
         H           -2.244159957079    -2.612827941558    -0.219972842709     1.007825032230
         H           -3.676852957079    -0.579989941558     0.003934157291     1.007825032230
         H            2.149011042921    -1.572129941558     1.457375157291     1.007825032230
         H            3.554744042921    -0.947067941558     0.538102157291     1.007825032230
         H            2.460965042921    -2.140403941558    -0.188419842709     1.007825032230
         H           -0.721898957079     2.790662058442     0.362093157291     1.007825032230

  Basis Set: AUG-CC-PVTZ
    Blend: AUG-CC-PVTZ
  Basis Set: (AUG-CC-PVTZ AUX)
    Blend: AUG-CC-PVTZ-JKFIT
	 Reference Energy          =    -457.4738171167467726 [Eh]
	 Singles Energy            =      -0.0000000000000000 [Eh]
	 Same-Spin Energy          =      -0.4782108866365269 [Eh]
	 Opposite-Spin Energy      =      -1.4728276248451821 [Eh]
	 Correlation Energy        =      -1.9510385114817090 [Eh]
	 Total Energy              =    -459.4248556282284994 [Eh]

	 ================> DF-SCS-MP2 Energies <==================
	-----------------------------------------------------------
	 SCS Same-Spin Scale       =       0.3333333333333333 [-]
	 SCS Opposite-Spin Scale   =       1.2000000000000000 [-]
	 SCS Same-Spin Energy      =      -0.1594036288788423 [Eh]
	 SCS Opposite-Spin Energy  =      -1.7673931498142186 [Eh]
	 SCS Correlation Energy    =      -1.9267967786930609 [Eh]
	 SCS Total Energy          =    -459.4006138954398466 [Eh]
	-----------------------------------------------------------

  Dipole Moment: [D]
     X:    -2.7852      Y:    -0.9360      Z:     1.2829     Total:     3.2062

*** Psi4 exiting successfully. Buy a developer a beer!
