                               Psi4 1.4a3.dev225

  ==> Input File <==

--------------------------------------------------------------------------
#psi4
#
memory 32 gb

molecule  {
0 1
  O       -0.0048250     2.1741760     0.2178480
  O        2.2663170     0.9084740    -0.5920830
  C        0.2215980    -0.1887240    -0.0416380
  C       -0.4756488     1.0311123     0.0796598
  C       -0.3937360    -1.4453650    -0.1432710
  C        1.7133810    -0.0735570    -0.1011180
  C       -1.9917600     0.8092840     0.0995930
  C       -1.7801750    -1.5845230    -0.1400000
  C       -2.5802090    -0.4482640    -0.0192820
  C        2.5274150    -1.2247570     0.4590770
  H        0.2262520    -2.3327300    -0.2378970
  H       -2.6178000     1.6952910     0.2019520
  H       -2.2312480    -2.5684970    -0.2333300
  H       -3.6639410    -0.5356590    -0.0094230
  H        2.1619230    -1.5277990     1.4440180
  H        3.5676560    -0.9027370     0.5247450
  H        2.4738770    -2.0960730    -0.2017770
  H       -0.7089870     2.8349930     0.3487360
units angstrom
no_reorient  #important for SAPT in psi4, default
symmetry c1  #important for SAPT in psi4, default
}

set PROPERTIES_ORIGIN ["COM"]
properties('MP2/aug-cc-pvtz', properties = ['dipole'])
--------------------------------------------------------------------------

    Molecular point group: c1
  Charge       = 0
  Multiplicity = 1
  Basis Set: AUG-CC-PVTZ
    Blend: AUG-CC-PVTZ
  Basis Set: (AUG-CC-PVTZ AUX)
    Blend: AUG-CC-PVTZ-JKFIT

    Orbital Energies [Eh]
    ---------------------

    Doubly Occupied:

       1A    -20.623921     2A    -20.533607     3A    -11.341068
       4A    -11.327506     5A    -11.258230     6A    -11.256577
       7A    -11.251832     8A    -11.241852     9A    -11.233751
      10A    -11.229506    11A     -1.486086    12A     -1.366069
      13A     -1.149596    14A     -1.051860    15A     -1.004121
      16A     -0.991463    17A     -0.874323    18A     -0.856705
      19A     -0.772668    20A     -0.754548    21A     -0.691970
      22A     -0.679381    23A     -0.643299    24A     -0.635825
      25A     -0.616029    26A     -0.600457    27A     -0.594702
      28A     -0.571507    29A     -0.549548    30A     -0.532383
      31A     -0.502648    32A     -0.494036    33A     -0.476144
      34A     -0.402605    35A     -0.353399    36A     -0.308082

  @DF-RHF Final Energy:  -457.45967007050717

   => Energetics <=

    Nuclear Repulsion Energy =            495.1375449449089388
    One-Electron Energy =               -1604.6798247509082103
    Two-Electron Energy =                 652.0826097354920421
    Total Energy =                       -457.4596700705071726
  Basis Set: (AUG-CC-PVTZ AUX)
    Blend: AUG-CC-PVTZ-RI
    Molecular point group: c1

    Geometry (in Angstrom), charge = 0, multiplicity = 1:

       Center              X                  Y                   Z               Mass
    ------------   -----------------  -----------------  -----------------  -----------------
         O           -0.021467748230     2.127624291043     0.231212028172    15.994914619570
         O            2.249674251770     0.861922291043    -0.578718971828    15.994914619570
         C            0.204955251770    -0.235275708957    -0.028273971828    12.000000000000
         C           -0.492291548230     0.984560591043     0.093023828172    12.000000000000
         C           -0.410378748230    -1.491916708957    -0.129906971828    12.000000000000
         C            1.696738251770    -0.120108708957    -0.087753971828    12.000000000000
         C           -2.008402748230     0.762732291043     0.112957028172    12.000000000000
         C           -1.796817748230    -1.631074708957    -0.126635971828    12.000000000000
         C           -2.596851748230    -0.494815708957    -0.005917971828    12.000000000000
         C            2.510772251770    -1.271308708957     0.472441028172    12.000000000000
         H            0.209609251770    -2.379281708957    -0.224532971828     1.007825032230
         H           -2.634442748230     1.648739291043     0.215316028172     1.007825032230
         H           -2.247890748230    -2.615048708957    -0.219965971828     1.007825032230
         H           -3.680583748230    -0.582210708957     0.003941028172     1.007825032230
         H            2.145280251770    -1.574350708957     1.457382028172     1.007825032230
         H            3.551013251770    -0.949288708957     0.538109028172     1.007825032230
         H            2.457234251770    -2.142624708957    -0.188412971828     1.007825032230
         H           -0.725629748230     2.788441291043     0.362100028172     1.007825032230

  Basis Set: AUG-CC-PVTZ
    Blend: AUG-CC-PVTZ
  Basis Set: (AUG-CC-PVTZ AUX)
    Blend: AUG-CC-PVTZ-JKFIT
	 Reference Energy          =    -457.4596700705071726 [Eh]
	 Singles Energy            =      -0.0000000000000000 [Eh]
	 Same-Spin Energy          =      -0.4782265959149270 [Eh]
	 Opposite-Spin Energy      =      -1.4727005305448257 [Eh]
	 Correlation Energy        =      -1.9509271264597527 [Eh]
	 Total Energy              =    -459.4105971969669326 [Eh]

	 ================> DF-SCS-MP2 Energies <==================
	-----------------------------------------------------------
	 SCS Same-Spin Scale       =       0.3333333333333333 [-]
	 SCS Opposite-Spin Scale   =       1.2000000000000000 [-]
	 SCS Same-Spin Energy      =      -0.1594088653049757 [Eh]
	 SCS Opposite-Spin Energy  =      -1.7672406366537909 [Eh]
	 SCS Correlation Energy    =      -1.9266495019587666 [Eh]
	 SCS Total Energy          =    -459.3863195724659363 [Eh]
	-----------------------------------------------------------

  Dipole Moment: [D]
     X:    -2.7102      Y:    -0.6453      Z:     1.3159     Total:     3.0811

*** Psi4 exiting successfully. Buy a developer a beer!
