                               Psi4 1.4a3.dev225

  ==> Input File <==

--------------------------------------------------------------------------
#psi4
#
memory 32 gb

molecule  {
0 1
  O       -0.0048250     2.1741760     0.2178480
  O        2.2663170     0.9084740    -0.5920830
  C        0.2215980    -0.1887240    -0.0416380
  C       -0.5997910     0.9512430     0.0794500
  C       -0.3937360    -1.4453650    -0.1432710
  C        1.7133810    -0.0735570    -0.1011180
  C       -1.9917600     0.8092840     0.0995930
  C       -1.7801750    -1.5845230    -0.1400000
  C       -2.5802090    -0.4482640    -0.0192820
  C        2.5274150    -1.2247570     0.4590770
  H        0.2262520    -2.3327300    -0.2378970
  H       -2.6178000     1.6952910     0.2019520
  H       -2.2312480    -2.5684970    -0.2333300
  H       -3.6639410    -0.5356590    -0.0094230
  H        2.1619230    -1.5277990     1.4440180
  H        3.5676560    -0.9027370     0.5247450
  H        2.4738770    -2.0960730    -0.2017770
  H       -0.7234387     2.8485551     0.3514223
units angstrom
no_reorient  #important for SAPT in psi4, default
symmetry c1  #important for SAPT in psi4, default
}

set PROPERTIES_ORIGIN ["COM"]
properties('MP2/aug-cc-pvtz', properties = ['dipole'])
--------------------------------------------------------------------------

    Molecular point group: c1
  Charge       = 0
  Multiplicity = 1
  Basis Set: AUG-CC-PVTZ
    Blend: AUG-CC-PVTZ
  Basis Set: (AUG-CC-PVTZ AUX)
    Blend: AUG-CC-PVTZ-JKFIT

    Orbital Energies [Eh]
    ---------------------

    Doubly Occupied:

       1A    -20.598781     2A    -20.537475     3A    -11.333053
       4A    -11.324557     5A    -11.261105     6A    -11.261054
       7A    -11.249725     8A    -11.247289     9A    -11.241655
      10A    -11.233260    11A     -1.406902    12A     -1.367194
      13A     -1.163274    14A     -1.057077    15A     -1.018589
      16A     -0.994692    17A     -0.871085    18A     -0.846454
      19A     -0.763886    20A     -0.737634    21A     -0.680454
      22A     -0.669144    23A     -0.636915    24A     -0.621094
      25A     -0.610492    26A     -0.599129    27A     -0.587215
      28A     -0.574529    29A     -0.551054    30A     -0.531802
      31A     -0.520601    32A     -0.499600    33A     -0.479897
      34A     -0.410483    35A     -0.356407    36A     -0.327033

  @DF-RHF Final Energy:  -457.48249661761236

   => Energetics <=

    Nuclear Repulsion Energy =            494.7061720664354425
    One-Electron Energy =               -1604.0361648698060435
    Two-Electron Energy =                 651.8474961857583594
    Total Energy =                       -457.4824966176123553
  Basis Set: (AUG-CC-PVTZ AUX)
    Blend: AUG-CC-PVTZ-RI
    Molecular point group: c1

    Geometry (in Angstrom), charge = 0, multiplicity = 1:

       Center              X                  Y                   Z               Mass
    ------------   -----------------  -----------------  -----------------  -----------------
         O           -0.010411193117     2.134568403542     0.231210633707    15.994914619570
         O            2.260730806883     0.868866403542    -0.578720366293    15.994914619570
         C            0.216011806883    -0.228331596458    -0.028275366293    12.000000000000
         C           -0.605377193117     0.911635403542     0.092812633707    12.000000000000
         C           -0.399322193117    -1.484972596458    -0.129908366293    12.000000000000
         C            1.707794806883    -0.113164596458    -0.087755366293    12.000000000000
         C           -1.997346193117     0.769676403542     0.112955633707    12.000000000000
         C           -1.785761193117    -1.624130596458    -0.126637366293    12.000000000000
         C           -2.585795193117    -0.487871596458    -0.005919366293    12.000000000000
         C            2.521828806883    -1.264364596458     0.472439633707    12.000000000000
         H            0.220665806883    -2.372337596458    -0.224534366293     1.007825032230
         H           -2.623386193117     1.655683403542     0.215314633707     1.007825032230
         H           -2.236834193117    -2.608104596458    -0.219967366293     1.007825032230
         H           -3.669527193117    -0.575266596458     0.003939633707     1.007825032230
         H            2.156336806883    -1.567406596458     1.457380633707     1.007825032230
         H            3.562069806883    -0.942344596458     0.538107633707     1.007825032230
         H            2.468290806883    -2.135680596458    -0.188414366293     1.007825032230
         H           -0.729024893117     2.808947503542     0.364784933707     1.007825032230

  Basis Set: AUG-CC-PVTZ
    Blend: AUG-CC-PVTZ
  Basis Set: (AUG-CC-PVTZ AUX)
    Blend: AUG-CC-PVTZ-JKFIT
	 Reference Energy          =    -457.4824966176123553 [Eh]
	 Singles Energy            =      -0.0000000000000000 [Eh]
	 Same-Spin Energy          =      -0.4785390985771386 [Eh]
	 Opposite-Spin Energy      =      -1.4743886754655151 [Eh]
	 Correlation Energy        =      -1.9529277740426538 [Eh]
	 Total Energy              =    -459.4354243916550331 [Eh]

	 ================> DF-SCS-MP2 Energies <==================
	-----------------------------------------------------------
	 SCS Same-Spin Scale       =       0.3333333333333333 [-]
	 SCS Opposite-Spin Scale   =       1.2000000000000000 [-]
	 SCS Same-Spin Energy      =      -0.1595130328590462 [Eh]
	 SCS Opposite-Spin Energy  =      -1.7692664105586180 [Eh]
	 SCS Correlation Energy    =      -1.9287794434176642 [Eh]
	 SCS Total Energy          =    -459.4112760610300370 [Eh]
	-----------------------------------------------------------

  Dipole Moment: [D]
     X:    -2.9391      Y:    -1.4720      Z:     1.2223     Total:     3.5070

*** Psi4 exiting successfully. Buy a developer a beer!
