                               Psi4 1.4a3.dev225

  ==> Input File <==

--------------------------------------------------------------------------
#psi4
#
memory 32 gb

molecule  {
0 1
  O       -0.0048250     2.1741760     0.2178480
  O        2.2663170     0.9084740    -0.5920830
  C        0.2215980    -0.1887240    -0.0416380
  C       -0.5997910     0.9512430     0.0794500
  C       -0.3937360    -1.4453650    -0.1432710
  C        1.7133810    -0.0735570    -0.1011180
  C       -1.9917600     0.8092840     0.0995930
  C       -1.7801750    -1.5845230    -0.1400000
  C       -2.5802090    -0.4482640    -0.0192820
  C        2.5274150    -1.2247570     0.4590770
  H        0.2262520    -2.3327300    -0.2378970
  H       -2.6178000     1.6952910     0.2019520
  H       -2.2312480    -2.5684970    -0.2333300
  H       -3.6639410    -0.5356590    -0.0094230
  H        2.1619230    -1.5277990     1.4440180
  H        3.5485851    -0.9086406     0.5235411
  H        2.4738770    -2.0960730    -0.2017770
  H       -0.7089870     2.8349930     0.3487360
units angstrom
no_reorient  #important for SAPT in psi4, default
symmetry c1  #important for SAPT in psi4, default
}

set PROPERTIES_ORIGIN ["COM"]
properties('MP2/aug-cc-pvtz', properties = ['dipole'])
--------------------------------------------------------------------------

    Molecular point group: c1
  Charge       = 0
  Multiplicity = 1
  Basis Set: AUG-CC-PVTZ
    Blend: AUG-CC-PVTZ
  Basis Set: (AUG-CC-PVTZ AUX)
    Blend: AUG-CC-PVTZ-JKFIT

    Orbital Energies [Eh]
    ---------------------

    Doubly Occupied:

       1A    -20.597127     2A    -20.537567     3A    -11.333035
       4A    -11.324643     5A    -11.261107     6A    -11.261080
       7A    -11.249711     8A    -11.247386     9A    -11.241736
      10A    -11.231079    11A     -1.410745    12A     -1.367451
      13A     -1.163562    14A     -1.057278    15A     -1.019177
      16A     -0.996266    17A     -0.871376    18A     -0.848200
      19A     -0.764426    20A     -0.740427    21A     -0.680916
      22A     -0.669371    23A     -0.637739    24A     -0.621356
      25A     -0.610993    26A     -0.599574    27A     -0.587510
      28A     -0.575646    29A     -0.554397    30A     -0.532188
      31A     -0.520935    32A     -0.499775    33A     -0.480028
      34A     -0.410508    35A     -0.356428    36A     -0.327216

  @DF-RHF Final Energy:  -457.48421074610354

   => Energetics <=

    Nuclear Repulsion Energy =            494.9264999257223963
    One-Electron Energy =               -1604.4455031786469590
    Two-Electron Energy =                 652.0347925068209634
    Total Energy =                       -457.4842107461034857
  Basis Set: (AUG-CC-PVTZ AUX)
    Blend: AUG-CC-PVTZ-RI
    Molecular point group: c1

    Geometry (in Angstrom), charge = 0, multiplicity = 1:

       Center              X                  Y                   Z               Mass
    ------------   -----------------  -----------------  -----------------  -----------------
         O           -0.010376975827     2.134712598098     0.231239450840    15.994914619570
         O            2.260765024173     0.869010598098    -0.578691549160    15.994914619570
         C            0.216046024173    -0.228187401902    -0.028246549160    12.000000000000
         C           -0.605342975827     0.911779598098     0.092841450840    12.000000000000
         C           -0.399287975827    -1.484828401902    -0.129879549160    12.000000000000
         C            1.707829024173    -0.113020401902    -0.087726549160    12.000000000000
         C           -1.997311975827     0.769820598098     0.112984450840    12.000000000000
         C           -1.785726975827    -1.623986401902    -0.126608549160    12.000000000000
         C           -2.585760975827    -0.487727401902    -0.005890549160    12.000000000000
         C            2.521863024173    -1.264220401902     0.472468450840    12.000000000000
         H            0.220700024173    -2.372193401902    -0.224505549160     1.007825032230
         H           -2.623351975827     1.655827598098     0.215343450840     1.007825032230
         H           -2.236799975827    -2.607960401902    -0.219938549160     1.007825032230
         H           -3.669492975827    -0.575122401902     0.003968450840     1.007825032230
         H            2.156371024173    -1.567262401902     1.457409450840     1.007825032230
         H            3.543033124173    -0.948104001902     0.536932550840     1.007825032230
         H            2.468325024173    -2.135536401902    -0.188385549160     1.007825032230
         H           -0.714538975827     2.795529598098     0.362127450840     1.007825032230

  Basis Set: AUG-CC-PVTZ
    Blend: AUG-CC-PVTZ
  Basis Set: (AUG-CC-PVTZ AUX)
    Blend: AUG-CC-PVTZ-JKFIT
	 Reference Energy          =    -457.4842107461035425 [Eh]
	 Singles Energy            =      -0.0000000000000000 [Eh]
	 Same-Spin Energy          =      -0.4782677606820992 [Eh]
	 Opposite-Spin Energy      =      -1.4736023147595427 [Eh]
	 Correlation Energy        =      -1.9518700754416418 [Eh]
	 Total Energy              =    -459.4360808215452039 [Eh]

	 ================> DF-SCS-MP2 Energies <==================
	-----------------------------------------------------------
	 SCS Same-Spin Scale       =       0.3333333333333333 [-]
	 SCS Opposite-Spin Scale   =       1.2000000000000000 [-]
	 SCS Same-Spin Energy      =      -0.1594225868940330 [Eh]
	 SCS Opposite-Spin Energy  =      -1.7683227777114512 [Eh]
	 SCS Correlation Energy    =      -1.9277453646054843 [Eh]
	 SCS Total Energy          =    -459.4119561107090135 [Eh]
	-----------------------------------------------------------

  Dipole Moment: [D]
     X:    -2.9240      Y:    -1.4944      Z:     1.2208     Total:     3.5033

*** Psi4 exiting successfully. Buy a developer a beer!
