                               Psi4 1.4a3.dev225

  ==> Input File <==

--------------------------------------------------------------------------
#psi4
#
memory 32 gb

molecule  {
0 1
  O       -0.0048250     2.1741760     0.2178480
  O        2.2663170     0.9084740    -0.5920830
  C        0.1321794    -0.1492031    -0.0360838
  C       -0.5997910     0.9512430     0.0794500
  C       -0.3937360    -1.4453650    -0.1432710
  C        1.7133810    -0.0735570    -0.1011180
  C       -1.9917600     0.8092840     0.0995930
  C       -1.7801750    -1.5845230    -0.1400000
  C       -2.5802090    -0.4482640    -0.0192820
  C        2.5274150    -1.2247570     0.4590770
  H        0.2262520    -2.3327300    -0.2378970
  H       -2.6178000     1.6952910     0.2019520
  H       -2.2312480    -2.5684970    -0.2333300
  H       -3.6639410    -0.5356590    -0.0094230
  H        2.1619230    -1.5277990     1.4440180
  H        3.5676560    -0.9027370     0.5247450
  H        2.4738770    -2.0960730    -0.2017770
  H       -0.7089870     2.8349930     0.3487360
units angstrom
no_reorient  #important for SAPT in psi4, default
symmetry c1  #important for SAPT in psi4, default
}

set PROPERTIES_ORIGIN ["COM"]
properties('MP2/aug-cc-pvtz', properties = ['dipole'])
--------------------------------------------------------------------------

    Molecular point group: c1
  Charge       = 0
  Multiplicity = 1
  Basis Set: AUG-CC-PVTZ
    Blend: AUG-CC-PVTZ
  Basis Set: (AUG-CC-PVTZ AUX)
    Blend: AUG-CC-PVTZ-JKFIT

    Orbital Energies [Eh]
    ---------------------

    Doubly Occupied:

       1A    -20.593885     2A    -20.539399     3A    -11.337944
       4A    -11.310390     5A    -11.258371     6A    -11.256780
       7A    -11.247900     8A    -11.245519     9A    -11.241962
      10A    -11.236314    11A     -1.408646    12A     -1.367093
      13A     -1.169838    14A     -1.050027    15A     -1.025604
      16A     -0.997827    17A     -0.867425    18A     -0.844187
      19A     -0.760037    20A     -0.739526    21A     -0.678599
      22A     -0.668225    23A     -0.640158    24A     -0.622098
      25A     -0.611877    26A     -0.600034    27A     -0.589001
      28A     -0.573631    29A     -0.550367    30A     -0.531487
      31A     -0.521606    32A     -0.500404    33A     -0.481355
      34A     -0.402947    35A     -0.354550    36A     -0.333587

  @DF-RHF Final Energy:  -457.47405329329791

   => Energetics <=

    Nuclear Repulsion Energy =            495.3266664431185404
    One-Electron Energy =               -1605.2842449896595554
    Two-Electron Energy =                 652.4835252532431014
    Total Energy =                       -457.4740532932979704
  Basis Set: (AUG-CC-PVTZ AUX)
    Blend: AUG-CC-PVTZ-RI
    Molecular point group: c1

    Geometry (in Angstrom), charge = 0, multiplicity = 1:

       Center              X                  Y                   Z               Mass
    ------------   -----------------  -----------------  -----------------  -----------------
         O           -0.002631409846     2.131183072035     0.230740645189    15.994914619570
         O            2.268510590154     0.865481072035    -0.579190354811    15.994914619570
         C            0.134372990154    -0.192196027965    -0.023191154811    12.000000000000
         C           -0.597597409846     0.908250072035     0.092342645189    12.000000000000
         C           -0.391542409846    -1.488357927965    -0.130378354811    12.000000000000
         C            1.715574590154    -0.116549927965    -0.088225354811    12.000000000000
         C           -1.989566409846     0.766291072035     0.112485645189    12.000000000000
         C           -1.777981409846    -1.627515927965    -0.127107354811    12.000000000000
         C           -2.578015409846    -0.491256927965    -0.006389354811    12.000000000000
         C            2.529608590154    -1.267749927965     0.471969645189    12.000000000000
         H            0.228445590154    -2.375722927965    -0.225004354811     1.007825032230
         H           -2.615606409846     1.652298072035     0.214844645189     1.007825032230
         H           -2.229054409846    -2.611489927965    -0.220437354811     1.007825032230
         H           -3.661747409846    -0.578651927965     0.003469645189     1.007825032230
         H            2.164116590154    -1.570791927965     1.456910645189     1.007825032230
         H            3.569849590154    -0.945729927965     0.537637645189     1.007825032230
         H            2.476070590154    -2.139065927965    -0.188884354811     1.007825032230
         H           -0.706793409846     2.792000072035     0.361628645189     1.007825032230

  Basis Set: AUG-CC-PVTZ
    Blend: AUG-CC-PVTZ
  Basis Set: (AUG-CC-PVTZ AUX)
    Blend: AUG-CC-PVTZ-JKFIT
	 Reference Energy          =    -457.4740532932979136 [Eh]
	 Singles Energy            =      -0.0000000000000000 [Eh]
	 Same-Spin Energy          =      -0.4780432889235999 [Eh]
	 Opposite-Spin Energy      =      -1.4734874240458531 [Eh]
	 Correlation Energy        =      -1.9515307129694530 [Eh]
	 Total Energy              =    -459.4255840062673428 [Eh]

	 ================> DF-SCS-MP2 Energies <==================
	-----------------------------------------------------------
	 SCS Same-Spin Scale       =       0.3333333333333333 [-]
	 SCS Opposite-Spin Scale   =       1.2000000000000000 [-]
	 SCS Same-Spin Energy      =      -0.1593477629745333 [Eh]
	 SCS Opposite-Spin Energy  =      -1.7681849088550237 [Eh]
	 SCS Correlation Energy    =      -1.9275326718295569 [Eh]
	 SCS Total Energy          =    -459.4015859651274809 [Eh]
	-----------------------------------------------------------

  Dipole Moment: [D]
     X:    -2.7233      Y:    -1.5865      Z:     1.2144     Total:     3.3776

*** Psi4 exiting successfully. Buy a developer a beer!
