                               Psi4 1.4a3.dev225

  ==> Input File <==

--------------------------------------------------------------------------
#psi4
#
memory 32 gb

molecule  {
0 1
  O       -0.0048250     2.1741760     0.2178480
  O        2.2663170     0.9084740    -0.5920830
  C        0.2215980    -0.1887240    -0.0416380
  C       -0.5997910     0.9512430     0.0794500
  C       -0.3937360    -1.4453650    -0.1432710
  C        1.7133810    -0.0735570    -0.1011180
  C       -1.9917600     0.8092840     0.0995930
  C       -1.7801750    -1.5845230    -0.1400000
  C       -2.5802090    -0.4482640    -0.0192820
  C        2.5274150    -1.2247570     0.4590770
  H        0.2262520    -2.3327300    -0.2378970
  H       -2.6178000     1.6952910     0.2019520
  H       -2.2312480    -2.5684970    -0.2333300
  H       -3.6639410    -0.5356590    -0.0094230
  H        2.1506764    -1.5976478     1.4153971
  H        3.5676560    -0.9027370     0.5247450
  H        2.4738770    -2.0960730    -0.2017770
  H       -0.7089870     2.8349930     0.3487360
units angstrom
no_reorient  #important for SAPT in psi4, default
symmetry c1  #important for SAPT in psi4, default
}

set PROPERTIES_ORIGIN ["COM"]
properties('MP2/aug-cc-pvtz', properties = ['dipole'])
--------------------------------------------------------------------------

    Molecular point group: c1
  Charge       = 0
  Multiplicity = 1
  Basis Set: AUG-CC-PVTZ
    Blend: AUG-CC-PVTZ
  Basis Set: (AUG-CC-PVTZ AUX)
    Blend: AUG-CC-PVTZ-JKFIT

    Orbital Energies [Eh]
    ---------------------

    Doubly Occupied:

       1A    -20.597184     2A    -20.537932     3A    -11.333852
       4A    -11.324751     5A    -11.261279     6A    -11.261189
       7A    -11.249913     8A    -11.247498     9A    -11.241886
      10A    -11.233452    11A     -1.410813    12A     -1.367751
      13A     -1.163694    14A     -1.057230    15A     -1.019299
      16A     -0.994866    17A     -0.871444    18A     -0.848076
      19A     -0.764564    20A     -0.740666    21A     -0.681687
      22A     -0.670240    23A     -0.638087    24A     -0.621789
      25A     -0.610272    26A     -0.598933    27A     -0.584151
      28A     -0.575122    29A     -0.553969    30A     -0.532651
      31A     -0.521006    32A     -0.498946    33A     -0.479336
      34A     -0.411424    35A     -0.356548    36A     -0.327322

  @DF-RHF Final Energy:  -457.48357322385169

   => Energetics <=

    Nuclear Repulsion Energy =            494.7987747961258833
    One-Electron Energy =               -1604.1870560152617600
    Two-Electron Energy =                 651.9047079952842978
    Total Energy =                       -457.4835732238516357
  Basis Set: (AUG-CC-PVTZ AUX)
    Blend: AUG-CC-PVTZ-RI
    Molecular point group: c1

    Geometry (in Angstrom), charge = 0, multiplicity = 1:

       Center              X                  Y                   Z               Mass
    ------------   -----------------  -----------------  -----------------  -----------------
         O           -0.010434935288     2.135186279998     0.231442545624    15.994914619570
         O            2.260707064712     0.869484279998    -0.578488454376    15.994914619570
         C            0.215988064712    -0.227713720002    -0.028043454376    12.000000000000
         C           -0.605400935288     0.912253279998     0.093044545624    12.000000000000
         C           -0.399345935288    -1.484354720002    -0.129676454376    12.000000000000
         C            1.707771064712    -0.112546720002    -0.087523454376    12.000000000000
         C           -1.997369935288     0.770294279998     0.113187545624    12.000000000000
         C           -1.785784935288    -1.623512720002    -0.126405454376    12.000000000000
         C           -2.585818935288    -0.487253720002    -0.005687454376    12.000000000000
         C            2.521805064712    -1.263746720002     0.472671545624    12.000000000000
         H            0.220642064712    -2.371719720002    -0.224302454376     1.007825032230
         H           -2.623409935288     1.656301279998     0.215546545624     1.007825032230
         H           -2.236857935288    -2.607486720002    -0.219735454376     1.007825032230
         H           -3.669550935288    -0.574648720002     0.004171545624     1.007825032230
         H            2.145066464712    -1.636637520002     1.428991645624     1.007825032230
         H            3.562046064712    -0.941726720002     0.538339545624     1.007825032230
         H            2.468267064712    -2.135062720002    -0.188182454376     1.007825032230
         H           -0.714596935288     2.796003279998     0.362330545624     1.007825032230

  Basis Set: AUG-CC-PVTZ
    Blend: AUG-CC-PVTZ
  Basis Set: (AUG-CC-PVTZ AUX)
    Blend: AUG-CC-PVTZ-JKFIT
	 Reference Energy          =    -457.4835732238516925 [Eh]
	 Singles Energy            =      -0.0000000000000000 [Eh]
	 Same-Spin Energy          =      -0.4783440964670483 [Eh]
	 Opposite-Spin Energy      =      -1.4737731198088224 [Eh]
	 Correlation Energy        =      -1.9521172162758709 [Eh]
	 Total Energy              =    -459.4356904401275870 [Eh]

	 ================> DF-SCS-MP2 Energies <==================
	-----------------------------------------------------------
	 SCS Same-Spin Scale       =       0.3333333333333333 [-]
	 SCS Opposite-Spin Scale   =       1.2000000000000000 [-]
	 SCS Same-Spin Energy      =      -0.1594480321556828 [Eh]
	 SCS Opposite-Spin Energy  =      -1.7685277437705869 [Eh]
	 SCS Correlation Energy    =      -1.9279757759262697 [Eh]
	 SCS Total Energy          =    -459.4115489997779491 [Eh]
	-----------------------------------------------------------

  Dipole Moment: [D]
     X:    -2.9399      Y:    -1.5171      Z:     1.2134     Total:     3.5238

*** Psi4 exiting successfully. Buy a developer a beer!
