                               Psi4 1.4a3.dev225

  ==> Input File <==

--------------------------------------------------------------------------
#psi4
#
memory 32 gb

molecule  {
0 1
  O       -0.0048250     2.1741760     0.2178480
  O        2.2663170     0.9084740    -0.5920830
  C        0.2215980    -0.1887240    -0.0416380
  C       -0.5997910     0.9512430     0.0794500
  C       -0.3937360    -1.4453650    -0.1432710
  C        1.7133810    -0.0735570    -0.1011180
  C       -2.0813013     0.8469838     0.1042278
  C       -1.7801750    -1.5845230    -0.1400000
  C       -2.5802090    -0.4482640    -0.0192820
  C        2.5274150    -1.2247570     0.4590770
  H        0.2262520    -2.3327300    -0.2378970
  H       -2.6178000     1.6952910     0.2019520
  H       -2.2312480    -2.5684970    -0.2333300
  H       -3.6639410    -0.5356590    -0.0094230
  H        2.1619230    -1.5277990     1.4440180
  H        3.5676560    -0.9027370     0.5247450
  H        2.4738770    -2.0960730    -0.2017770
  H       -0.7089870     2.8349930     0.3487360
units angstrom
no_reorient  #important for SAPT in psi4, default
symmetry c1  #important for SAPT in psi4, default
}

set PROPERTIES_ORIGIN ["COM"]
properties('MP2/aug-cc-pvtz', properties = ['dipole'])
--------------------------------------------------------------------------

    Molecular point group: c1
  Charge       = 0
  Multiplicity = 1
  Basis Set: AUG-CC-PVTZ
    Blend: AUG-CC-PVTZ
  Basis Set: (AUG-CC-PVTZ AUX)
    Blend: AUG-CC-PVTZ-JKFIT

    Orbital Energies [Eh]
    ---------------------

    Doubly Occupied:

       1A    -20.600235     2A    -20.536930     3A    -11.335837
       4A    -11.333214     5A    -11.262705     6A    -11.261726
       7A    -11.250126     8A    -11.248335     9A    -11.240666
      10A    -11.233492    11A     -1.412485    12A     -1.367103
      13A     -1.157372    14A     -1.057990    15A     -1.012465
      16A     -0.995340    17A     -0.869077    18A     -0.849978
      19A     -0.766788    20A     -0.738887    21A     -0.681335
      22A     -0.672011    23A     -0.638204    24A     -0.632033
      25A     -0.611936    26A     -0.598758    27A     -0.587007
      28A     -0.574760    29A     -0.551853    30A     -0.536780
      31A     -0.511907    32A     -0.499076    33A     -0.479051
      34A     -0.409773    35A     -0.358327    36A     -0.320506

  @DF-RHF Final Energy:  -457.47163555930456

   => Energetics <=

    Nuclear Repulsion Energy =            493.0487983156749578
    One-Electron Energy =               -1600.6527289749380998
    Two-Electron Energy =                 650.1322950999585828
    Total Energy =                       -457.4716355593045591
  Basis Set: (AUG-CC-PVTZ AUX)
    Blend: AUG-CC-PVTZ-RI
    Molecular point group: c1

    Geometry (in Angstrom), charge = 0, multiplicity = 1:

       Center              X                  Y                   Z               Mass
    ------------   -----------------  -----------------  -----------------  -----------------
         O           -0.002620587547     2.131343695407     0.230821737457    15.994914619570
         O            2.268521412453     0.865641695407    -0.579109262543    15.994914619570
         C            0.223802412453    -0.231556304593    -0.028664262543    12.000000000000
         C           -0.597586587547     0.908410695407     0.092423737457    12.000000000000
         C           -0.391531587547    -1.488197304593    -0.130297262543    12.000000000000
         C            1.715585412453    -0.116389304593    -0.088144262543    12.000000000000
         C           -2.079096887547     0.804151495407     0.117201537457    12.000000000000
         C           -1.777970587547    -1.627355304593    -0.127026262543    12.000000000000
         C           -2.578004587547    -0.491096304593    -0.006308262543    12.000000000000
         C            2.529619412453    -1.267589304593     0.472050737457    12.000000000000
         H            0.228456412453    -2.375562304593    -0.224923262543     1.007825032230
         H           -2.615595587547     1.652458695407     0.214925737457     1.007825032230
         H           -2.229043587547    -2.611329304593    -0.220356262543     1.007825032230
         H           -3.661736587547    -0.578491304593     0.003550737457     1.007825032230
         H            2.164127412453    -1.570631304593     1.456991737457     1.007825032230
         H            3.569860412453    -0.945569304593     0.537718737457     1.007825032230
         H            2.476081412453    -2.138905304593    -0.188803262543     1.007825032230
         H           -0.706782587547     2.792160695407     0.361709737457     1.007825032230

  Basis Set: AUG-CC-PVTZ
    Blend: AUG-CC-PVTZ
  Basis Set: (AUG-CC-PVTZ AUX)
    Blend: AUG-CC-PVTZ-JKFIT
	 Reference Energy          =    -457.4716355593045591 [Eh]
	 Singles Energy            =      -0.0000000000000000 [Eh]
	 Same-Spin Energy          =      -0.4780247873452669 [Eh]
	 Opposite-Spin Energy      =      -1.4743625760826706 [Eh]
	 Correlation Energy        =      -1.9523873634279374 [Eh]
	 Total Energy              =    -459.4240229227324903 [Eh]

	 ================> DF-SCS-MP2 Energies <==================
	-----------------------------------------------------------
	 SCS Same-Spin Scale       =       0.3333333333333333 [-]
	 SCS Opposite-Spin Scale   =       1.2000000000000000 [-]
	 SCS Same-Spin Energy      =      -0.1593415957817556 [Eh]
	 SCS Opposite-Spin Energy  =      -1.7692350912992048 [Eh]
	 SCS Correlation Energy    =      -1.9285766870809604 [Eh]
	 SCS Total Energy          =    -459.4002122463855358 [Eh]
	-----------------------------------------------------------

  Dipole Moment: [D]
     X:    -2.8858      Y:    -1.3736      Z:     1.2336     Total:     3.4259

*** Psi4 exiting successfully. Buy a developer a beer!
