                               Psi4 1.4a3.dev225

  ==> Input File <==

--------------------------------------------------------------------------
#psi4
#
memory 32 gb

molecule  {
0 1
  O       -0.0048250     2.1741760     0.2178480
  O        2.2663170     0.9084740    -0.5920830
  C        0.2215980    -0.1887240    -0.0416380
  C       -0.5997910     0.9512430     0.0794500
  C       -0.3937360    -1.4453650    -0.1432710
  C        1.7133810    -0.0735570    -0.1011180
  C       -2.0138934     0.8192910     0.1008069
  C       -1.7801750    -1.5845230    -0.1400000
  C       -2.5802090    -0.4482640    -0.0192820
  C        2.5274150    -1.2247570     0.4590770
  H        0.2262520    -2.3327300    -0.2378970
  H       -2.6178000     1.6952910     0.2019520
  H       -2.2312480    -2.5684970    -0.2333300
  H       -3.6639410    -0.5356590    -0.0094230
  H        2.1619230    -1.5277990     1.4440180
  H        3.5676560    -0.9027370     0.5247450
  H        2.4738770    -2.0960730    -0.2017770
  H       -0.7089870     2.8349930     0.3487360
units angstrom
no_reorient  #important for SAPT in psi4, default
symmetry c1  #important for SAPT in psi4, default
}

set PROPERTIES_ORIGIN ["COM"]
properties('MP2/aug-cc-pvtz', properties = ['dipole'])
--------------------------------------------------------------------------

    Molecular point group: c1
  Charge       = 0
  Multiplicity = 1
  Basis Set: AUG-CC-PVTZ
    Blend: AUG-CC-PVTZ
  Basis Set: (AUG-CC-PVTZ AUX)
    Blend: AUG-CC-PVTZ-JKFIT

    Orbital Energies [Eh]
    ---------------------

    Doubly Occupied:

       1A    -20.597936     2A    -20.537386     3A    -11.333147
       4A    -11.327651     5A    -11.261518     6A    -11.261173
       7A    -11.249435     8A    -11.248052     9A    -11.241456
      10A    -11.233358    11A     -1.411227    12A     -1.367334
      13A     -1.161870    14A     -1.057364    15A     -1.017217
      16A     -0.995030    17A     -0.870062    18A     -0.848900
      19A     -0.764451    20A     -0.740181    21A     -0.680029
      22A     -0.670594    23A     -0.637407    24A     -0.624013
      25A     -0.611269    26A     -0.599327    27A     -0.587423
      28A     -0.575417    29A     -0.551257    30A     -0.532387
      31A     -0.520405    32A     -0.499637    33A     -0.479763
      34A     -0.410428    35A     -0.356798    36A     -0.325522

  @DF-RHF Final Energy:  -457.48330609956815

   => Energetics <=

    Nuclear Repulsion Energy =            494.3763148610919984
    One-Electron Energy =               -1603.3463901242371321
    Two-Electron Energy =                 651.4867691635770370
    Total Energy =                       -457.4833060995681535
  Basis Set: (AUG-CC-PVTZ AUX)
    Blend: AUG-CC-PVTZ-RI
    Molecular point group: c1

    Geometry (in Angstrom), charge = 0, multiplicity = 1:

       Center              X                  Y                   Z               Mass
    ------------   -----------------  -----------------  -----------------  -----------------
         O           -0.008566051388     2.133786236134     0.231123465255    15.994914619570
         O            2.262575948612     0.868084236134    -0.578807534745    15.994914619570
         C            0.217856948612    -0.229113763866    -0.028362534745    12.000000000000
         C           -0.603532051388     0.910853236134     0.092725465255    12.000000000000
         C           -0.397477051388    -1.485754763866    -0.129995534745    12.000000000000
         C            1.709639948612    -0.113946763866    -0.087842534745    12.000000000000
         C           -2.017634451388     0.778901236134     0.114082365255    12.000000000000
         C           -1.783916051388    -1.624912763866    -0.126724534745    12.000000000000
         C           -2.583950051388    -0.488653763866    -0.006006534745    12.000000000000
         C            2.523673948612    -1.265146763866     0.472352465255    12.000000000000
         H            0.222510948612    -2.373119763866    -0.224621534745     1.007825032230
         H           -2.621541051388     1.654901236134     0.215227465255     1.007825032230
         H           -2.234989051388    -2.608886763866    -0.220054534745     1.007825032230
         H           -3.667682051388    -0.576048763866     0.003852465255     1.007825032230
         H            2.158181948612    -1.568188763866     1.457293465255     1.007825032230
         H            3.563914948612    -0.943126763866     0.538020465255     1.007825032230
         H            2.470135948612    -2.136462763866    -0.188501534745     1.007825032230
         H           -0.712728051388     2.794603236134     0.362011465255     1.007825032230

  Basis Set: AUG-CC-PVTZ
    Blend: AUG-CC-PVTZ
  Basis Set: (AUG-CC-PVTZ AUX)
    Blend: AUG-CC-PVTZ-JKFIT
	 Reference Energy          =    -457.4833060995681535 [Eh]
	 Singles Energy            =      -0.0000000000000000 [Eh]
	 Same-Spin Energy          =      -0.4781932754709021 [Eh]
	 Opposite-Spin Energy      =      -1.4737749278808006 [Eh]
	 Correlation Energy        =      -1.9519682033517025 [Eh]
	 Total Energy              =    -459.4352743029198791 [Eh]

	 ================> DF-SCS-MP2 Energies <==================
	-----------------------------------------------------------
	 SCS Same-Spin Scale       =       0.3333333333333333 [-]
	 SCS Opposite-Spin Scale   =       1.2000000000000000 [-]
	 SCS Same-Spin Energy      =      -0.1593977584903007 [Eh]
	 SCS Opposite-Spin Energy  =      -1.7685299134569605 [Eh]
	 SCS Correlation Energy    =      -1.9279276719472611 [Eh]
	 SCS Total Energy          =    -459.4112337715154126 [Eh]
	-----------------------------------------------------------

  Dipole Moment: [D]
     X:    -2.9209      Y:    -1.4589      Z:     1.2232     Total:     3.4866

*** Psi4 exiting successfully. Buy a developer a beer!
