                               Psi4 1.4a3.dev225

  ==> Input File <==

--------------------------------------------------------------------------
#psi4
#
memory 32 gb

molecule  {
0 1
  O       -0.0048250     2.1741760     0.2178480
  O        2.2663170     0.9084740    -0.5920830
  C        0.2215980    -0.1887240    -0.0416380
  C       -0.5997910     0.9512430     0.0794500
  C       -0.3937360    -1.4453650    -0.1432710
  C        1.7133810    -0.0735570    -0.1011180
  C       -1.8629560     0.7413124     0.0915627
  C       -1.7801750    -1.5845230    -0.1400000
  C       -2.5802090    -0.4482640    -0.0192820
  C        2.5274150    -1.2247570     0.4590770
  H        0.2262520    -2.3327300    -0.2378970
  H       -2.6178000     1.6952910     0.2019520
  H       -2.2312480    -2.5684970    -0.2333300
  H       -3.6639410    -0.5356590    -0.0094230
  H        2.1619230    -1.5277990     1.4440180
  H        3.5676560    -0.9027370     0.5247450
  H        2.4738770    -2.0960730    -0.2017770
  H       -0.7089870     2.8349930     0.3487360
units angstrom
no_reorient  #important for SAPT in psi4, default
symmetry c1  #important for SAPT in psi4, default
}

set PROPERTIES_ORIGIN ["COM"]
properties('MP2/aug-cc-pvtz', properties = ['dipole'])
--------------------------------------------------------------------------

    Molecular point group: c1
  Charge       = 0
  Multiplicity = 1
  Basis Set: AUG-CC-PVTZ
    Blend: AUG-CC-PVTZ
  Basis Set: (AUG-CC-PVTZ AUX)
    Blend: AUG-CC-PVTZ-JKFIT

    Orbital Energies [Eh]
    ---------------------

    Doubly Occupied:

       1A    -20.593106     2A    -20.538859     3A    -11.333316
       4A    -11.306489     5A    -11.262760     6A    -11.259796
       7A    -11.252990     8A    -11.245003     9A    -11.244815
      10A    -11.233399    11A     -1.408346    12A     -1.368215
      13A     -1.177612    14A     -1.056746    15A     -1.035525
      16A     -0.993991    17A     -0.882079    18A     -0.840917
      19A     -0.764899    20A     -0.741210    21A     -0.690134
      22A     -0.664237    23A     -0.637387    24A     -0.616891
      25A     -0.602408    26A     -0.601172    27A     -0.589254
      28A     -0.573381    29A     -0.554148    30A     -0.540104
      31A     -0.505945    32A     -0.494581    33A     -0.479783
      34A     -0.411235    35A     -0.358207    36A     -0.337335

  @DF-RHF Final Energy:  -457.45659687507640

   => Energetics <=

    Nuclear Repulsion Energy =            497.6968474994450844
    One-Electron Energy =               -1609.9143367490955825
    Two-Electron Energy =                 654.7608923745741549
    Total Energy =                       -457.4565968750763432
  Basis Set: (AUG-CC-PVTZ AUX)
    Blend: AUG-CC-PVTZ-RI
    Molecular point group: c1

    Geometry (in Angstrom), charge = 0, multiplicity = 1:

       Center              X                  Y                   Z               Mass
    ------------   -----------------  -----------------  -----------------  -----------------
         O           -0.021878925011     2.140664049367     0.231938815634    15.994914619570
         O            2.249263074989     0.874962049367    -0.577992184366    15.994914619570
         C            0.204544074989    -0.222235950633    -0.027547184366    12.000000000000
         C           -0.616844925011     0.917731049367     0.093540815634    12.000000000000
         C           -0.410789925011    -1.478876950633    -0.129180184366    12.000000000000
         C            1.696327074989    -0.107068950633    -0.087027184366    12.000000000000
         C           -1.880009925011     0.707800449367     0.105653515634    12.000000000000
         C           -1.797228925011    -1.618034950633    -0.125909184366    12.000000000000
         C           -2.597262925011    -0.481775950633    -0.005191184366    12.000000000000
         C            2.510361074989    -1.258268950633     0.473167815634    12.000000000000
         H            0.209198074989    -2.366241950633    -0.223806184366     1.007825032230
         H           -2.634853925011     1.661779049367     0.216042815634     1.007825032230
         H           -2.248301925011    -2.602008950633    -0.219239184366     1.007825032230
         H           -3.680994925011    -0.569170950633     0.004667815634     1.007825032230
         H            2.144869074989    -1.561310950633     1.458108815634     1.007825032230
         H            3.550602074989    -0.936248950633     0.538835815634     1.007825032230
         H            2.456823074989    -2.129584950633    -0.187686184366     1.007825032230
         H           -0.726040925011     2.801481049367     0.362826815634     1.007825032230

  Basis Set: AUG-CC-PVTZ
    Blend: AUG-CC-PVTZ
  Basis Set: (AUG-CC-PVTZ AUX)
    Blend: AUG-CC-PVTZ-JKFIT
	 Reference Energy          =    -457.4565968750764000 [Eh]
	 Singles Energy            =      -0.0000000000000000 [Eh]
	 Same-Spin Energy          =      -0.4790868127498356 [Eh]
	 Opposite-Spin Energy      =      -1.4750194569373272 [Eh]
	 Correlation Energy        =      -1.9541062696871627 [Eh]
	 Total Energy              =    -459.4107031447635450 [Eh]

	 ================> DF-SCS-MP2 Energies <==================
	-----------------------------------------------------------
	 SCS Same-Spin Scale       =       0.3333333333333333 [-]
	 SCS Opposite-Spin Scale   =       1.2000000000000000 [-]
	 SCS Same-Spin Energy      =      -0.1596956042499452 [Eh]
	 SCS Opposite-Spin Energy  =      -1.7700233483247925 [Eh]
	 SCS Correlation Energy    =      -1.9297189525747376 [Eh]
	 SCS Total Energy          =    -459.3863158276511172 [Eh]
	-----------------------------------------------------------

  Dipole Moment: [D]
     X:    -2.9633      Y:    -1.7497      Z:     1.1878     Total:     3.6405

*** Psi4 exiting successfully. Buy a developer a beer!
