                               Psi4 1.4a3.dev225

  ==> Input File <==

--------------------------------------------------------------------------
#psi4
#
memory 32 gb

molecule  {
0 1
  O       -0.0048250     2.1741760     0.2178480
  O        2.2663170     0.9084740    -0.5920830
  C        0.2215980    -0.1887240    -0.0416380
  C       -0.5997910     0.9512430     0.0794500
  C       -0.3937360    -1.4453650    -0.1432710
  C        1.7133810    -0.0735570    -0.1011180
  C       -1.9917600     0.8092840     0.0995930
  C       -1.7823751    -1.5604218    -0.1376086
  C       -2.5802090    -0.4482640    -0.0192820
  C        2.5274150    -1.2247570     0.4590770
  H        0.2262520    -2.3327300    -0.2378970
  H       -2.6178000     1.6952910     0.2019520
  H       -2.2312480    -2.5684970    -0.2333300
  H       -3.6639410    -0.5356590    -0.0094230
  H        2.1619230    -1.5277990     1.4440180
  H        3.5676560    -0.9027370     0.5247450
  H        2.4738770    -2.0960730    -0.2017770
  H       -0.7089870     2.8349930     0.3487360
units angstrom
no_reorient  #important for SAPT in psi4, default
symmetry c1  #important for SAPT in psi4, default
}

set PROPERTIES_ORIGIN ["COM"]
properties('MP2/aug-cc-pvtz', properties = ['dipole'])
--------------------------------------------------------------------------

    Molecular point group: c1
  Charge       = 0
  Multiplicity = 1
  Basis Set: AUG-CC-PVTZ
    Blend: AUG-CC-PVTZ
  Basis Set: (AUG-CC-PVTZ AUX)
    Blend: AUG-CC-PVTZ-JKFIT

    Orbital Energies [Eh]
    ---------------------

    Doubly Occupied:

       1A    -20.596541     2A    -20.537904     3A    -11.333292
       4A    -11.323923     5A    -11.261293     6A    -11.258314
       7A    -11.250276     8A    -11.246930     9A    -11.241332
      10A    -11.233623    11A     -1.410276    12A     -1.367685
      13A     -1.165759    14A     -1.058637    15A     -1.018749
      16A     -0.995489    17A     -0.872717    18A     -0.847296
      19A     -0.762436    20A     -0.740843    21A     -0.680946
      22A     -0.668661    23A     -0.638671    24A     -0.621610
      25A     -0.610621    26A     -0.598338    27A     -0.587617
      28A     -0.575843    29A     -0.551433    30A     -0.527202
      31A     -0.523413    32A     -0.500902    33A     -0.480903
      34A     -0.410705    35A     -0.356608    36A     -0.328051

  @DF-RHF Final Energy:  -457.48341181959427

   => Energetics <=

    Nuclear Repulsion Energy =            495.2194685686340563
    One-Electron Energy =               -1605.0360877673317646
    Two-Electron Energy =                 652.3332073791034418
    Total Energy =                       -457.4834118195942665
  Basis Set: (AUG-CC-PVTZ AUX)
    Blend: AUG-CC-PVTZ-RI
    Molecular point group: c1

    Geometry (in Angstrom), charge = 0, multiplicity = 1:

       Center              X                  Y                   Z               Mass
    ------------   -----------------  -----------------  -----------------  -----------------
         O           -0.010324194193     2.132543109490     0.231019608234    15.994914619570
         O            2.260817805807     0.866841109490    -0.578911391766    15.994914619570
         C            0.216098805807    -0.230356890510    -0.028466391766    12.000000000000
         C           -0.605290194193     0.909610109490     0.092621608234    12.000000000000
         C           -0.399235194193    -1.486997890510    -0.130099391766    12.000000000000
         C            1.707881805807    -0.115189890510    -0.087946391766    12.000000000000
         C           -1.997259194193     0.767651109490     0.112764608234    12.000000000000
         C           -1.787874294193    -1.602054690510    -0.124436991766    12.000000000000
         C           -2.585708194193    -0.489896890510    -0.006110391766    12.000000000000
         C            2.521915805807    -1.266389890510     0.472248608234    12.000000000000
         H            0.220752805807    -2.374362890510    -0.224725391766     1.007825032230
         H           -2.623299194193     1.653658109490     0.215123608234     1.007825032230
         H           -2.236747194193    -2.610129890510    -0.220158391766     1.007825032230
         H           -3.669440194193    -0.577291890510     0.003748608234     1.007825032230
         H            2.156423805807    -1.569431890510     1.457189608234     1.007825032230
         H            3.562156805807    -0.944369890510     0.537916608234     1.007825032230
         H            2.468377805807    -2.137705890510    -0.188605391766     1.007825032230
         H           -0.714486194193     2.793360109490     0.361907608234     1.007825032230

  Basis Set: AUG-CC-PVTZ
    Blend: AUG-CC-PVTZ
  Basis Set: (AUG-CC-PVTZ AUX)
    Blend: AUG-CC-PVTZ-JKFIT
	 Reference Energy          =    -457.4834118195942665 [Eh]
	 Singles Energy            =      -0.0000000000000000 [Eh]
	 Same-Spin Energy          =      -0.4783513946204641 [Eh]
	 Opposite-Spin Energy      =      -1.4737224987233124 [Eh]
	 Correlation Energy        =      -1.9520738933437765 [Eh]
	 Total Energy              =    -459.4354857129380321 [Eh]

	 ================> DF-SCS-MP2 Energies <==================
	-----------------------------------------------------------
	 SCS Same-Spin Scale       =       0.3333333333333333 [-]
	 SCS Opposite-Spin Scale   =       1.2000000000000000 [-]
	 SCS Same-Spin Energy      =      -0.1594504648734880 [Eh]
	 SCS Opposite-Spin Energy  =      -1.7684669984679748 [Eh]
	 SCS Correlation Energy    =      -1.9279174633414629 [Eh]
	 SCS Total Energy          =    -459.4113292829357533 [Eh]
	-----------------------------------------------------------

  Dipole Moment: [D]
     X:    -2.9168      Y:    -1.4936      Z:     1.2194     Total:     3.4965

*** Psi4 exiting successfully. Buy a developer a beer!
