                               Psi4 1.4a3.dev225

  ==> Input File <==

--------------------------------------------------------------------------
#psi4
#
memory 32 gb

molecule  {
0 1
  O       -0.0048250     2.1741760     0.2178480
  O        2.2663170     0.9084740    -0.5920830
  C        0.2215980    -0.1887240    -0.0416380
  C       -0.6580343     1.0320761     0.0880361
  C       -0.3937360    -1.4453650    -0.1432710
  C        1.7133810    -0.0735570    -0.1011180
  C       -1.9917600     0.8092840     0.0995930
  C       -1.7801750    -1.5845230    -0.1400000
  C       -2.5802090    -0.4482640    -0.0192820
  C        2.5274150    -1.2247570     0.4590770
  H        0.2262520    -2.3327300    -0.2378970
  H       -2.6178000     1.6952910     0.2019520
  H       -2.2312480    -2.5684970    -0.2333300
  H       -3.6639410    -0.5356590    -0.0094230
  H        2.1619230    -1.5277990     1.4440180
  H        3.5676560    -0.9027370     0.5247450
  H        2.4738770    -2.0960730    -0.2017770
  H       -0.7089870     2.8349930     0.3487360
units angstrom
no_reorient  #important for SAPT in psi4, default
symmetry c1  #important for SAPT in psi4, default
}

set PROPERTIES_ORIGIN ["COM"]
properties('MP2/aug-cc-pvtz', properties = ['dipole'])
--------------------------------------------------------------------------

    Molecular point group: c1
  Charge       = 0
  Multiplicity = 1
  Basis Set: AUG-CC-PVTZ
    Blend: AUG-CC-PVTZ
  Basis Set: (AUG-CC-PVTZ AUX)
    Blend: AUG-CC-PVTZ-JKFIT

    Orbital Energies [Eh]
    ---------------------

    Doubly Occupied:

       1A    -20.609524     2A    -20.535589     3A    -11.331404
       4A    -11.327991     5A    -11.261695     6A    -11.259599
       7A    -11.255117     8A    -11.239663     9A    -11.239551
      10A    -11.231842    11A     -1.439634    12A     -1.366257
      13A     -1.158031    14A     -1.054126    15A     -1.020958
      16A     -0.988439    17A     -0.873912    18A     -0.846926
      19A     -0.763870    20A     -0.745807    21A     -0.685714
      22A     -0.669796    23A     -0.626892    24A     -0.621549
      25A     -0.616068    26A     -0.607270    27A     -0.593242
      28A     -0.578527    29A     -0.551322    30A     -0.537255
      31A     -0.508764    32A     -0.496608    33A     -0.478503
      34A     -0.408617    35A     -0.358143    36A     -0.319241

  @DF-RHF Final Energy:  -457.47221637631782

   => Energetics <=

    Nuclear Repulsion Energy =            494.1618143494910669
    One-Electron Energy =               -1602.8531712931871880
    Two-Electron Energy =                 651.2191405673781901
    Total Energy =                       -457.4722163763178742
  Basis Set: (AUG-CC-PVTZ AUX)
    Blend: AUG-CC-PVTZ-RI
    Molecular point group: c1

    Geometry (in Angstrom), charge = 0, multiplicity = 1:

       Center              X                  Y                   Z               Mass
    ------------   -----------------  -----------------  -----------------  -----------------
         O           -0.005381111570     2.127539282638     0.230473227693    15.994914619570
         O            2.265760888430     0.861837282638    -0.579457772307    15.994914619570
         C            0.221041888430    -0.235360717362    -0.029012772307    12.000000000000
         C           -0.658590411570     0.985439382638     0.100661327693    12.000000000000
         C           -0.394292111570    -1.492001717362    -0.130645772307    12.000000000000
         C            1.712824888430    -0.120193717362    -0.088492772307    12.000000000000
         C           -1.992316111570     0.762647282638     0.112218227693    12.000000000000
         C           -1.780731111570    -1.631159717362    -0.127374772307    12.000000000000
         C           -2.580765111570    -0.494900717362    -0.006656772307    12.000000000000
         C            2.526858888430    -1.271393717362     0.471702227693    12.000000000000
         H            0.225695888430    -2.379366717362    -0.225271772307     1.007825032230
         H           -2.618356111570     1.648654282638     0.214577227693     1.007825032230
         H           -2.231804111570    -2.615133717362    -0.220704772307     1.007825032230
         H           -3.664497111570    -0.582295717362     0.003202227693     1.007825032230
         H            2.161366888430    -1.574435717362     1.456643227693     1.007825032230
         H            3.567099888430    -0.949373717362     0.537370227693     1.007825032230
         H            2.473320888430    -2.142709717362    -0.189151772307     1.007825032230
         H           -0.709543111570     2.788356282638     0.361361227693     1.007825032230

  Basis Set: AUG-CC-PVTZ
    Blend: AUG-CC-PVTZ
  Basis Set: (AUG-CC-PVTZ AUX)
    Blend: AUG-CC-PVTZ-JKFIT
	 Reference Energy          =    -457.4722163763178173 [Eh]
	 Singles Energy            =      -0.0000000000000000 [Eh]
	 Same-Spin Energy          =      -0.4784219758944022 [Eh]
	 Opposite-Spin Energy      =      -1.4741415012281736 [Eh]
	 Correlation Energy        =      -1.9525634771225757 [Eh]
	 Total Energy              =    -459.4247798534403842 [Eh]

	 ================> DF-SCS-MP2 Energies <==================
	-----------------------------------------------------------
	 SCS Same-Spin Scale       =       0.3333333333333333 [-]
	 SCS Opposite-Spin Scale   =       1.2000000000000000 [-]
	 SCS Same-Spin Energy      =      -0.1594739919648007 [Eh]
	 SCS Opposite-Spin Energy  =      -1.7689698014738082 [Eh]
	 SCS Correlation Energy    =      -1.9284437934386089 [Eh]
	 SCS Total Energy          =    -459.4006601697564065 [Eh]
	-----------------------------------------------------------

  Dipole Moment: [D]
     X:    -2.8727      Y:    -1.1961      Z:     1.2596     Total:     3.3571

*** Psi4 exiting successfully. Buy a developer a beer!
