                               Psi4 1.4a3.dev225

  ==> Input File <==

--------------------------------------------------------------------------
#psi4
#
memory 32 gb

molecule  {
0 1
  O       -0.0048250     2.1741760     0.2178480
  O        2.2663170     0.9084740    -0.5920830
  C        0.1772365    -0.1681855    -0.0387973
  C       -0.5997910     0.9512430     0.0794500
  C       -0.3937360    -1.4453650    -0.1432710
  C        1.7133810    -0.0735570    -0.1011180
  C       -1.9917600     0.8092840     0.0995930
  C       -1.7801750    -1.5845230    -0.1400000
  C       -2.5802090    -0.4482640    -0.0192820
  C        2.5274150    -1.2247570     0.4590770
  H        0.2262520    -2.3327300    -0.2378970
  H       -2.6178000     1.6952910     0.2019520
  H       -2.2312480    -2.5684970    -0.2333300
  H       -3.6639410    -0.5356590    -0.0094230
  H        2.1619230    -1.5277990     1.4440180
  H        3.5676560    -0.9027370     0.5247450
  H        2.4738770    -2.0960730    -0.2017770
  H       -0.7089870     2.8349930     0.3487360
units angstrom
no_reorient  #important for SAPT in psi4, default
symmetry c1  #important for SAPT in psi4, default
}

set PROPERTIES_ORIGIN ["COM"]
properties('MP2/aug-cc-pvtz', properties = ['dipole'])
--------------------------------------------------------------------------

    Molecular point group: c1
  Charge       = 0
  Multiplicity = 1
  Basis Set: AUG-CC-PVTZ
    Blend: AUG-CC-PVTZ
  Basis Set: (AUG-CC-PVTZ AUX)
    Blend: AUG-CC-PVTZ-JKFIT

    Orbital Energies [Eh]
    ---------------------

    Doubly Occupied:

       1A    -20.595456     2A    -20.538602     3A    -11.335839
       4A    -11.317642     5A    -11.259583     6A    -11.258857
       7A    -11.247755     8A    -11.247595     9A    -11.241785
      10A    -11.234926    11A     -1.409689    12A     -1.367363
      13A     -1.166373    14A     -1.053267    15A     -1.022007
      16A     -0.996615    17A     -0.868184    18A     -0.847064
      19A     -0.761622    20A     -0.740262    21A     -0.679751
      22A     -0.668528    23A     -0.638604    24A     -0.621902
      25A     -0.611381    26A     -0.599765    27A     -0.588245
      28A     -0.574588    29A     -0.551004    30A     -0.530729
      31A     -0.522602    32A     -0.500158    33A     -0.480749
      34A     -0.407415    35A     -0.355256    36A     -0.330417

  @DF-RHF Final Energy:  -457.48212271278732

   => Energetics <=

    Nuclear Repulsion Energy =            495.0634376713086908
    One-Electron Energy =               -1604.7479619458672460
    Two-Electron Energy =                 652.2024015617712394
    Total Energy =                       -457.4821227127872589
  Basis Set: (AUG-CC-PVTZ AUX)
    Blend: AUG-CC-PVTZ-RI
    Molecular point group: c1

    Geometry (in Angstrom), charge = 0, multiplicity = 1:

       Center              X                  Y                   Z               Mass
    ------------   -----------------  -----------------  -----------------  -----------------
         O           -0.006605504259     2.132857344232     0.230979979394    15.994914619570
         O            2.264536495741     0.867155344232    -0.578951020606    15.994914619570
         C            0.175455995741    -0.209504155768    -0.025665320606    12.000000000000
         C           -0.601571504259     0.909924344232     0.092581979394    12.000000000000
         C           -0.395516504259    -1.486683655768    -0.130139020606    12.000000000000
         C            1.711600495741    -0.114875655768    -0.087986020606    12.000000000000
         C           -1.993540504259     0.767965344232     0.112724979394    12.000000000000
         C           -1.781955504259    -1.625841655768    -0.126868020606    12.000000000000
         C           -2.581989504259    -0.489582655768    -0.006150020606    12.000000000000
         C            2.525634495741    -1.266075655768     0.472208979394    12.000000000000
         H            0.224471495741    -2.374048655768    -0.224765020606     1.007825032230
         H           -2.619580504259     1.653972344232     0.215083979394     1.007825032230
         H           -2.233028504259    -2.609815655768    -0.220198020606     1.007825032230
         H           -3.665721504259    -0.576977655768     0.003708979394     1.007825032230
         H            2.160142495741    -1.569117655768     1.457149979394     1.007825032230
         H            3.565875495741    -0.944055655768     0.537876979394     1.007825032230
         H            2.472096495741    -2.137391655768    -0.188645020606     1.007825032230
         H           -0.710767504259     2.793674344232     0.361867979394     1.007825032230

  Basis Set: AUG-CC-PVTZ
    Blend: AUG-CC-PVTZ
  Basis Set: (AUG-CC-PVTZ AUX)
    Blend: AUG-CC-PVTZ-JKFIT
	 Reference Energy          =    -457.4821227127873158 [Eh]
	 Singles Energy            =      -0.0000000000000000 [Eh]
	 Same-Spin Energy          =      -0.4780830530448136 [Eh]
	 Opposite-Spin Energy      =      -1.4734283770092373 [Eh]
	 Correlation Energy        =      -1.9515114300540510 [Eh]
	 Total Energy              =    -459.4336341428413562 [Eh]

	 ================> DF-SCS-MP2 Energies <==================
	-----------------------------------------------------------
	 SCS Same-Spin Scale       =       0.3333333333333333 [-]
	 SCS Opposite-Spin Scale   =       1.2000000000000000 [-]
	 SCS Same-Spin Energy      =      -0.1593610176816045 [Eh]
	 SCS Opposite-Spin Energy  =      -1.7681140524110848 [Eh]
	 SCS Correlation Energy    =      -1.9274750700926893 [Eh]
	 SCS Total Energy          =    -459.4095977828799846 [Eh]
	-----------------------------------------------------------

  Dipole Moment: [D]
     X:    -2.8241      Y:    -1.5383      Z:     1.2173     Total:     3.4386

*** Psi4 exiting successfully. Buy a developer a beer!
