                               Psi4 1.4a3.dev225

  ==> Input File <==

--------------------------------------------------------------------------
#psi4
#
memory 32 gb

molecule  {
0 1
  O       -0.0048250     2.1741760     0.2178480
  O        2.2663170     0.9084740    -0.5920830
  C        0.3080188    -0.2343672    -0.0476873
  C       -0.5997910     0.9512430     0.0794500
  C       -0.3937360    -1.4453650    -0.1432710
  C        1.7133810    -0.0735570    -0.1011180
  C       -1.9917600     0.8092840     0.0995930
  C       -1.7801750    -1.5845230    -0.1400000
  C       -2.5802090    -0.4482640    -0.0192820
  C        2.5274150    -1.2247570     0.4590770
  H        0.2262520    -2.3327300    -0.2378970
  H       -2.6178000     1.6952910     0.2019520
  H       -2.2312480    -2.5684970    -0.2333300
  H       -3.6639410    -0.5356590    -0.0094230
  H        2.1619230    -1.5277990     1.4440180
  H        3.5676560    -0.9027370     0.5247450
  H        2.4738770    -2.0960730    -0.2017770
  H       -0.7089870     2.8349930     0.3487360
units angstrom
no_reorient  #important for SAPT in psi4, default
symmetry c1  #important for SAPT in psi4, default
}

set PROPERTIES_ORIGIN ["COM"]
properties('MP2/aug-cc-pvtz', properties = ['dipole'])
--------------------------------------------------------------------------

    Molecular point group: c1
  Charge       = 0
  Multiplicity = 1
  Basis Set: AUG-CC-PVTZ
    Blend: AUG-CC-PVTZ
  Basis Set: (AUG-CC-PVTZ AUX)
    Blend: AUG-CC-PVTZ-JKFIT

    Orbital Energies [Eh]
    ---------------------

    Doubly Occupied:

       1A    -20.600896     2A    -20.534651     3A    -11.337718
       4A    -11.326151     5A    -11.266407     6A    -11.265525
       7A    -11.253371     8A    -11.247533     9A    -11.242413
      10A    -11.229659    11A     -1.413064    12A     -1.366842
      13A     -1.160153    14A     -1.066825    15A     -1.016773
      16A     -0.990024    17A     -0.882277    18A     -0.846131
      19A     -0.770778    20A     -0.739741    21A     -0.683984
      22A     -0.671105    23A     -0.635461    24A     -0.620549
      25A     -0.609134    26A     -0.599638    27A     -0.586740
      28A     -0.576674    29A     -0.550549    30A     -0.536771
      31A     -0.514059    32A     -0.497449    33A     -0.477887
      34A     -0.413522    35A     -0.359853    36A     -0.321687

  @DF-RHF Final Energy:  -457.47089251879481

   => Energetics <=

    Nuclear Repulsion Energy =            494.4668766235077442
    One-Electron Energy =               -1603.4515535177258698
    Two-Electron Energy =                 651.5137843754233700
    Total Energy =                       -457.4708925187948125
  Basis Set: (AUG-CC-PVTZ AUX)
    Blend: AUG-CC-PVTZ-RI
    Molecular point group: c1

    Geometry (in Angstrom), charge = 0, multiplicity = 1:

       Center              X                  Y                   Z               Mass
    ------------   -----------------  -----------------  -----------------  -----------------
         O           -0.018140672031     2.138694655649     0.231764088876    15.994914619570
         O            2.253001327969     0.872992655649    -0.578166911124    15.994914619570
         C            0.294703127969    -0.269848544351    -0.033771211124    12.000000000000
         C           -0.613106672031     0.915761655649     0.093366088876    12.000000000000
         C           -0.407051672031    -1.480846344351    -0.129354911124    12.000000000000
         C            1.700065327969    -0.109038344351    -0.087201911124    12.000000000000
         C           -2.005075672031     0.773802655649     0.113509088876    12.000000000000
         C           -1.793490672031    -1.620004344351    -0.126083911124    12.000000000000
         C           -2.593524672031    -0.483745344351    -0.005365911124    12.000000000000
         C            2.514099327969    -1.260238344351     0.472993088876    12.000000000000
         H            0.212936327969    -2.368211344351    -0.223980911124     1.007825032230
         H           -2.631115672031     1.659809655649     0.215868088876     1.007825032230
         H           -2.244563672031    -2.603978344351    -0.219413911124     1.007825032230
         H           -3.677256672031    -0.571140344351     0.004493088876     1.007825032230
         H            2.148607327969    -1.563280344351     1.457934088876     1.007825032230
         H            3.554340327969    -0.938218344351     0.538661088876     1.007825032230
         H            2.460561327969    -2.131554344351    -0.187860911124     1.007825032230
         H           -0.722302672031     2.799511655649     0.362652088876     1.007825032230

  Basis Set: AUG-CC-PVTZ
    Blend: AUG-CC-PVTZ
  Basis Set: (AUG-CC-PVTZ AUX)
    Blend: AUG-CC-PVTZ-JKFIT
	 Reference Energy          =    -457.4708925187948125 [Eh]
	 Singles Energy            =      -0.0000000000000000 [Eh]
	 Same-Spin Energy          =      -0.4791217949727956 [Eh]
	 Opposite-Spin Energy      =      -1.4754211055240325 [Eh]
	 Correlation Energy        =      -1.9545429004968282 [Eh]
	 Total Energy              =    -459.4254354192916594 [Eh]

	 ================> DF-SCS-MP2 Energies <==================
	-----------------------------------------------------------
	 SCS Same-Spin Scale       =       0.3333333333333333 [-]
	 SCS Opposite-Spin Scale   =       1.2000000000000000 [-]
	 SCS Same-Spin Energy      =      -0.1597072649909319 [Eh]
	 SCS Opposite-Spin Energy  =      -1.7705053266288389 [Eh]
	 SCS Correlation Energy    =      -1.9302125916197708 [Eh]
	 SCS Total Energy          =    -459.4011051104145622 [Eh]
	-----------------------------------------------------------

  Dipole Moment: [D]
     X:    -3.1575      Y:    -1.4067      Z:     1.2215     Total:     3.6661

*** Psi4 exiting successfully. Buy a developer a beer!
