                               Psi4 1.4a3.dev225

  ==> Input File <==

--------------------------------------------------------------------------
#psi4
#
memory 32 gb

molecule  {
0 1
  O       -0.0048250     2.1741760     0.2178480
  O        2.2663170     0.9084740    -0.5920830
  C        0.2215980    -0.1887240    -0.0416380
  C       -0.5706693     0.9108264     0.0751569
  C       -0.3937360    -1.4453650    -0.1432710
  C        1.7133810    -0.0735570    -0.1011180
  C       -1.9917600     0.8092840     0.0995930
  C       -1.7801750    -1.5845230    -0.1400000
  C       -2.5802090    -0.4482640    -0.0192820
  C        2.5274150    -1.2247570     0.4590770
  H        0.2262520    -2.3327300    -0.2378970
  H       -2.6178000     1.6952910     0.2019520
  H       -2.2312480    -2.5684970    -0.2333300
  H       -3.6639410    -0.5356590    -0.0094230
  H        2.1619230    -1.5277990     1.4440180
  H        3.5676560    -0.9027370     0.5247450
  H        2.4738770    -2.0960730    -0.2017770
  H       -0.7089870     2.8349930     0.3487360
units angstrom
no_reorient  #important for SAPT in psi4, default
symmetry c1  #important for SAPT in psi4, default
}

set PROPERTIES_ORIGIN ["COM"]
properties('MP2/aug-cc-pvtz', properties = ['dipole'])
--------------------------------------------------------------------------

    Molecular point group: c1
  Charge       = 0
  Multiplicity = 1
  Basis Set: AUG-CC-PVTZ
    Blend: AUG-CC-PVTZ
  Basis Set: (AUG-CC-PVTZ AUX)
    Blend: AUG-CC-PVTZ-JKFIT

    Orbital Energies [Eh]
    ---------------------

    Doubly Occupied:

       1A    -20.590747     2A    -20.538781     3A    -11.334195
       4A    -11.322503     5A    -11.261859     6A    -11.260756
       7A    -11.251578     8A    -11.246198     9A    -11.243262
      10A    -11.234190    11A     -1.396929    12A     -1.367700
      13A     -1.167518    14A     -1.060461    15A     -1.018612
      16A     -0.997723    17A     -0.870470    18A     -0.848631
      19A     -0.765592    20A     -0.735566    21A     -0.679003
      22A     -0.670026    23A     -0.642818    24A     -0.621326
      25A     -0.609644    26A     -0.597817    27A     -0.582828
      28A     -0.573153    29A     -0.551395    30A     -0.530133
      31A     -0.522518    32A     -0.500105    33A     -0.480606
      34A     -0.411330    35A     -0.358086    36A     -0.330498

  @DF-RHF Final Energy:  -457.48091211842222

   => Energetics <=

    Nuclear Repulsion Energy =            495.2088781914517881
    One-Electron Energy =               -1605.0304659679375163
    Two-Electron Energy =                 652.3406756580635601
    Total Energy =                       -457.4809121184222249
  Basis Set: (AUG-CC-PVTZ AUX)
    Blend: AUG-CC-PVTZ-RI
    Molecular point group: c1

    Geometry (in Angstrom), charge = 0, multiplicity = 1:

       Center              X                  Y                   Z               Mass
    ------------   -----------------  -----------------  -----------------  -----------------
         O           -0.013086817406     2.138233662778     0.231609189768    15.994914619570
         O            2.258055182594     0.872531662778    -0.578321810232    15.994914619570
         C            0.213336182594    -0.224666337222    -0.027876810232    12.000000000000
         C           -0.578931117406     0.874884062778     0.088918089768    12.000000000000
         C           -0.401997817406    -1.481307337222    -0.129509810232    12.000000000000
         C            1.705119182594    -0.109499337222    -0.087356810232    12.000000000000
         C           -2.000021817406     0.773341662778     0.113354189768    12.000000000000
         C           -1.788436817406    -1.620465337222    -0.126238810232    12.000000000000
         C           -2.588470817406    -0.484206337222    -0.005520810232    12.000000000000
         C            2.519153182594    -1.260699337222     0.472838189768    12.000000000000
         H            0.217990182594    -2.368672337222    -0.224135810232     1.007825032230
         H           -2.626061817406     1.659348662778     0.215713189768     1.007825032230
         H           -2.239509817406    -2.604439337222    -0.219568810232     1.007825032230
         H           -3.672202817406    -0.571601337222     0.004338189768     1.007825032230
         H            2.153661182594    -1.563741337222     1.457779189768     1.007825032230
         H            3.559394182594    -0.938679337222     0.538506189768     1.007825032230
         H            2.465615182594    -2.132015337222    -0.188015810232     1.007825032230
         H           -0.717248817406     2.799050662778     0.362497189768     1.007825032230

  Basis Set: AUG-CC-PVTZ
    Blend: AUG-CC-PVTZ
  Basis Set: (AUG-CC-PVTZ AUX)
    Blend: AUG-CC-PVTZ-JKFIT
	 Reference Energy          =    -457.4809121184222249 [Eh]
	 Singles Energy            =      -0.0000000000000000 [Eh]
	 Same-Spin Energy          =      -0.4781245909833378 [Eh]
	 Opposite-Spin Energy      =      -1.4739760074624146 [Eh]
	 Correlation Energy        =      -1.9521005984457525 [Eh]
	 Total Energy              =    -459.4330127168679496 [Eh]

	 ================> DF-SCS-MP2 Energies <==================
	-----------------------------------------------------------
	 SCS Same-Spin Scale       =       0.3333333333333333 [-]
	 SCS Opposite-Spin Scale   =       1.2000000000000000 [-]
	 SCS Same-Spin Energy      =      -0.1593748636611126 [Eh]
	 SCS Opposite-Spin Energy  =      -1.7687712089548975 [Eh]
	 SCS Correlation Energy    =      -1.9281460726160100 [Eh]
	 SCS Total Energy          =    -459.4090581910382411 [Eh]
	-----------------------------------------------------------

  Dipole Moment: [D]
     X:    -2.9532      Y:    -1.6544      Z:     1.1973     Total:     3.5905

*** Psi4 exiting successfully. Buy a developer a beer!
