                               Psi4 1.4a3.dev225

  ==> Input File <==

--------------------------------------------------------------------------
#psi4
#
memory 32 gb

molecule  {
0 1
  O       -0.0048250     2.1741760     0.2178480
  O        2.2663170     0.9084740    -0.5920830
  C        0.2215980    -0.1887240    -0.0416380
  C       -0.5997910     0.9512430     0.0794500
  C       -0.3937360    -1.4453650    -0.1432710
  C        1.7133810    -0.0735570    -0.1011180
  C       -1.9917600     0.8092840     0.0995930
  C       -1.7745086    -1.6325909    -0.1447850
  C       -2.5802090    -0.4482640    -0.0192820
  C        2.5274150    -1.2247570     0.4590770
  H        0.2262520    -2.3327300    -0.2378970
  H       -2.6178000     1.6952910     0.2019520
  H       -2.2312480    -2.5684970    -0.2333300
  H       -3.6639410    -0.5356590    -0.0094230
  H        2.1619230    -1.5277990     1.4440180
  H        3.5676560    -0.9027370     0.5247450
  H        2.4738770    -2.0960730    -0.2017770
  H       -0.7089870     2.8349930     0.3487360
units angstrom
no_reorient  #important for SAPT in psi4, default
symmetry c1  #important for SAPT in psi4, default
}

set PROPERTIES_ORIGIN ["COM"]
properties('MP2/aug-cc-pvtz', properties = ['dipole'])
--------------------------------------------------------------------------

    Molecular point group: c1
  Charge       = 0
  Multiplicity = 1
  Basis Set: AUG-CC-PVTZ
    Blend: AUG-CC-PVTZ
  Basis Set: (AUG-CC-PVTZ AUX)
    Blend: AUG-CC-PVTZ-JKFIT

    Orbital Energies [Eh]
    ---------------------

    Doubly Occupied:

       1A    -20.598519     2A    -20.536889     3A    -11.332847
       4A    -11.326407     5A    -11.266673     6A    -11.261202
       7A    -11.249066     8A    -11.248564     9A    -11.242855
      10A    -11.232752    11A     -1.411900    12A     -1.366931
      13A     -1.159884    14A     -1.054796    15A     -1.020205
      16A     -0.993723    17A     -0.868717    18A     -0.849560
      19A     -0.767488    20A     -0.739998    21A     -0.682248
      22A     -0.670214    23A     -0.634792    24A     -0.621181
      25A     -0.611089    26A     -0.602319    27A     -0.587609
      28A     -0.575306    29A     -0.552002    30A     -0.538787
      31A     -0.514733    32A     -0.497864    33A     -0.478146
      34A     -0.410348    35A     -0.356817    36A     -0.325529

  @DF-RHF Final Energy:  -457.48085667903615

   => Energetics <=

    Nuclear Repulsion Energy =            494.0890820271669668
    One-Electron Energy =               -1602.7639603580062158
    Two-Electron Energy =                 651.1940216518030411
    Total Energy =                       -457.4808566790361510
  Basis Set: (AUG-CC-PVTZ AUX)
    Blend: AUG-CC-PVTZ-RI
    Molecular point group: c1

    Geometry (in Angstrom), charge = 0, multiplicity = 1:

       Center              X                  Y                   Z               Mass
    ------------   -----------------  -----------------  -----------------  -----------------
         O           -0.011018029653     2.138908517320     0.231652575983    15.994914619570
         O            2.260123970347     0.873206517320    -0.578278424017    15.994914619570
         C            0.215404970347    -0.223991482680    -0.027833424017    12.000000000000
         C           -0.605984029653     0.915975517320     0.093254575983    12.000000000000
         C           -0.399929029653    -1.480632482680    -0.129466424017    12.000000000000
         C            1.707187970347    -0.108824482680    -0.087313424017    12.000000000000
         C           -1.997953029653     0.774016517320     0.113397575983    12.000000000000
         C           -1.780701629653    -1.667858382680    -0.130980424017    12.000000000000
         C           -2.586402029653    -0.483531482680    -0.005477424017    12.000000000000
         C            2.521221970347    -1.260024482680     0.472881575983    12.000000000000
         H            0.220058970347    -2.367997482680    -0.224092424017     1.007825032230
         H           -2.623993029653     1.660023517320     0.215756575983     1.007825032230
         H           -2.237441029653    -2.603764482680    -0.219525424017     1.007825032230
         H           -3.670134029653    -0.570926482680     0.004381575983     1.007825032230
         H            2.155729970347    -1.563066482680     1.457822575983     1.007825032230
         H            3.561462970347    -0.938004482680     0.538549575983     1.007825032230
         H            2.467683970347    -2.131340482680    -0.187972424017     1.007825032230
         H           -0.715180029653     2.799725517320     0.362540575983     1.007825032230

  Basis Set: AUG-CC-PVTZ
    Blend: AUG-CC-PVTZ
  Basis Set: (AUG-CC-PVTZ AUX)
    Blend: AUG-CC-PVTZ-JKFIT
	 Reference Energy          =    -457.4808566790361510 [Eh]
	 Singles Energy            =      -0.0000000000000000 [Eh]
	 Same-Spin Energy          =      -0.4781684486927515 [Eh]
	 Opposite-Spin Energy      =      -1.4740033096600103 [Eh]
	 Correlation Energy        =      -1.9521717583527618 [Eh]
	 Total Energy              =    -459.4330284373888844 [Eh]

	 ================> DF-SCS-MP2 Energies <==================
	-----------------------------------------------------------
	 SCS Same-Spin Scale       =       0.3333333333333333 [-]
	 SCS Opposite-Spin Scale   =       1.2000000000000000 [-]
	 SCS Same-Spin Energy      =      -0.1593894828975838 [Eh]
	 SCS Opposite-Spin Energy  =      -1.7688039715920123 [Eh]
	 SCS Correlation Energy    =      -1.9281934544895962 [Eh]
	 SCS Total Energy          =    -459.4090501335257386 [Eh]
	-----------------------------------------------------------

  Dipole Moment: [D]
     X:    -2.9552      Y:    -1.4816      Z:     1.2195     Total:     3.5236

*** Psi4 exiting successfully. Buy a developer a beer!
