                               Psi4 1.4a3.dev225

  ==> Input File <==

--------------------------------------------------------------------------
#psi4
#
memory 32 gb

molecule  {
0 1
  O       -0.0048250     2.1741760     0.2178480
  O        2.2663170     0.9084740    -0.5920830
  C        0.2215980    -0.1887240    -0.0416380
  C       -0.5997910     0.9512430     0.0794500
  C       -0.3937360    -1.4453650    -0.1432710
  C        1.7133810    -0.0735570    -0.1011180
  C       -1.9917600     0.8092840     0.0995930
  C       -1.7801750    -1.5845230    -0.1400000
  C       -2.5802090    -0.4482640    -0.0192820
  C        2.5274150    -1.2247570     0.4590770
  H        0.2262520    -2.3327300    -0.2378970
  H       -2.6178000     1.6952910     0.2019520
  H       -2.2312480    -2.5684970    -0.2333300
  H       -3.6639410    -0.5356590    -0.0094230
  H        2.1619230    -1.5277990     1.4440180
  H        3.5676560    -0.9027370     0.5247450
  H        2.4738770    -2.0960730    -0.2017770
  H       -0.7812456     2.9028037     0.3621673
units angstrom
no_reorient  #important for SAPT in psi4, default
symmetry c1  #important for SAPT in psi4, default
}

set PROPERTIES_ORIGIN ["COM"]
properties('MP2/aug-cc-pvtz', properties = ['dipole'])
--------------------------------------------------------------------------

    Molecular point group: c1
  Charge       = 0
  Multiplicity = 1
  Basis Set: AUG-CC-PVTZ
    Blend: AUG-CC-PVTZ
  Basis Set: (AUG-CC-PVTZ AUX)
    Blend: AUG-CC-PVTZ-JKFIT

    Orbital Energies [Eh]
    ---------------------

    Doubly Occupied:

       1A    -20.604450     2A    -20.537204     3A    -11.332776
       4A    -11.323942     5A    -11.260828     6A    -11.260671
       7A    -11.249335     8A    -11.246699     9A    -11.241115
      10A    -11.233024    11A     -1.394005    12A     -1.366096
      13A     -1.161978    14A     -1.056627    15A     -1.016362
      16A     -0.993996    17A     -0.870453    18A     -0.841306
      19A     -0.763297    20A     -0.726847    21A     -0.678162
      22A     -0.668176    23A     -0.635363    24A     -0.619734
      25A     -0.609729    26A     -0.597564    27A     -0.585804
      28A     -0.570322    29A     -0.550183    30A     -0.530949
      31A     -0.519330    32A     -0.498748    33A     -0.479481
      34A     -0.410056    35A     -0.356094    36A     -0.326130

  @DF-RHF Final Energy:  -457.47050828071934

   => Energetics <=

    Nuclear Repulsion Energy =            494.2347797469167858
    One-Electron Energy =               -1603.1769051360224694
    Two-Electron Energy =                 651.4716171083863401
    Total Energy =                       -457.4705082807194003
  Basis Set: (AUG-CC-PVTZ AUX)
    Blend: AUG-CC-PVTZ-RI
    Molecular point group: c1

    Geometry (in Angstrom), charge = 0, multiplicity = 1:

       Center              X                  Y                   Z               Mass
    ------------   -----------------  -----------------  -----------------  -----------------
         O           -0.009982981426     2.134166550394     0.231131038803    15.994914619570
         O            2.261159018574     0.868464550394    -0.578799961197    15.994914619570
         C            0.216440018574    -0.228733449606    -0.028354961197    12.000000000000
         C           -0.604948981426     0.911233550394     0.092733038803    12.000000000000
         C           -0.398893981426    -1.485374449606    -0.129987961197    12.000000000000
         C            1.708223018574    -0.113566449606    -0.087834961197    12.000000000000
         C           -1.996917981426     0.769274550394     0.112876038803    12.000000000000
         C           -1.785332981426    -1.624532449606    -0.126716961197    12.000000000000
         C           -2.585366981426    -0.488273449606    -0.005998961197    12.000000000000
         C            2.522257018574    -1.264766449606     0.472360038803    12.000000000000
         H            0.221094018574    -2.372739449606    -0.224613961197     1.007825032230
         H           -2.622957981426     1.655281550394     0.215235038803     1.007825032230
         H           -2.236405981426    -2.608506449606    -0.220046961197     1.007825032230
         H           -3.669098981426    -0.575668449606     0.003860038803     1.007825032230
         H            2.156765018574    -1.567808449606     1.457301038803     1.007825032230
         H            3.562498018574    -0.942746449606     0.538028038803     1.007825032230
         H            2.468719018574    -2.136082449606    -0.188493961197     1.007825032230
         H           -0.786403581426     2.862794250394     0.375450338803     1.007825032230

  Basis Set: AUG-CC-PVTZ
    Blend: AUG-CC-PVTZ
  Basis Set: (AUG-CC-PVTZ AUX)
    Blend: AUG-CC-PVTZ-JKFIT
	 Reference Energy          =    -457.4705082807193435 [Eh]
	 Singles Energy            =      -0.0000000000000000 [Eh]
	 Same-Spin Energy          =      -0.4795715041657269 [Eh]
	 Opposite-Spin Energy      =      -1.4771146495545571 [Eh]
	 Correlation Energy        =      -1.9566861537202840 [Eh]
	 Total Energy              =    -459.4271944344396275 [Eh]

	 ================> DF-SCS-MP2 Energies <==================
	-----------------------------------------------------------
	 SCS Same-Spin Scale       =       0.3333333333333333 [-]
	 SCS Opposite-Spin Scale   =       1.2000000000000000 [-]
	 SCS Same-Spin Energy      =      -0.1598571680552423 [Eh]
	 SCS Opposite-Spin Energy  =      -1.7725375794654685 [Eh]
	 SCS Correlation Energy    =      -1.9323947475207108 [Eh]
	 SCS Total Energy          =    -459.4029030282400754 [Eh]
	-----------------------------------------------------------

  Dipole Moment: [D]
     X:    -2.9711      Y:    -1.3984      Z:     1.2336     Total:     3.5078

*** Psi4 exiting successfully. Buy a developer a beer!
