                               Psi4 1.4a3.dev225

  ==> Input File <==

--------------------------------------------------------------------------
#psi4
#
memory 32 gb

molecule  {
0 1
  O       -0.0048250     2.1741760     0.2178480
  O        2.2663170     0.9084740    -0.5920830
  C        0.2215980    -0.1887240    -0.0416380
  C       -0.5881423     0.9350764     0.0777328
  C       -0.3937360    -1.4453650    -0.1432710
  C        1.7133810    -0.0735570    -0.1011180
  C       -1.9917600     0.8092840     0.0995930
  C       -1.7801750    -1.5845230    -0.1400000
  C       -2.5802090    -0.4482640    -0.0192820
  C        2.5274150    -1.2247570     0.4590770
  H        0.2262520    -2.3327300    -0.2378970
  H       -2.6178000     1.6952910     0.2019520
  H       -2.2312480    -2.5684970    -0.2333300
  H       -3.6639410    -0.5356590    -0.0094230
  H        2.1619230    -1.5277990     1.4440180
  H        3.5676560    -0.9027370     0.5247450
  H        2.4738770    -2.0960730    -0.2017770
  H       -0.7089870     2.8349930     0.3487360
units angstrom
no_reorient  #important for SAPT in psi4, default
symmetry c1  #important for SAPT in psi4, default
}

set PROPERTIES_ORIGIN ["COM"]
properties('MP2/aug-cc-pvtz', properties = ['dipole'])
--------------------------------------------------------------------------

    Molecular point group: c1
  Charge       = 0
  Multiplicity = 1
  Basis Set: AUG-CC-PVTZ
    Blend: AUG-CC-PVTZ
  Basis Set: (AUG-CC-PVTZ AUX)
    Blend: AUG-CC-PVTZ-JKFIT

    Orbital Energies [Eh]
    ---------------------

    Doubly Occupied:

       1A    -20.594624     2A    -20.538022     3A    -11.333537
       4A    -11.323897     5A    -11.261457     6A    -11.261008
       7A    -11.249103     8A    -11.248458     9A    -11.242358
      10A    -11.233659    11A     -1.405154    12A     -1.367593
      13A     -1.165089    14A     -1.058363    15A     -1.018953
      16A     -0.996077    17A     -0.870883    18A     -0.848257
      19A     -0.764637    20A     -0.738611    21A     -0.680127
      22A     -0.669613    23A     -0.639579    24A     -0.621388
      25A     -0.610178    26A     -0.598679    27A     -0.585758
      28A     -0.574555    29A     -0.551288    30A     -0.530733
      31A     -0.522404    32A     -0.500020    33A     -0.480252
      34A     -0.410908    35A     -0.356861    36A     -0.328698

  @DF-RHF Final Energy:  -457.48366389199458

   => Energetics <=

    Nuclear Repulsion Energy =            494.9791091907401324
    One-Electron Energy =               -1604.5639865337602714
    Two-Electron Energy =                 652.1012134510257283
    Total Energy =                       -457.4836638919945244
  Basis Set: (AUG-CC-PVTZ AUX)
    Blend: AUG-CC-PVTZ-RI
    Molecular point group: c1

    Geometry (in Angstrom), charge = 0, multiplicity = 1:

       Center              X                  Y                   Z               Mass
    ------------   -----------------  -----------------  -----------------  -----------------
         O           -0.011545676239     2.136094781458     0.231381992061    15.994914619570
         O            2.259596323761     0.870392781458    -0.578549007939    15.994914619570
         C            0.214877323761    -0.226805218542    -0.028104007939    12.000000000000
         C           -0.594862976239     0.896995181458     0.091266792061    12.000000000000
         C           -0.400456676239    -1.483446218542    -0.129737007939    12.000000000000
         C            1.706660323761    -0.111638218542    -0.087584007939    12.000000000000
         C           -1.998480676239     0.771202781458     0.113126992061    12.000000000000
         C           -1.786895676239    -1.622604218542    -0.126466007939    12.000000000000
         C           -2.586929676239    -0.486345218542    -0.005748007939    12.000000000000
         C            2.520694323761    -1.262838218542     0.472610992061    12.000000000000
         H            0.219531323761    -2.370811218542    -0.224363007939     1.007825032230
         H           -2.624520676239     1.657209781458     0.215485992061     1.007825032230
         H           -2.237968676239    -2.606578218542    -0.219796007939     1.007825032230
         H           -3.670661676239    -0.573740218542     0.004110992061     1.007825032230
         H            2.155202323761    -1.565880218542     1.457551992061     1.007825032230
         H            3.560935323761    -0.940818218542     0.538278992061     1.007825032230
         H            2.467156323761    -2.134154218542    -0.188243007939     1.007825032230
         H           -0.715707676239     2.796911781458     0.362269992061     1.007825032230

  Basis Set: AUG-CC-PVTZ
    Blend: AUG-CC-PVTZ
  Basis Set: (AUG-CC-PVTZ AUX)
    Blend: AUG-CC-PVTZ-JKFIT
	 Reference Energy          =    -457.4836638919945813 [Eh]
	 Singles Energy            =      -0.0000000000000000 [Eh]
	 Same-Spin Energy          =      -0.4782266662323756 [Eh]
	 Opposite-Spin Energy      =      -1.4737985985001534 [Eh]
	 Correlation Energy        =      -1.9520252647325289 [Eh]
	 Total Energy              =    -459.4356891567271077 [Eh]

	 ================> DF-SCS-MP2 Energies <==================
	-----------------------------------------------------------
	 SCS Same-Spin Scale       =       0.3333333333333333 [-]
	 SCS Opposite-Spin Scale   =       1.2000000000000000 [-]
	 SCS Same-Spin Energy      =      -0.1594088887441252 [Eh]
	 SCS Opposite-Spin Energy  =      -1.7685583182001841 [Eh]
	 SCS Correlation Energy    =      -1.9279672069443092 [Eh]
	 SCS Total Energy          =    -459.4116310989388694 [Eh]
	-----------------------------------------------------------

  Dipole Moment: [D]
     X:    -2.9409      Y:    -1.5558      Z:     1.2106     Total:     3.5405

*** Psi4 exiting successfully. Buy a developer a beer!
