                               Psi4 1.4a3.dev225

  ==> Input File <==

--------------------------------------------------------------------------
#psi4
#
memory 32 gb

molecule  {
0 1
  O       -0.0048250     2.1741760     0.2178480
  O        2.2663170     0.9084740    -0.5920830
  C        0.2215980    -0.1887240    -0.0416380
  C       -0.5997910     0.9512430     0.0794500
  C       -0.3937360    -1.4453650    -0.1432710
  C        1.7133810    -0.0735570    -0.1011180
  C       -1.9917600     0.8092840     0.0995930
  C       -1.7581379    -1.7279841    -0.1543438
  C       -2.5802090    -0.4482640    -0.0192820
  C        2.5274150    -1.2247570     0.4590770
  H        0.2262520    -2.3327300    -0.2378970
  H       -2.6178000     1.6952910     0.2019520
  H       -2.2312480    -2.5684970    -0.2333300
  H       -3.6639410    -0.5356590    -0.0094230
  H        2.1619230    -1.5277990     1.4440180
  H        3.5676560    -0.9027370     0.5247450
  H        2.4738770    -2.0960730    -0.2017770
  H       -0.7089870     2.8349930     0.3487360
units angstrom
no_reorient  #important for SAPT in psi4, default
symmetry c1  #important for SAPT in psi4, default
}

set PROPERTIES_ORIGIN ["COM"]
properties('MP2/aug-cc-pvtz', properties = ['dipole'])
--------------------------------------------------------------------------

    Molecular point group: c1
  Charge       = 0
  Multiplicity = 1
  Basis Set: AUG-CC-PVTZ
    Blend: AUG-CC-PVTZ
  Basis Set: (AUG-CC-PVTZ AUX)
    Blend: AUG-CC-PVTZ-JKFIT

    Orbital Energies [Eh]
    ---------------------

    Doubly Occupied:

       1A    -20.601439     2A    -20.535708     3A    -11.332411
       4A    -11.330037     5A    -11.276473     6A    -11.262343
       7A    -11.250870     8A    -11.247882     9A    -11.245500
      10A    -11.231700    11A     -1.414340    12A     -1.366084
      13A     -1.154091    14A     -1.051743    15A     -1.022039
      16A     -0.991748    17A     -0.865600    18A     -0.853539
      19A     -0.774880    20A     -0.740225    21A     -0.688678
      22A     -0.669748    23A     -0.631171    24A     -0.621095
      25A     -0.613408    26A     -0.607172    27A     -0.587763
      28A     -0.576911    29A     -0.556839    30A     -0.542129
      31A     -0.501019    32A     -0.491890    33A     -0.474462
      34A     -0.409779    35A     -0.359130    36A     -0.321743

  @DF-RHF Final Energy:  -457.45577755513415

   => Energetics <=

    Nuclear Repulsion Energy =            492.7224088902930248
    One-Electron Energy =               -1599.9531974148007976
    Two-Electron Energy =                 649.7750109693736249
    Total Energy =                       -457.4557775551340910
  Basis Set: (AUG-CC-PVTZ AUX)
    Blend: AUG-CC-PVTZ-RI
    Molecular point group: c1

    Geometry (in Angstrom), charge = 0, multiplicity = 1:

       Center              X                  Y                   Z               Mass
    ------------   -----------------  -----------------  -----------------  -----------------
         O           -0.012461946536     2.147322320765     0.232495674489    15.994914619570
         O            2.258680053464     0.881620320765    -0.577435325511    15.994914619570
         C            0.213961053464    -0.215577679235    -0.026990325511    12.000000000000
         C           -0.607427946536     0.924389320765     0.094097674489    12.000000000000
         C           -0.401372946536    -1.472218679235    -0.128623325511    12.000000000000
         C            1.705744053464    -0.100410679235    -0.086470325511    12.000000000000
         C           -1.999396946536     0.782430320765     0.114240674489    12.000000000000
         C           -1.765774846536    -1.754837779235    -0.139696125511    12.000000000000
         C           -2.587845946536    -0.475117679235    -0.004634325511    12.000000000000
         C            2.519778053464    -1.251610679235     0.473724674489    12.000000000000
         H            0.218615053464    -2.359583679235    -0.223249325511     1.007825032230
         H           -2.625436946536     1.668437320765     0.216599674489     1.007825032230
         H           -2.238884946536    -2.595350679235    -0.218682325511     1.007825032230
         H           -3.671577946536    -0.562512679235     0.005224674489     1.007825032230
         H            2.154286053464    -1.554652679235     1.458665674489     1.007825032230
         H            3.560019053464    -0.929590679235     0.539392674489     1.007825032230
         H            2.466240053464    -2.122926679235    -0.187129325511     1.007825032230
         H           -0.716623946536     2.808139320765     0.363383674489     1.007825032230

  Basis Set: AUG-CC-PVTZ
    Blend: AUG-CC-PVTZ
  Basis Set: (AUG-CC-PVTZ AUX)
    Blend: AUG-CC-PVTZ-JKFIT
	 Reference Energy          =    -457.4557775551341479 [Eh]
	 Singles Energy            =      -0.0000000000000000 [Eh]
	 Same-Spin Energy          =      -0.4781059736083519 [Eh]
	 Opposite-Spin Energy      =      -1.4754558268717868 [Eh]
	 Correlation Energy        =      -1.9535618004801387 [Eh]
	 Total Energy              =    -459.4093393556142928 [Eh]

	 ================> DF-SCS-MP2 Energies <==================
	-----------------------------------------------------------
	 SCS Same-Spin Scale       =       0.3333333333333333 [-]
	 SCS Opposite-Spin Scale   =       1.2000000000000000 [-]
	 SCS Same-Spin Energy      =      -0.1593686578694506 [Eh]
	 SCS Opposite-Spin Energy  =      -1.7705469922461441 [Eh]
	 SCS Correlation Energy    =      -1.9299156501155947 [Eh]
	 SCS Total Energy          =    -459.3856932052497655 [Eh]
	-----------------------------------------------------------

  Dipole Moment: [D]
     X:    -2.9862      Y:    -1.4374      Z:     1.2221     Total:     3.5323

*** Psi4 exiting successfully. Buy a developer a beer!
