                               Psi4 1.4a3.dev225

  ==> Input File <==

--------------------------------------------------------------------------
#psi4
#
memory 32 gb

molecule  {
0 1
  O       -0.0048250     2.1741760     0.2178480
  O        2.2663170     0.9084740    -0.5920830
  C        0.2215980    -0.1887240    -0.0416380
  C       -0.5997910     0.9512430     0.0794500
  C       -0.3937360    -1.4453650    -0.1432710
  C        1.7133810    -0.0735570    -0.1011180
  C       -2.0361993     0.8289119     0.1019843
  C       -1.7801750    -1.5845230    -0.1400000
  C       -2.5802090    -0.4482640    -0.0192820
  C        2.5274150    -1.2247570     0.4590770
  H        0.2262520    -2.3327300    -0.2378970
  H       -2.6178000     1.6952910     0.2019520
  H       -2.2312480    -2.5684970    -0.2333300
  H       -3.6639410    -0.5356590    -0.0094230
  H        2.1619230    -1.5277990     1.4440180
  H        3.5676560    -0.9027370     0.5247450
  H        2.4738770    -2.0960730    -0.2017770
  H       -0.7089870     2.8349930     0.3487360
units angstrom
no_reorient  #important for SAPT in psi4, default
symmetry c1  #important for SAPT in psi4, default
}

set PROPERTIES_ORIGIN ["COM"]
properties('MP2/aug-cc-pvtz', properties = ['dipole'])
--------------------------------------------------------------------------

    Molecular point group: c1
  Charge       = 0
  Multiplicity = 1
  Basis Set: AUG-CC-PVTZ
    Blend: AUG-CC-PVTZ
  Basis Set: (AUG-CC-PVTZ AUX)
    Blend: AUG-CC-PVTZ-JKFIT

    Orbital Energies [Eh]
    ---------------------

    Doubly Occupied:

       1A    -20.598703     2A    -20.537229     3A    -11.333167
       4A    -11.330492     5A    -11.261886     6A    -11.261270
       7A    -11.249053     8A    -11.248697     9A    -11.241153
      10A    -11.233398    11A     -1.411657    12A     -1.367253
      13A     -1.160242    14A     -1.057550    15A     -1.015408
      16A     -0.995162    17A     -0.869243    18A     -0.849576
      19A     -0.765032    20A     -0.739804    21A     -0.679597
      22A     -0.671615    23A     -0.637562    24A     -0.626815
      25A     -0.611604    26A     -0.599124    27A     -0.587270
      28A     -0.575270    29A     -0.551370    30A     -0.533674
      31A     -0.518358    32A     -0.499440    33A     -0.479518
      34A     -0.410237    35A     -0.357215    36A     -0.323799

  @DF-RHF Final Energy:  -457.48092594624836

   => Energetics <=

    Nuclear Repulsion Energy =            493.9268100362958194
    One-Electron Energy =               -1602.4385843707734693
    Two-Electron Energy =                 651.0308483882292876
    Total Energy =                       -457.4809259462483624
  Basis Set: (AUG-CC-PVTZ AUX)
    Blend: AUG-CC-PVTZ-RI
    Molecular point group: c1

    Geometry (in Angstrom), charge = 0, multiplicity = 1:

       Center              X                  Y                   Z               Mass
    ------------   -----------------  -----------------  -----------------  -----------------
         O           -0.006598642199     2.132937660328     0.231019617054    15.994914619570
         O            2.264543357801     0.867235660328    -0.578911382946    15.994914619570
         C            0.219824357801    -0.229962339672    -0.028466382946    12.000000000000
         C           -0.601564642199     0.910004660328     0.092621617054    12.000000000000
         C           -0.395509642199    -1.486603339672    -0.130099382946    12.000000000000
         C            1.711607357801    -0.114795339672    -0.087946382946    12.000000000000
         C           -2.037972942199     0.787673560328     0.115155917054    12.000000000000
         C           -1.781948642199    -1.625761339672    -0.126828382946    12.000000000000
         C           -2.581982642199    -0.489502339672    -0.006110382946    12.000000000000
         C            2.525641357801    -1.265995339672     0.472248617054    12.000000000000
         H            0.224478357801    -2.373968339672    -0.224725382946     1.007825032230
         H           -2.619573642199     1.654052660328     0.215123617054     1.007825032230
         H           -2.233021642199    -2.609735339672    -0.220158382946     1.007825032230
         H           -3.665714642199    -0.576897339672     0.003748617054     1.007825032230
         H            2.160149357801    -1.569037339672     1.457189617054     1.007825032230
         H            3.565882357801    -0.943975339672     0.537916617054     1.007825032230
         H            2.472103357801    -2.137311339672    -0.188605382946     1.007825032230
         H           -0.710760642199     2.793754660328     0.361907617054     1.007825032230

  Basis Set: AUG-CC-PVTZ
    Blend: AUG-CC-PVTZ
  Basis Set: (AUG-CC-PVTZ AUX)
    Blend: AUG-CC-PVTZ-JKFIT
	 Reference Energy          =    -457.4809259462483624 [Eh]
	 Singles Energy            =      -0.0000000000000000 [Eh]
	 Same-Spin Energy          =      -0.4781226570094298 [Eh]
	 Opposite-Spin Energy      =      -1.4738913458178786 [Eh]
	 Correlation Energy        =      -1.9520140028273083 [Eh]
	 Total Energy              =    -459.4329399490756600 [Eh]

	 ================> DF-SCS-MP2 Energies <==================
	-----------------------------------------------------------
	 SCS Same-Spin Scale       =       0.3333333333333333 [-]
	 SCS Opposite-Spin Scale   =       1.2000000000000000 [-]
	 SCS Same-Spin Energy      =      -0.1593742190031432 [Eh]
	 SCS Opposite-Spin Energy  =      -1.7686696149814543 [Eh]
	 SCS Correlation Energy    =      -1.9280438339845976 [Eh]
	 SCS Total Energy          =    -459.4089697802329511 [Eh]
	-----------------------------------------------------------

  Dipole Moment: [D]
     X:    -2.9098      Y:    -1.4282      Z:     1.2270     Total:     3.4659

*** Psi4 exiting successfully. Buy a developer a beer!
