                               Psi4 1.4a3.dev225

  ==> Input File <==

--------------------------------------------------------------------------
#psi4
#
memory 32 gb

molecule  {
0 1
  O       -0.0048250     2.1741760     0.2178480
  O        2.2663170     0.9084740    -0.5920830
  C        0.2215980    -0.1887240    -0.0416380
  C       -0.5997910     0.9512430     0.0794500
  C       -0.3937360    -1.4453650    -0.1432710
  C        1.7133810    -0.0735570    -0.1011180
  C       -1.9917600     0.8092840     0.0995930
  C       -1.7801750    -1.5845230    -0.1400000
  C       -2.5802090    -0.4482640    -0.0192820
  C        2.5274150    -1.2247570     0.4590770
  H        0.2262520    -2.3327300    -0.2378970
  H       -2.6178000     1.6952910     0.2019520
  H       -2.2312480    -2.5684970    -0.2333300
  H       -3.6639410    -0.5356590    -0.0094230
  H        2.1749502    -1.4564738     1.4678404
  H        3.5676560    -0.9027370     0.5247450
  H        2.4738770    -2.0960730    -0.2017770
  H       -0.7089870     2.8349930     0.3487360
units angstrom
no_reorient  #important for SAPT in psi4, default
symmetry c1  #important for SAPT in psi4, default
}

set PROPERTIES_ORIGIN ["COM"]
properties('MP2/aug-cc-pvtz', properties = ['dipole'])
--------------------------------------------------------------------------

    Molecular point group: c1
  Charge       = 0
  Multiplicity = 1
  Basis Set: AUG-CC-PVTZ
    Blend: AUG-CC-PVTZ
  Basis Set: (AUG-CC-PVTZ AUX)
    Blend: AUG-CC-PVTZ-JKFIT

    Orbital Energies [Eh]
    ---------------------

    Doubly Occupied:

       1A    -20.597164     2A    -20.537115     3A    -11.332453
       4A    -11.324696     5A    -11.261135     6A    -11.261090
       7A    -11.249776     8A    -11.247407     9A    -11.241726
      10A    -11.233245    11A     -1.410771    12A     -1.367066
      13A     -1.163587    14A     -1.057211    15A     -1.019194
      16A     -0.995069    17A     -0.871105    18A     -0.847922
      19A     -0.763612    20A     -0.740333    21A     -0.680395
      22A     -0.668557    23A     -0.636561    24A     -0.621483
      25A     -0.611566    26A     -0.600425    27A     -0.590212
      28A     -0.575585    29A     -0.548621    30A     -0.530968
      31A     -0.520709    32A     -0.500574    33A     -0.480476
      34A     -0.409685    35A     -0.356437    36A     -0.327237

  @DF-RHF Final Energy:  -457.48367256584180

   => Energetics <=

    Nuclear Repulsion Energy =            494.8707300333338139
    One-Electron Energy =               -1604.3464717716697123
    Two-Electron Energy =                 651.9920691724942117
    Total Energy =                       -457.4836725658417436
  Basis Set: (AUG-CC-PVTZ AUX)
    Blend: AUG-CC-PVTZ-RI
    Molecular point group: c1

    Geometry (in Angstrom), charge = 0, multiplicity = 1:

       Center              X                  Y                   Z               Mass
    ------------   -----------------  -----------------  -----------------  -----------------
         O           -0.010614746434     2.134140516305     0.231054065458    15.994914619570
         O            2.260527253566     0.868438516305    -0.578876934542    15.994914619570
         C            0.215808253566    -0.228759483695    -0.028431934542    12.000000000000
         C           -0.605580746434     0.911207516305     0.092656065458    12.000000000000
         C           -0.399525746434    -1.485400483695    -0.130064934542    12.000000000000
         C            1.707591253566    -0.113592483695    -0.087911934542    12.000000000000
         C           -1.997549746434     0.769248516305     0.112799065458    12.000000000000
         C           -1.785964746434    -1.624558483695    -0.126793934542    12.000000000000
         C           -2.585998746434    -0.488299483695    -0.006075934542    12.000000000000
         C            2.521625253566    -1.264792483695     0.472283065458    12.000000000000
         H            0.220462253566    -2.372765483695    -0.224690934542     1.007825032230
         H           -2.623589746434     1.655255516305     0.215158065458     1.007825032230
         H           -2.237037746434    -2.608532483695    -0.220123934542     1.007825032230
         H           -3.669730746434    -0.575694483695     0.003783065458     1.007825032230
         H            2.169160453566    -1.496509283695     1.481046465458     1.007825032230
         H            3.561866253566    -0.942772483695     0.537951065458     1.007825032230
         H            2.468087253566    -2.136108483695    -0.188570934542     1.007825032230
         H           -0.714776746434     2.794957516305     0.361942065458     1.007825032230

  Basis Set: AUG-CC-PVTZ
    Blend: AUG-CC-PVTZ
  Basis Set: (AUG-CC-PVTZ AUX)
    Blend: AUG-CC-PVTZ-JKFIT
	 Reference Energy          =    -457.4836725658418004 [Eh]
	 Singles Energy            =      -0.0000000000000000 [Eh]
	 Same-Spin Energy          =      -0.4782673136339901 [Eh]
	 Opposite-Spin Energy      =      -1.4737723528426827 [Eh]
	 Correlation Energy        =      -1.9520396664766728 [Eh]
	 Total Energy              =    -459.4357122323184512 [Eh]

	 ================> DF-SCS-MP2 Energies <==================
	-----------------------------------------------------------
	 SCS Same-Spin Scale       =       0.3333333333333333 [-]
	 SCS Opposite-Spin Scale   =       1.2000000000000000 [-]
	 SCS Same-Spin Energy      =      -0.1594224378779967 [Eh]
	 SCS Opposite-Spin Energy  =      -1.7685268234112193 [Eh]
	 SCS Correlation Energy    =      -1.9279492612892160 [Eh]
	 SCS Total Energy          =    -459.4116218271310004 [Eh]
	-----------------------------------------------------------

  Dipole Moment: [D]
     X:    -2.9217      Y:    -1.4686      Z:     1.2223     Total:     3.4910

*** Psi4 exiting successfully. Buy a developer a beer!
