                               Psi4 1.4a3.dev225

  ==> Input File <==

--------------------------------------------------------------------------
#psi4
#
memory 32 gb

molecule  {
0 1
  O       -0.0048250     2.1741760     0.2178480
  O        2.2663170     0.9084740    -0.5920830
  C        0.2215980    -0.1887240    -0.0416380
  C       -0.5997910     0.9512430     0.0794500
  C       -0.3937360    -1.4453650    -0.1432710
  C        1.8029956    -0.0173324    -0.1057890
  C       -1.9917600     0.8092840     0.0995930
  C       -1.7801750    -1.5845230    -0.1400000
  C       -2.5802090    -0.4482640    -0.0192820
  C        2.5274150    -1.2247570     0.4590770
  H        0.2262520    -2.3327300    -0.2378970
  H       -2.6178000     1.6952910     0.2019520
  H       -2.2312480    -2.5684970    -0.2333300
  H       -3.6639410    -0.5356590    -0.0094230
  H        2.1619230    -1.5277990     1.4440180
  H        3.5676560    -0.9027370     0.5247450
  H        2.4738770    -2.0960730    -0.2017770
  H       -0.7089870     2.8349930     0.3487360
units angstrom
no_reorient  #important for SAPT in psi4, default
symmetry c1  #important for SAPT in psi4, default
}

set PROPERTIES_ORIGIN ["COM"]
properties('MP2/aug-cc-pvtz', properties = ['dipole'])
--------------------------------------------------------------------------

    Molecular point group: c1
  Charge       = 0
  Multiplicity = 1
  Basis Set: AUG-CC-PVTZ
    Blend: AUG-CC-PVTZ
  Basis Set: (AUG-CC-PVTZ AUX)
    Blend: AUG-CC-PVTZ-JKFIT

    Orbital Energies [Eh]
    ---------------------

    Doubly Occupied:

       1A    -20.593544     2A    -20.548748     3A    -11.332380
       4A    -11.316098     5A    -11.253800     6A    -11.253692
       7A    -11.244611     8A    -11.242204     9A    -11.236801
      10A    -11.233377    11A     -1.436159    12A     -1.405083
      13A     -1.155340    14A     -1.044974    15A     -1.012773
      16A     -0.995719    17A     -0.859187    18A     -0.837329
      19A     -0.756673    20A     -0.736595    21A     -0.685672
      22A     -0.670422    23A     -0.637887    24A     -0.636475
      25A     -0.609561    26A     -0.608282    27A     -0.588631
      28A     -0.576613    29A     -0.549213    30A     -0.533792
      31A     -0.524882    32A     -0.511849    33A     -0.487902
      34A     -0.398280    35A     -0.350707    36A     -0.321769

  @DF-RHF Final Energy:  -457.47767070347504

   => Energetics <=

    Nuclear Repulsion Energy =            494.7053101925488363
    One-Electron Energy =               -1603.9919137904573745
    Two-Electron Energy =                 651.8089328944336103
    Total Energy =                       -457.4776707034750416
  Basis Set: (AUG-CC-PVTZ AUX)
    Blend: AUG-CC-PVTZ-RI
    Molecular point group: c1

    Geometry (in Angstrom), charge = 0, multiplicity = 1:

       Center              X                  Y                   Z               Mass
    ------------   -----------------  -----------------  -----------------  -----------------
         O           -0.018422369316     2.129709784121     0.231642521036    15.994914619570
         O            2.252719630684     0.864007784121    -0.578288478964    15.994914619570
         C            0.208000630684    -0.233190215879    -0.027843478964    12.000000000000
         C           -0.613388369316     0.906776784121     0.093244521036    12.000000000000
         C           -0.407333369316    -1.489831215879    -0.129476478964    12.000000000000
         C            1.789398230684    -0.061798615879    -0.091994478964    12.000000000000
         C           -2.005357369316     0.764817784121     0.113387521036    12.000000000000
         C           -1.793772369316    -1.628989215879    -0.126205478964    12.000000000000
         C           -2.593806369316    -0.492730215879    -0.005487478964    12.000000000000
         C            2.513817630684    -1.269223215879     0.472871521036    12.000000000000
         H            0.212654630684    -2.377196215879    -0.224102478964     1.007825032230
         H           -2.631397369316     1.650824784121     0.215746521036     1.007825032230
         H           -2.244845369316    -2.612963215879    -0.219535478964     1.007825032230
         H           -3.677538369316    -0.580125215879     0.004371521036     1.007825032230
         H            2.148325630684    -1.572265215879     1.457812521036     1.007825032230
         H            3.554058630684    -0.947203215879     0.538539521036     1.007825032230
         H            2.460279630684    -2.140539215879    -0.187982478964     1.007825032230
         H           -0.722584369316     2.790526784121     0.362530521036     1.007825032230

  Basis Set: AUG-CC-PVTZ
    Blend: AUG-CC-PVTZ
  Basis Set: (AUG-CC-PVTZ AUX)
    Blend: AUG-CC-PVTZ-JKFIT
	 Reference Energy          =    -457.4776707034750416 [Eh]
	 Singles Energy            =      -0.0000000000000000 [Eh]
	 Same-Spin Energy          =      -0.4761562235003706 [Eh]
	 Opposite-Spin Energy      =      -1.4689492332983838 [Eh]
	 Correlation Energy        =      -1.9451054567987545 [Eh]
	 Total Energy              =    -459.4227761602737701 [Eh]

	 ================> DF-SCS-MP2 Energies <==================
	-----------------------------------------------------------
	 SCS Same-Spin Scale       =       0.3333333333333333 [-]
	 SCS Opposite-Spin Scale   =       1.2000000000000000 [-]
	 SCS Same-Spin Energy      =      -0.1587187411667902 [Eh]
	 SCS Opposite-Spin Energy  =      -1.7627390799580605 [Eh]
	 SCS Correlation Energy    =      -1.9214578211248508 [Eh]
	 SCS Total Energy          =    -459.3991285245999165 [Eh]
	-----------------------------------------------------------

  Dipole Moment: [D]
     X:    -2.1967      Y:    -1.2971      Z:     1.1080     Total:     2.7812

*** Psi4 exiting successfully. Buy a developer a beer!
