                               Psi4 1.4a3.dev225

  ==> Input File <==

--------------------------------------------------------------------------
#psi4
#
memory 32 gb

molecule  {
0 1
  O       -0.0048250     2.1741760     0.2178480
  O        2.2663170     0.9084740    -0.5920830
  C        0.2215980    -0.1887240    -0.0416380
  C       -0.5997910     0.9512430     0.0794500
  C       -0.3937360    -1.4453650    -0.1432710
  C        1.7133810    -0.0735570    -0.1011180
  C       -1.9050856     0.7654575     0.0943790
  C       -1.7801750    -1.5845230    -0.1400000
  C       -2.5802090    -0.4482640    -0.0192820
  C        2.5274150    -1.2247570     0.4590770
  H        0.2262520    -2.3327300    -0.2378970
  H       -2.6178000     1.6952910     0.2019520
  H       -2.2312480    -2.5684970    -0.2333300
  H       -3.6639410    -0.5356590    -0.0094230
  H        2.1619230    -1.5277990     1.4440180
  H        3.5676560    -0.9027370     0.5247450
  H        2.4738770    -2.0960730    -0.2017770
  H       -0.7089870     2.8349930     0.3487360
units angstrom
no_reorient  #important for SAPT in psi4, default
symmetry c1  #important for SAPT in psi4, default
}

set PROPERTIES_ORIGIN ["COM"]
properties('MP2/aug-cc-pvtz', properties = ['dipole'])
--------------------------------------------------------------------------

    Molecular point group: c1
  Charge       = 0
  Multiplicity = 1
  Basis Set: AUG-CC-PVTZ
    Blend: AUG-CC-PVTZ
  Basis Set: (AUG-CC-PVTZ AUX)
    Blend: AUG-CC-PVTZ-JKFIT

    Orbital Energies [Eh]
    ---------------------

    Doubly Occupied:

       1A    -20.594324     2A    -20.538350     3A    -11.333183
       4A    -11.312541     5A    -11.261912     6A    -11.260120
       7A    -11.251771     8A    -11.245546     9A    -11.243627
      10A    -11.233309    11A     -1.409098    12A     -1.367884
      13A     -1.172261    14A     -1.056790    15A     -1.029380
      16A     -0.994245    17A     -0.878168    18A     -0.843312
      19A     -0.764133    20A     -0.741096    21A     -0.686691
      22A     -0.665457    23A     -0.637215    24A     -0.616696
      25A     -0.605107    26A     -0.600634    27A     -0.588580
      28A     -0.574501    29A     -0.552551    30A     -0.537607
      31A     -0.509744    32A     -0.499481    33A     -0.480658
      34A     -0.411094    35A     -0.356787    36A     -0.334252

  @DF-RHF Final Energy:  -457.47202220951436

   => Energetics <=

    Nuclear Repulsion Energy =            496.7204759048050278
    One-Electron Energy =               -1608.0087871617063229
    Two-Electron Energy =                 653.8162890473869311
    Total Energy =                       -457.4720222095144209
  Basis Set: (AUG-CC-PVTZ AUX)
    Blend: AUG-CC-PVTZ-RI
    Molecular point group: c1

    Geometry (in Angstrom), charge = 0, multiplicity = 1:

       Center              X                  Y                   Z               Mass
    ------------   -----------------  -----------------  -----------------  -----------------
         O           -0.018163039879     2.138534420362     0.231690414337    15.994914619570
         O            2.252978960121     0.872832420362    -0.578240585663    15.994914619570
         C            0.208259960121    -0.224365579638    -0.027795585663    12.000000000000
         C           -0.613129039879     0.915601420362     0.093292414337    12.000000000000
         C           -0.407074039879    -1.481006579638    -0.129428585663    12.000000000000
         C            1.700042960121    -0.109198579638    -0.087275585663    12.000000000000
         C           -1.918423639879     0.729815920362     0.108221414337    12.000000000000
         C           -1.793513039879    -1.620164579638    -0.126157585663    12.000000000000
         C           -2.593547039879    -0.483905579638    -0.005439585663    12.000000000000
         C            2.514076960121    -1.260398579638     0.472919414337    12.000000000000
         H            0.212913960121    -2.368371579638    -0.224054585663     1.007825032230
         H           -2.631138039879     1.659649420362     0.215794414337     1.007825032230
         H           -2.244586039879    -2.604138579638    -0.219487585663     1.007825032230
         H           -3.677279039879    -0.571300579638     0.004419414337     1.007825032230
         H            2.148584960121    -1.563440579638     1.457860414337     1.007825032230
         H            3.554317960121    -0.938378579638     0.538587414337     1.007825032230
         H            2.460538960121    -2.131714579638    -0.187934585663     1.007825032230
         H           -0.722325039879     2.799351420362     0.362578414337     1.007825032230

  Basis Set: AUG-CC-PVTZ
    Blend: AUG-CC-PVTZ
  Basis Set: (AUG-CC-PVTZ AUX)
    Blend: AUG-CC-PVTZ-JKFIT
	 Reference Energy          =    -457.4720222095143640 [Eh]
	 Singles Energy            =      -0.0000000000000000 [Eh]
	 Same-Spin Energy          =      -0.4787562196514672 [Eh]
	 Opposite-Spin Energy      =      -1.4743226616434530 [Eh]
	 Correlation Energy        =      -1.9530788812949202 [Eh]
	 Total Energy              =    -459.4251010908092780 [Eh]

	 ================> DF-SCS-MP2 Energies <==================
	-----------------------------------------------------------
	 SCS Same-Spin Scale       =       0.3333333333333333 [-]
	 SCS Opposite-Spin Scale   =       1.2000000000000000 [-]
	 SCS Same-Spin Energy      =      -0.1595854065504891 [Eh]
	 SCS Opposite-Spin Energy  =      -1.7691871939721435 [Eh]
	 SCS Correlation Energy    =      -1.9287726005226327 [Eh]
	 SCS Total Energy          =    -459.4007948100369845 [Eh]
	-----------------------------------------------------------

  Dipole Moment: [D]
     X:    -2.9599      Y:    -1.6519      Z:     1.1998     Total:     3.5957

*** Psi4 exiting successfully. Buy a developer a beer!
