                               Psi4 1.4a3.dev225

  ==> Input File <==

--------------------------------------------------------------------------
#psi4
#
memory 32 gb

molecule  {
0 1
  O       -0.0048250     2.1741760     0.2178480
  O        2.2663170     0.9084740    -0.5920830
  C        0.2215980    -0.1887240    -0.0416380
  C       -0.5997910     0.9512430     0.0794500
  C       -0.3937360    -1.4453650    -0.1432710
  C        1.7133810    -0.0735570    -0.1011180
  C       -1.9698086     0.7989137     0.0981470
  C       -1.7801750    -1.5845230    -0.1400000
  C       -2.5802090    -0.4482640    -0.0192820
  C        2.5274150    -1.2247570     0.4590770
  H        0.2262520    -2.3327300    -0.2378970
  H       -2.6178000     1.6952910     0.2019520
  H       -2.2312480    -2.5684970    -0.2333300
  H       -3.6639410    -0.5356590    -0.0094230
  H        2.1619230    -1.5277990     1.4440180
  H        3.5676560    -0.9027370     0.5247450
  H        2.4738770    -2.0960730    -0.2017770
  H       -0.7089870     2.8349930     0.3487360
units angstrom
no_reorient  #important for SAPT in psi4, default
symmetry c1  #important for SAPT in psi4, default
}

set PROPERTIES_ORIGIN ["COM"]
properties('MP2/aug-cc-pvtz', properties = ['dipole'])
--------------------------------------------------------------------------

    Molecular point group: c1
  Charge       = 0
  Multiplicity = 1
  Basis Set: AUG-CC-PVTZ
    Blend: AUG-CC-PVTZ
  Basis Set: (AUG-CC-PVTZ AUX)
    Blend: AUG-CC-PVTZ-JKFIT

    Orbital Energies [Eh]
    ---------------------

    Doubly Occupied:

       1A    -20.596427     2A    -20.537731     3A    -11.333125
       4A    -11.321725     5A    -11.261230     6A    -11.260866
       7A    -11.250272     8A    -11.246894     9A    -11.242190
      10A    -11.233302    11A     -1.410357    12A     -1.367518
      13A     -1.165553    14A     -1.057062    15A     -1.021482
      16A     -0.994718    17A     -0.872750    18A     -0.846917
      19A     -0.763851    20A     -0.740727    21A     -0.682180
      22A     -0.668229    23A     -0.637232    24A     -0.619294
      25A     -0.609780    26A     -0.599787    27A     -0.587798
      28A     -0.575413    29A     -0.551355    30A     -0.532863
      31A     -0.519444    32A     -0.500011    33A     -0.480246
      34A     -0.410745    35A     -0.356315    36A     -0.329052

  @DF-RHF Final Energy:  -457.48345766714993

   => Energetics <=

    Nuclear Repulsion Energy =            495.2955026626054860
    One-Electron Energy =               -1605.1890412180657677
    Two-Electron Energy =                 652.4100808883104037
    Total Energy =                       -457.4834576671498780
  Basis Set: (AUG-CC-PVTZ AUX)
    Blend: AUG-CC-PVTZ-RI
    Molecular point group: c1

    Geometry (in Angstrom), charge = 0, multiplicity = 1:

       Center              X                  Y                   Z               Mass
    ------------   -----------------  -----------------  -----------------  -----------------
         O           -0.012454387686     2.135583540312     0.231358071870    15.994914619570
         O            2.258687612314     0.869881540312    -0.578572928130    15.994914619570
         C            0.213968612314    -0.227316459688    -0.028127928130    12.000000000000
         C           -0.607420387686     0.912650540312     0.092960071870    12.000000000000
         C           -0.401365387686    -1.483957459688    -0.129760928130    12.000000000000
         C            1.705751612314    -0.112149459688    -0.087607928130    12.000000000000
         C           -1.977437987686     0.760321240312     0.111657071870    12.000000000000
         C           -1.787804387686    -1.623115459688    -0.126489928130    12.000000000000
         C           -2.587838387686    -0.486856459688    -0.005771928130    12.000000000000
         C            2.519785612314    -1.263349459688     0.472587071870    12.000000000000
         H            0.218622612314    -2.371322459688    -0.224386928130     1.007825032230
         H           -2.625429387686     1.656698540312     0.215462071870     1.007825032230
         H           -2.238877387686    -2.607089459688    -0.219819928130     1.007825032230
         H           -3.671570387686    -0.574251459688     0.004087071870     1.007825032230
         H            2.154293612314    -1.566391459688     1.457528071870     1.007825032230
         H            3.560026612314    -0.941329459688     0.538255071870     1.007825032230
         H            2.466247612314    -2.134665459688    -0.188266928130     1.007825032230
         H           -0.716616387686     2.796400540312     0.362246071870     1.007825032230

  Basis Set: AUG-CC-PVTZ
    Blend: AUG-CC-PVTZ
  Basis Set: (AUG-CC-PVTZ AUX)
    Blend: AUG-CC-PVTZ-JKFIT
	 Reference Energy          =    -457.4834576671499349 [Eh]
	 Singles Energy            =      -0.0000000000000000 [Eh]
	 Same-Spin Energy          =      -0.4783762930289129 [Eh]
	 Opposite-Spin Energy      =      -1.4737765356625310 [Eh]
	 Correlation Energy        =      -1.9521528286914438 [Eh]
	 Total Energy              =    -459.4356104958413880 [Eh]

	 ================> DF-SCS-MP2 Energies <==================
	-----------------------------------------------------------
	 SCS Same-Spin Scale       =       0.3333333333333333 [-]
	 SCS Opposite-Spin Scale   =       1.2000000000000000 [-]
	 SCS Same-Spin Energy      =      -0.1594587643429710 [Eh]
	 SCS Opposite-Spin Energy  =      -1.7685318427950372 [Eh]
	 SCS Correlation Energy    =      -1.9279906071380082 [Eh]
	 SCS Total Energy          =    -459.4114482742879204 [Eh]
	-----------------------------------------------------------

  Dipole Moment: [D]
     X:    -2.9405      Y:    -1.5279      Z:     1.2150     Total:     3.5294

*** Psi4 exiting successfully. Buy a developer a beer!
