                               Psi4 1.4a3.dev225

  ==> Input File <==

--------------------------------------------------------------------------
#psi4
#
memory 32 gb

molecule  {
0 1
  O       -0.0048250     2.1741760     0.2178480
  O        2.2663170     0.9084740    -0.5920830
  C        0.2215980    -0.1887240    -0.0416380
  C       -0.4833044     0.7895767     0.0622777
  C       -0.3937360    -1.4453650    -0.1432710
  C        1.7133810    -0.0735570    -0.1011180
  C       -1.9917600     0.8092840     0.0995930
  C       -1.7801750    -1.5845230    -0.1400000
  C       -2.5802090    -0.4482640    -0.0192820
  C        2.5274150    -1.2247570     0.4590770
  H        0.2262520    -2.3327300    -0.2378970
  H       -2.6178000     1.6952910     0.2019520
  H       -2.2312480    -2.5684970    -0.2333300
  H       -3.6639410    -0.5356590    -0.0094230
  H        2.1619230    -1.5277990     1.4440180
  H        3.5676560    -0.9027370     0.5247450
  H        2.4738770    -2.0960730    -0.2017770
  H       -0.7089870     2.8349930     0.3487360
units angstrom
no_reorient  #important for SAPT in psi4, default
symmetry c1  #important for SAPT in psi4, default
}

set PROPERTIES_ORIGIN ["COM"]
properties('MP2/aug-cc-pvtz', properties = ['dipole'])
--------------------------------------------------------------------------

    Molecular point group: c1
  Charge       = 0
  Multiplicity = 1
  Basis Set: AUG-CC-PVTZ
    Blend: AUG-CC-PVTZ
  Basis Set: (AUG-CC-PVTZ AUX)
    Blend: AUG-CC-PVTZ-JKFIT

    Orbital Energies [Eh]
    ---------------------

    Doubly Occupied:

       1A    -20.570513     2A    -20.543634     3A    -11.338730
       4A    -11.312592     5A    -11.263873     6A    -11.263261
       7A    -11.258857     8A    -11.248769     9A    -11.237495
      10A    -11.232019    11A     -1.377021    12A     -1.349565
      13A     -1.185526    14A     -1.076290    15A     -1.020026
      16A     -1.001343    17A     -0.872252    18A     -0.848797
      19A     -0.769092    20A     -0.720910    21A     -0.680081
      22A     -0.667800    23A     -0.653350    24A     -0.621509
      25A     -0.608028    26A     -0.597671    27A     -0.572538
      28A     -0.567680    29A     -0.552572    30A     -0.538857
      31A     -0.501814    32A     -0.493930    33A     -0.481935
      34A     -0.412151    35A     -0.376949    36A     -0.332631

  @DF-RHF Final Energy:  -457.42282161406700

   => Energetics <=

    Nuclear Repulsion Energy =            496.5958429715968236
    One-Electron Energy =               -1607.7372043858183588
    Two-Electron Energy =                 653.7185398001545309
    Total Energy =                       -457.4228216140670611
  Basis Set: (AUG-CC-PVTZ AUX)
    Blend: AUG-CC-PVTZ-RI
    Molecular point group: c1

    Geometry (in Angstrom), charge = 0, multiplicity = 1:

       Center              X                  Y                   Z               Mass
    ------------   -----------------  -----------------  -----------------  -----------------
         O           -0.020792514422     2.148928042918     0.232745151842    15.994914619570
         O            2.250349485578     0.883226042918    -0.577185848158    15.994914619570
         C            0.205630485578    -0.213971957082    -0.026740848158    12.000000000000
         C           -0.499271914422     0.764328742918     0.077174851842    12.000000000000
         C           -0.409703514422    -1.470612957082    -0.128373848158    12.000000000000
         C            1.697413485578    -0.098804957082    -0.086220848158    12.000000000000
         C           -2.007727514422     0.784036042918     0.114490151842    12.000000000000
         C           -1.796142514422    -1.609770957082    -0.125102848158    12.000000000000
         C           -2.596176514422    -0.473511957082    -0.004384848158    12.000000000000
         C            2.511447485578    -1.250004957082     0.473974151842    12.000000000000
         H            0.210284485578    -2.357977957082    -0.222999848158     1.007825032230
         H           -2.633767514422     1.670043042918     0.216849151842     1.007825032230
         H           -2.247215514422    -2.593744957082    -0.218432848158     1.007825032230
         H           -3.679908514422    -0.560906957082     0.005474151842     1.007825032230
         H            2.145955485578    -1.553046957082     1.458915151842     1.007825032230
         H            3.551688485578    -0.927984957082     0.539642151842     1.007825032230
         H            2.457909485578    -2.121320957082    -0.186879848158     1.007825032230
         H           -0.724954514422     2.809745042918     0.363633151842     1.007825032230

  Basis Set: AUG-CC-PVTZ
    Blend: AUG-CC-PVTZ
  Basis Set: (AUG-CC-PVTZ AUX)
    Blend: AUG-CC-PVTZ-JKFIT
	 Reference Energy          =    -457.4228216140670042 [Eh]
	 Singles Energy            =      -0.0000000000000000 [Eh]
	 Same-Spin Energy          =      -0.4772859497367554 [Eh]
	 Opposite-Spin Energy      =      -1.4763223419656897 [Eh]
	 Correlation Energy        =      -1.9536082917024451 [Eh]
	 Total Energy              =    -459.3764299057694416 [Eh]

	 ================> DF-SCS-MP2 Energies <==================
	-----------------------------------------------------------
	 SCS Same-Spin Scale       =       0.3333333333333333 [-]
	 SCS Opposite-Spin Scale   =       1.2000000000000000 [-]
	 SCS Same-Spin Energy      =      -0.1590953165789185 [Eh]
	 SCS Opposite-Spin Energy  =      -1.7715868103588275 [Eh]
	 SCS Correlation Energy    =      -1.9306821269377459 [Eh]
	 SCS Total Energy          =    -459.3535037410047721 [Eh]
	-----------------------------------------------------------

  Dipole Moment: [D]
     X:    -2.9461      Y:    -2.2047      Z:     1.1233     Total:     3.8473

*** Psi4 exiting successfully. Buy a developer a beer!
