                               Psi4 1.4a3.dev225

  ==> Input File <==

--------------------------------------------------------------------------
#psi4
#
memory 32 gb

molecule  {
0 1
  O       -0.0048250     2.1741760     0.2178480
  O        2.2663170     0.9084740    -0.5920830
  C        0.2215980    -0.1887240    -0.0416380
  C       -0.5997910     0.9512430     0.0794500
  C       -0.3937360    -1.4453650    -0.1432710
  C        1.7133810    -0.0735570    -0.1011180
  C       -2.0812906     0.8469048     0.1050108
  C       -1.7801750    -1.5845230    -0.1400000
  C       -2.5802090    -0.4482640    -0.0192820
  C        2.5274150    -1.2247570     0.4590770
  H        0.2262520    -2.3327300    -0.2378970
  H       -2.6178000     1.6952910     0.2019520
  H       -2.2312480    -2.5684970    -0.2333300
  H       -3.6639410    -0.5356590    -0.0094230
  H        2.1619230    -1.5277990     1.4440180
  H        3.5676560    -0.9027370     0.5247450
  H        2.4738770    -2.0960730    -0.2017770
  H       -0.7089870     2.8349930     0.3487360
units angstrom
no_reorient  #important for SAPT in psi4, default
symmetry c1  #important for SAPT in psi4, default
}

set PROPERTIES_ORIGIN ["COM"]
properties('MP2/aug-cc-pvtz', properties = ['dipole'])
--------------------------------------------------------------------------

    Molecular point group: c1
  Charge       = 0
  Multiplicity = 1
  Basis Set: AUG-CC-PVTZ
    Blend: AUG-CC-PVTZ
  Basis Set: (AUG-CC-PVTZ AUX)
    Blend: AUG-CC-PVTZ-JKFIT

    Orbital Energies [Eh]
    ---------------------

    Doubly Occupied:

       1A    -20.600235     2A    -20.536929     3A    -11.335839
       4A    -11.333213     5A    -11.262705     6A    -11.261726
       7A    -11.250127     8A    -11.248336     9A    -11.240666
      10A    -11.233493    11A     -1.412486    12A     -1.367103
      13A     -1.157372    14A     -1.057991    15A     -1.012465
      16A     -0.995340    17A     -0.869077    18A     -0.849978
      19A     -0.766788    20A     -0.738887    21A     -0.681336
      22A     -0.672011    23A     -0.638202    24A     -0.632032
      25A     -0.611942    26A     -0.598753    27A     -0.587007
      28A     -0.574759    29A     -0.551853    30A     -0.536780
      31A     -0.511908    32A     -0.499080    33A     -0.479048
      34A     -0.409772    35A     -0.358327    36A     -0.320506

  @DF-RHF Final Energy:  -457.47163350941526

   => Energetics <=

    Nuclear Repulsion Energy =            493.0487080033819325
    One-Electron Energy =               -1600.6525382695303961
    Two-Electron Energy =                 650.1321967567331512
    Total Energy =                       -457.4716335094152555
  Basis Set: (AUG-CC-PVTZ AUX)
    Blend: AUG-CC-PVTZ-RI
    Molecular point group: c1

    Geometry (in Angstrom), charge = 0, multiplicity = 1:

       Center              X                  Y                   Z               Mass
    ------------   -----------------  -----------------  -----------------  -----------------
         O           -0.002621531301     2.131350663309     0.230752675845    15.994914619570
         O            2.268520468699     0.865648663309    -0.579178324155    15.994914619570
         C            0.223801468699    -0.231549336691    -0.028733324155    12.000000000000
         C           -0.597587531301     0.908417663309     0.092354675845    12.000000000000
         C           -0.391532531301    -1.488190336691    -0.130366324155    12.000000000000
         C            1.715584468699    -0.116382336691    -0.088213324155    12.000000000000
         C           -2.079087131301     0.804079463309     0.117915475845    12.000000000000
         C           -1.777971531301    -1.627348336691    -0.127095324155    12.000000000000
         C           -2.578005531301    -0.491089336691    -0.006377324155    12.000000000000
         C            2.529618468699    -1.267582336691     0.471981675845    12.000000000000
         H            0.228455468699    -2.375555336691    -0.224992324155     1.007825032230
         H           -2.615596531301     1.652465663309     0.214856675845     1.007825032230
         H           -2.229044531301    -2.611322336691    -0.220425324155     1.007825032230
         H           -3.661737531301    -0.578484336691     0.003481675845     1.007825032230
         H            2.164126468699    -1.570624336691     1.456922675845     1.007825032230
         H            3.569859468699    -0.945562336691     0.537649675845     1.007825032230
         H            2.476080468699    -2.138898336691    -0.188872324155     1.007825032230
         H           -0.706783531301     2.792167663309     0.361640675845     1.007825032230

  Basis Set: AUG-CC-PVTZ
    Blend: AUG-CC-PVTZ
  Basis Set: (AUG-CC-PVTZ AUX)
    Blend: AUG-CC-PVTZ-JKFIT
	 Reference Energy          =    -457.4716335094152555 [Eh]
	 Singles Energy            =      -0.0000000000000000 [Eh]
	 Same-Spin Energy          =      -0.4780247585427277 [Eh]
	 Opposite-Spin Energy      =      -1.4743621180860154 [Eh]
	 Correlation Energy        =      -1.9523868766287431 [Eh]
	 Total Energy              =    -459.4240203860439919 [Eh]

	 ================> DF-SCS-MP2 Energies <==================
	-----------------------------------------------------------
	 SCS Same-Spin Scale       =       0.3333333333333333 [-]
	 SCS Opposite-Spin Scale   =       1.2000000000000000 [-]
	 SCS Same-Spin Energy      =      -0.1593415861809092 [Eh]
	 SCS Opposite-Spin Energy  =      -1.7692345417032185 [Eh]
	 SCS Correlation Energy    =      -1.9285761278841278 [Eh]
	 SCS Total Energy          =    -459.4002096372993833 [Eh]
	-----------------------------------------------------------

  Dipole Moment: [D]
     X:    -2.8859      Y:    -1.3736      Z:     1.2330     Total:     3.4257

*** Psi4 exiting successfully. Buy a developer a beer!
