                               Psi4 1.4a3.dev225

  ==> Input File <==

--------------------------------------------------------------------------
#psi4
#
memory 32 gb

molecule  {
0 1
  O       -0.0048250     2.1741760     0.2178480
  O        2.2663170     0.9084740    -0.5920830
  C        0.2215980    -0.1887240    -0.0416380
  C       -0.5997910     0.9512430     0.0794500
  C       -0.3937360    -1.4453650    -0.1432710
  C        1.7133810    -0.0735570    -0.1011180
  C       -1.9917600     0.8092840     0.0995930
  C       -1.7801750    -1.5845230    -0.1400000
  C       -2.5802090    -0.4482640    -0.0192820
  C        2.5274150    -1.2247570     0.4590770
  H        0.2262520    -2.3327300    -0.2378970
  H       -2.6178000     1.6952910     0.2019520
  H       -2.2312480    -2.5684970    -0.2333300
  H       -3.6639410    -0.5356590    -0.0094230
  H        2.1682178    -1.4922994     1.4565368
  H        3.5676560    -0.9027370     0.5247450
  H        2.4738770    -2.0960730    -0.2017770
  H       -0.7089870     2.8349930     0.3487360
units angstrom
no_reorient  #important for SAPT in psi4, default
symmetry c1  #important for SAPT in psi4, default
}

set PROPERTIES_ORIGIN ["COM"]
properties('MP2/aug-cc-pvtz', properties = ['dipole'])
--------------------------------------------------------------------------

    Molecular point group: c1
  Charge       = 0
  Multiplicity = 1
  Basis Set: AUG-CC-PVTZ
    Blend: AUG-CC-PVTZ
  Basis Set: (AUG-CC-PVTZ AUX)
    Blend: AUG-CC-PVTZ-JKFIT

    Orbital Energies [Eh]
    ---------------------

    Doubly Occupied:

       1A    -20.597169     2A    -20.537341     3A    -11.332787
       4A    -11.324709     5A    -11.261154     6A    -11.261125
       7A    -11.249807     8A    -11.247428     9A    -11.241763
      10A    -11.233279    11A     -1.410782    12A     -1.367246
      13A     -1.163611    14A     -1.057201    15A     -1.019218
      16A     -0.994952    17A     -0.871181    18A     -0.847952
      19A     -0.763830    20A     -0.740409    21A     -0.680662
      22A     -0.668976    23A     -0.636926    24A     -0.621373
      25A     -0.611080    26A     -0.599963    27A     -0.589037
      28A     -0.575545    29A     -0.549910    30A     -0.531552
      31A     -0.520796    32A     -0.500223    33A     -0.480264
      34A     -0.410151    35A     -0.356465    36A     -0.327257

  @DF-RHF Final Energy:  -457.48404595562675

   => Energetics <=

    Nuclear Repulsion Energy =            494.8511306553821782
    One-Electron Energy =               -1604.3041024143460618
    Two-Electron Energy =                 651.9689258033372425
    Total Energy =                       -457.4840459556266978
  Basis Set: (AUG-CC-PVTZ AUX)
    Blend: AUG-CC-PVTZ-RI
    Molecular point group: c1

    Geometry (in Angstrom), charge = 0, multiplicity = 1:

       Center              X                  Y                   Z               Mass
    ------------   -----------------  -----------------  -----------------  -----------------
         O           -0.010564875356     2.134405898824     0.231137798259    15.994914619570
         O            2.260577124644     0.868703898824    -0.578793201741    15.994914619570
         C            0.215858124644    -0.228494101176    -0.028348201741    12.000000000000
         C           -0.605530875356     0.911472898824     0.092739798259    12.000000000000
         C           -0.399475875356    -1.485135101176    -0.129981201741    12.000000000000
         C            1.707641124644    -0.113327101176    -0.087828201741    12.000000000000
         C           -1.997499875356     0.769513898824     0.112882798259    12.000000000000
         C           -1.785914875356    -1.624293101176    -0.126710201741    12.000000000000
         C           -2.585948875356    -0.488034101176    -0.005992201741    12.000000000000
         C            2.521675124644    -1.264527101176     0.472366798259    12.000000000000
         H            0.220512124644    -2.372500101176    -0.224607201741     1.007825032230
         H           -2.623539875356     1.655520898824     0.215241798259     1.007825032230
         H           -2.236987875356    -2.608267101176    -0.220040201741     1.007825032230
         H           -3.669680875356    -0.575429101176     0.003866798259     1.007825032230
         H            2.162477924644    -1.532069501176     1.469826598259     1.007825032230
         H            3.561916124644    -0.942507101176     0.538034798259     1.007825032230
         H            2.468137124644    -2.135843101176    -0.188487201741     1.007825032230
         H           -0.714726875356     2.795222898824     0.362025798259     1.007825032230

  Basis Set: AUG-CC-PVTZ
    Blend: AUG-CC-PVTZ
  Basis Set: (AUG-CC-PVTZ AUX)
    Blend: AUG-CC-PVTZ-JKFIT
	 Reference Energy          =    -457.4840459556267547 [Eh]
	 Singles Energy            =      -0.0000000000000000 [Eh]
	 Same-Spin Energy          =      -0.4782657067169078 [Eh]
	 Opposite-Spin Energy      =      -1.4737463118227150 [Eh]
	 Correlation Energy        =      -1.9520120185396228 [Eh]
	 Total Energy              =    -459.4360579741663742 [Eh]

	 ================> DF-SCS-MP2 Energies <==================
	-----------------------------------------------------------
	 SCS Same-Spin Scale       =       0.3333333333333333 [-]
	 SCS Opposite-Spin Scale   =       1.2000000000000000 [-]
	 SCS Same-Spin Energy      =      -0.1594219022389693 [Eh]
	 SCS Opposite-Spin Energy  =      -1.7684955741872579 [Eh]
	 SCS Correlation Energy    =      -1.9279174764262272 [Eh]
	 SCS Total Energy          =    -459.4119634320529713 [Eh]
	-----------------------------------------------------------

  Dipole Moment: [D]
     X:    -2.9265      Y:    -1.4802      Z:     1.2211     Total:     3.4995

*** Psi4 exiting successfully. Buy a developer a beer!
