                               Psi4 1.4a3.dev225

  ==> Input File <==

--------------------------------------------------------------------------
#psi4
#
memory 32 gb

molecule  {
0 1
  O       -0.0048250     2.1741760     0.2178480
  O        2.2663170     0.9084740    -0.5920830
  C        0.2215980    -0.1887240    -0.0416380
  C       -0.5997910     0.9512430     0.0794500
  C       -0.3937360    -1.4453650    -0.1432710
  C        1.7133810    -0.0735570    -0.1011180
  C       -1.9917600     0.8092840     0.0995930
  C       -1.7801750    -1.5845230    -0.1400000
  C       -2.5802090    -0.4482640    -0.0192820
  C        2.5274150    -1.2247570     0.4590770
  H        0.2262520    -2.3327300    -0.2378970
  H       -2.6178000     1.6952910     0.2019520
  H       -2.2312480    -2.5684970    -0.2333300
  H       -3.6639410    -0.5356590    -0.0094230
  H        2.1619230    -1.5277990     1.4440180
  H        3.3769474    -0.9617733     0.5127060
  H        2.4738770    -2.0960730    -0.2017770
  H       -0.7089870     2.8349930     0.3487360
units angstrom
no_reorient  #important for SAPT in psi4, default
symmetry c1  #important for SAPT in psi4, default
}

set PROPERTIES_ORIGIN ["COM"]
properties('MP2/aug-cc-pvtz', properties = ['dipole'])
--------------------------------------------------------------------------

    Molecular point group: c1
  Charge       = 0
  Multiplicity = 1
  Basis Set: AUG-CC-PVTZ
    Blend: AUG-CC-PVTZ
  Basis Set: (AUG-CC-PVTZ AUX)
    Blend: AUG-CC-PVTZ-JKFIT

    Orbital Energies [Eh]
    ---------------------

    Doubly Occupied:

       1A    -20.596832     2A    -20.537900     3A    -11.332529
       4A    -11.324125     5A    -11.260678     6A    -11.260532
       7A    -11.248821     8A    -11.246968     9A    -11.241317
      10A    -11.210501    11A     -1.410460    12A     -1.367899
      13A     -1.163078    14A     -1.059795    15A     -1.018892
      16A     -1.013442    17A     -0.873219    18A     -0.850650
      19A     -0.768990    20A     -0.740039    21A     -0.680721
      22A     -0.669762    23A     -0.645626    24A     -0.621253
      25A     -0.615887    26A     -0.600543    27A     -0.587350
      28A     -0.583218    29A     -0.570842    30A     -0.532542
      31A     -0.520971    32A     -0.499467    33A     -0.480259
      34A     -0.410005    35A     -0.356022    36A     -0.326818

  @DF-RHF Final Energy:  -457.44966667794944

   => Energetics <=

    Nuclear Repulsion Energy =            495.8901210560830464
    One-Electron Energy =               -1606.2236625339912734
    Two-Electron Energy =                 652.8838747999589032
    Total Energy =                       -457.4496666779493808
  Basis Set: (AUG-CC-PVTZ AUX)
    Blend: AUG-CC-PVTZ-RI
    Molecular point group: c1

    Geometry (in Angstrom), charge = 0, multiplicity = 1:

       Center              X                  Y                   Z               Mass
    ------------   -----------------  -----------------  -----------------  -----------------
         O           -0.009105548546     2.135106185080     0.231319713170    15.994914619570
         O            2.262036451454     0.869404185080    -0.578611286830    15.994914619570
         C            0.217317451454    -0.227793814920    -0.028166286830    12.000000000000
         C           -0.604071548546     0.912173185080     0.092921713170    12.000000000000
         C           -0.398016548546    -1.484434814920    -0.129799286830    12.000000000000
         C            1.709100451454    -0.112626814920    -0.087646286830    12.000000000000
         C           -1.996040548546     0.770214185080     0.113064713170    12.000000000000
         C           -1.784455548546    -1.623592814920    -0.126528286830    12.000000000000
         C           -2.584489548546    -0.487333814920    -0.005810286830    12.000000000000
         C            2.523134451454    -1.263826814920     0.472548713170    12.000000000000
         H            0.221971451454    -2.371799814920    -0.224425286830     1.007825032230
         H           -2.622080548546     1.656221185080     0.215423713170     1.007825032230
         H           -2.235528548546    -2.607566814920    -0.219858286830     1.007825032230
         H           -3.668221548546    -0.574728814920     0.004048713170     1.007825032230
         H            2.157642451454    -1.566868814920     1.457489713170     1.007825032230
         H            3.372666851454    -1.000843114920     0.526177713170     1.007825032230
         H            2.469596451454    -2.135142814920    -0.188305286830     1.007825032230
         H           -0.713267548546     2.795923185080     0.362207713170     1.007825032230

  Basis Set: AUG-CC-PVTZ
    Blend: AUG-CC-PVTZ
  Basis Set: (AUG-CC-PVTZ AUX)
    Blend: AUG-CC-PVTZ-JKFIT
	 Reference Energy          =    -457.4496666779494376 [Eh]
	 Singles Energy            =      -0.0000000000000000 [Eh]
	 Same-Spin Energy          =      -0.4783039697588123 [Eh]
	 Opposite-Spin Energy      =      -1.4730516897696162 [Eh]
	 Correlation Energy        =      -1.9513556595284285 [Eh]
	 Total Energy              =    -459.4010223374778548 [Eh]

	 ================> DF-SCS-MP2 Energies <==================
	-----------------------------------------------------------
	 SCS Same-Spin Scale       =       0.3333333333333333 [-]
	 SCS Opposite-Spin Scale   =       1.2000000000000000 [-]
	 SCS Same-Spin Energy      =      -0.1594346565862708 [Eh]
	 SCS Opposite-Spin Energy  =      -1.7676620277235393 [Eh]
	 SCS Correlation Energy    =      -1.9270966843098101 [Eh]
	 SCS Total Energy          =    -459.3767633622592257 [Eh]
	-----------------------------------------------------------

  Dipole Moment: [D]
     X:    -2.8851      Y:    -1.5132      Z:     1.2309     Total:     3.4827

*** Psi4 exiting successfully. Buy a developer a beer!
