                               Psi4 1.4a3.dev225

  ==> Input File <==

--------------------------------------------------------------------------
#psi4
#
memory 32 gb

molecule  {
0 1
  O       -0.0048250     2.1741760     0.2178480
  O        2.2663170     0.9084740    -0.5920830
  C        0.2215980    -0.1887240    -0.0416380
  C       -0.5997910     0.9512430     0.0794500
  C       -0.3937360    -1.4453650    -0.1432710
  C        1.7133810    -0.0735570    -0.1011180
  C       -1.9917600     0.8092840     0.0995930
  C       -1.7801750    -1.5845230    -0.1400000
  C       -2.5802090    -0.4482640    -0.0192820
  C        2.5274150    -1.2247570     0.4590770
  H        0.2262520    -2.3327300    -0.2378970
  H       -2.6178000     1.6952910     0.2019520
  H       -2.2312480    -2.5684970    -0.2333300
  H       -3.6639410    -0.5356590    -0.0094230
  H        2.1457383    -1.6319118     1.3993299
  H        3.5676560    -0.9027370     0.5247450
  H        2.4738770    -2.0960730    -0.2017770
  H       -0.7089870     2.8349930     0.3487360
units angstrom
no_reorient  #important for SAPT in psi4, default
symmetry c1  #important for SAPT in psi4, default
}

set PROPERTIES_ORIGIN ["COM"]
properties('MP2/aug-cc-pvtz', properties = ['dipole'])
--------------------------------------------------------------------------

    Molecular point group: c1
  Charge       = 0
  Multiplicity = 1
  Basis Set: AUG-CC-PVTZ
    Blend: AUG-CC-PVTZ
  Basis Set: (AUG-CC-PVTZ AUX)
    Blend: AUG-CC-PVTZ-JKFIT

    Orbital Energies [Eh]
    ---------------------

    Doubly Occupied:

       1A    -20.597188     2A    -20.538096     3A    -11.334224
       4A    -11.324765     5A    -11.261334     6A    -11.261206
       7A    -11.249952     8A    -11.247522     9A    -11.241931
      10A    -11.233533    11A     -1.410822    12A     -1.367903
      13A     -1.163723    14A     -1.057258    15A     -1.019329
      16A     -0.994928    17A     -0.871543    18A     -0.848129
      19A     -0.764837    20A     -0.740761    21A     -0.682115
      22A     -0.670656    23A     -0.638496    24A     -0.622070
      25A     -0.610178    26A     -0.598732    27A     -0.582362
      28A     -0.574738    29A     -0.555317    30A     -0.532848
      31A     -0.521063    32A     -0.498450    33A     -0.478898
      34A     -0.411807    35A     -0.356575    36A     -0.327345

  @DF-RHF Final Energy:  -457.48288391040865

   => Energetics <=

    Nuclear Repulsion Energy =            494.7834458349308875
    One-Electron Energy =               -1604.1513962669209832
    Two-Electron Energy =                 651.8850665215813933
    Total Energy =                       -457.4828839104086455
  Basis Set: (AUG-CC-PVTZ AUX)
    Blend: AUG-CC-PVTZ-RI
    Molecular point group: c1

    Geometry (in Angstrom), charge = 0, multiplicity = 1:

       Center              X                  Y                   Z               Mass
    ------------   -----------------  -----------------  -----------------  -----------------
         O           -0.010398355707     2.135440094774     0.231561565376    15.994914619570
         O            2.260743644293     0.869738094774    -0.578369434624    15.994914619570
         C            0.216024644293    -0.227459905226    -0.027924434624    12.000000000000
         C           -0.605364355707     0.912507094774     0.093163565376    12.000000000000
         C           -0.399309355707    -1.484100905226    -0.129557434624    12.000000000000
         C            1.707807644293    -0.112292905226    -0.087404434624    12.000000000000
         C           -1.997333355707     0.770548094774     0.113306565376    12.000000000000
         C           -1.785748355707    -1.623258905226    -0.126286434624    12.000000000000
         C           -2.585782355707    -0.486999905226    -0.005568434624    12.000000000000
         C            2.521841644293    -1.263492905226     0.472790565376    12.000000000000
         H            0.220678644293    -2.371465905226    -0.224183434624     1.007825032230
         H           -2.623373355707     1.656555094774     0.215665565376     1.007825032230
         H           -2.236821355707    -2.607232905226    -0.219616434624     1.007825032230
         H           -3.669514355707    -0.574394905226     0.004290565376     1.007825032230
         H            2.140164944293    -1.670647705226     1.413043465376     1.007825032230
         H            3.562082644293    -0.941472905226     0.538458565376     1.007825032230
         H            2.468303644293    -2.134808905226    -0.188063434624     1.007825032230
         H           -0.714560355707     2.796257094774     0.362449565376     1.007825032230

  Basis Set: AUG-CC-PVTZ
    Blend: AUG-CC-PVTZ
  Basis Set: (AUG-CC-PVTZ AUX)
    Blend: AUG-CC-PVTZ-JKFIT
	 Reference Energy          =    -457.4828839104086455 [Eh]
	 Singles Energy            =      -0.0000000000000000 [Eh]
	 Same-Spin Energy          =      -0.4783984717779446 [Eh]
	 Opposite-Spin Energy      =      -1.4738191678170836 [Eh]
	 Correlation Energy        =      -1.9522176395950281 [Eh]
	 Total Energy              =    -459.4351015500036510 [Eh]

	 ================> DF-SCS-MP2 Energies <==================
	-----------------------------------------------------------
	 SCS Same-Spin Scale       =       0.3333333333333333 [-]
	 SCS Opposite-Spin Scale   =       1.2000000000000000 [-]
	 SCS Same-Spin Energy      =      -0.1594661572593148 [Eh]
	 SCS Opposite-Spin Energy  =      -1.7685830013805002 [Eh]
	 SCS Correlation Energy    =      -1.9280491586398150 [Eh]
	 SCS Total Energy          =    -459.4109330690484398 [Eh]
	-----------------------------------------------------------

  Dipole Moment: [D]
     X:    -2.9440      Y:    -1.5303      Z:     1.2094     Total:     3.5315

*** Psi4 exiting successfully. Buy a developer a beer!
