                               Psi4 1.4a3.dev225

  ==> Input File <==

--------------------------------------------------------------------------
#psi4
#
memory 32 gb

molecule  {
0 1
  O       -0.0048250     2.1741760     0.2178480
  O        2.2663170     0.9084740    -0.5920830
  C        0.2215980    -0.1887240    -0.0416380
  C       -0.5997910     0.9512430     0.0794500
  C       -0.3937360    -1.4453650    -0.1432710
  C        1.7133810    -0.0735570    -0.1011180
  C       -1.9917600     0.8092840     0.0995930
  C       -1.7864355    -1.4879374    -0.1304477
  C       -2.5802090    -0.4482640    -0.0192820
  C        2.5274150    -1.2247570     0.4590770
  H        0.2262520    -2.3327300    -0.2378970
  H       -2.6178000     1.6952910     0.2019520
  H       -2.2312480    -2.5684970    -0.2333300
  H       -3.6639410    -0.5356590    -0.0094230
  H        2.1619230    -1.5277990     1.4440180
  H        3.5676560    -0.9027370     0.5247450
  H        2.4738770    -2.0960730    -0.2017770
  H       -0.7089870     2.8349930     0.3487360
units angstrom
no_reorient  #important for SAPT in psi4, default
symmetry c1  #important for SAPT in psi4, default
}

set PROPERTIES_ORIGIN ["COM"]
properties('MP2/aug-cc-pvtz', properties = ['dipole'])
--------------------------------------------------------------------------

    Molecular point group: c1
  Charge       = 0
  Multiplicity = 1
  Basis Set: AUG-CC-PVTZ
    Blend: AUG-CC-PVTZ
  Basis Set: (AUG-CC-PVTZ AUX)
    Blend: AUG-CC-PVTZ-JKFIT

    Orbital Energies [Eh]
    ---------------------

    Doubly Occupied:

       1A    -20.594833     2A    -20.539038     3A    -11.333848
       4A    -11.321733     5A    -11.262136     6A    -11.251786
       7A    -11.249715     8A    -11.245589     9A    -11.240170
      10A    -11.234563    11A     -1.408914    12A     -1.368553
      13A     -1.173202    14A     -1.063855    15A     -1.017252
      16A     -0.997411    17A     -0.877583    18A     -0.845573
      19A     -0.757947    20A     -0.742227    21A     -0.682653
      22A     -0.665908    23A     -0.643228    24A     -0.622543
      25A     -0.610675    26A     -0.595636    27A     -0.587813
      28A     -0.577904    29A     -0.552939    30A     -0.529260
      31A     -0.510475    32A     -0.503259    33A     -0.482963
      34A     -0.410920    35A     -0.358225    36A     -0.329810

  @DF-RHF Final Energy:  -457.47143756121136

   => Energetics <=

    Nuclear Repulsion Energy =            496.4390382310371592
    One-Electron Energy =               -1607.4406760569968355
    Two-Electron Energy =                 653.5302002647483732
    Total Energy =                       -457.4714375612113599
  Basis Set: (AUG-CC-PVTZ AUX)
    Blend: AUG-CC-PVTZ-RI
    Molecular point group: c1

    Geometry (in Angstrom), charge = 0, multiplicity = 1:

       Center              X                  Y                   Z               Mass
    ------------   -----------------  -----------------  -----------------  -----------------
         O           -0.009966061669     2.126149891793     0.230388007606    15.994914619570
         O            2.261175938331     0.860447891793    -0.579542992394    15.994914619570
         C            0.216456938331    -0.236750108207    -0.029097992394    12.000000000000
         C           -0.604932061669     0.903216891793     0.091990007606    12.000000000000
         C           -0.398877061669    -1.493391108207    -0.130730992394    12.000000000000
         C            1.708239938331    -0.121583108207    -0.088577992394    12.000000000000
         C           -1.996901061669     0.761257891793     0.112133007606    12.000000000000
         C           -1.791576561669    -1.535963508207    -0.117907692394    12.000000000000
         C           -2.585350061669    -0.496290108207    -0.006741992394    12.000000000000
         C            2.522273938331    -1.272783108207     0.471617007606    12.000000000000
         H            0.221110938331    -2.380756108207    -0.225356992394     1.007825032230
         H           -2.622941061669     1.647264891793     0.214492007606     1.007825032230
         H           -2.236389061669    -2.616523108207    -0.220789992394     1.007825032230
         H           -3.669082061669    -0.583685108207     0.003117007606     1.007825032230
         H            2.156781938331    -1.575825108207     1.456558007606     1.007825032230
         H            3.562514938331    -0.950763108207     0.537285007606     1.007825032230
         H            2.468735938331    -2.144099108207    -0.189236992394     1.007825032230
         H           -0.714128061669     2.786966891793     0.361276007606     1.007825032230

  Basis Set: AUG-CC-PVTZ
    Blend: AUG-CC-PVTZ
  Basis Set: (AUG-CC-PVTZ AUX)
    Blend: AUG-CC-PVTZ-JKFIT
	 Reference Energy          =    -457.4714375612113599 [Eh]
	 Singles Energy            =      -0.0000000000000000 [Eh]
	 Same-Spin Energy          =      -0.4786489279840679 [Eh]
	 Opposite-Spin Energy      =      -1.4741397938770735 [Eh]
	 Correlation Energy        =      -1.9527887218611415 [Eh]
	 Total Energy              =    -459.4242262830725281 [Eh]

	 ================> DF-SCS-MP2 Energies <==================
	-----------------------------------------------------------
	 SCS Same-Spin Scale       =       0.3333333333333333 [-]
	 SCS Opposite-Spin Scale   =       1.2000000000000000 [-]
	 SCS Same-Spin Energy      =      -0.1595496426613560 [Eh]
	 SCS Opposite-Spin Energy  =      -1.7689677526524881 [Eh]
	 SCS Correlation Energy    =      -1.9285173953138439 [Eh]
	 SCS Total Energy          =    -459.3999549565252210 [Eh]
	-----------------------------------------------------------

  Dipole Moment: [D]
     X:    -2.8635      Y:    -1.4798      Z:     1.2217     Total:     3.4470

*** Psi4 exiting successfully. Buy a developer a beer!
