                               Psi4 1.3.2 release

  ==> Input File <==

--------------------------------------------------------------------------
#psi4
#
memory 32 gb

molecule  {
0 1
  C        0.0747750     0.1439390    -0.0006420
  O        0.3599490     1.3396460     0.0001020
  N        1.0295580    -0.8342780    -0.0002470
  H        1.9994870    -0.5504990     0.0019500
  H        0.8093100    -1.8174470     0.0004310
  C       -1.3605554    -0.3434513    -0.0499730
  H       -1.8586250     0.0456800     0.8905520
  H       -1.4535700    -1.4316540    -0.0164900
  H       -1.8684430     0.0738120    -0.8718410
units angstrom
no_reorient  #important for SAPT in psi4, default
symmetry c1  #important for SAPT in psi4, default
}

set PROPERTIES_ORIGIN ["COM"]
properties('MP2/aug-cc-pvtz', properties = ['dipole'])
--------------------------------------------------------------------------

    Molecular point group: c1
  Charge       = 0
  Multiplicity = 1
  Basis Set: AUG-CC-PVTZ
    Blend: AUG-CC-PVTZ
  Basis Set: (AUG-CC-PVTZ AUX)
    Blend: AUG-CC-PVTZ-JKFIT

    Orbital Energies [Eh]
    ---------------------

    Doubly Occupied:

       1A    -20.516695     2A    -15.590410     3A    -11.357470
       4A    -11.241298     5A     -1.372363     6A     -1.211514
       7A     -1.005082     8A     -0.801531     9A     -0.726369
      10A     -0.663204    11A     -0.615147    12A     -0.584181
      13A     -0.563929    14A     -0.519713    15A     -0.424638
      16A     -0.414817

  @DF-RHF Final Energy:  -208.05895368800884

   => Energetics <=

    Nuclear Repulsion Energy =            121.2565798642350359
    One-Electron Energy =                -523.4143422492315949
    Two-Electron Energy =                 194.0988086969877031
    Total Energy =                       -208.0589536880088417
  Basis Set: (AUG-CC-PVTZ AUX)
    Blend: AUG-CC-PVTZ-RI
    Molecular point group: c1

    Geometry (in Angstrom), charge = 0, multiplicity = 1:

       Center              X                  Y                   Z               Mass
    ------------   -----------------  -----------------  -----------------  -----------------
         C            0.034892209243     0.082248750952     0.009598494977    12.000000000000
         O            0.320066209243     1.277955750952     0.010342494977    15.994914619570
         N            0.989675209243    -0.895968249048     0.009993494977    14.003074004430
         H            1.959604209243    -0.612189249048     0.012190494977     1.007825032230
         H            0.769427209243    -1.879137249048     0.010671494977     1.007825032230
         C           -1.400438190757    -0.405141549048    -0.039732505023    12.000000000000
         H           -1.898507790757    -0.016010249048     0.900792494977     1.007825032230
         H           -1.493452790757    -1.493344249048    -0.006249505023     1.007825032230
         H           -1.908325790757     0.012121750952    -0.861600505023     1.007825032230

  Basis Set: AUG-CC-PVTZ
    Blend: AUG-CC-PVTZ
  Basis Set: (AUG-CC-PVTZ AUX)
    Blend: AUG-CC-PVTZ-JKFIT
	 Reference Energy          =    -208.0589536880088417 [Eh]
	 Singles Energy            =      -0.0000000000000000 [Eh]
	 Same-Spin Energy          =      -0.2047823434974553 [Eh]
	 Opposite-Spin Energy      =      -0.6566968003283000 [Eh]
	 Correlation Energy        =      -0.8614791438257553 [Eh]
	 Total Energy              =    -208.9204328318346029 [Eh]

	 ================> DF-SCS-MP2 Energies <==================
	-----------------------------------------------------------
	 SCS Same-Spin Scale       =       0.3333333333333333 [-]
	 SCS Opposite-Spin Scale   =       1.2000000000000000 [-]
	 SCS Same-Spin Energy      =      -0.0682607811658184 [Eh]
	 SCS Opposite-Spin Energy  =      -0.7880361603939600 [Eh]
	 SCS Correlation Energy    =      -0.8562969415597784 [Eh]
	 SCS Total Energy          =    -208.9152506295686180 [Eh]
	-----------------------------------------------------------

  Dipole Moment: [D]
     X:    -0.1587      Y:    -3.8474      Z:    -0.0076     Total:     3.8507

*** Psi4 exiting successfully. Buy a developer a beer!
