                               Psi4 1.3.2 release

  ==> Input File <==

--------------------------------------------------------------------------
#psi4
#
memory 32 gb

molecule  {
0 1
  C        0.0747750     0.1439390    -0.0006420
  O        0.3599490     1.3396460     0.0001020
  N        1.0295580    -0.8342780    -0.0002470
  H        1.9994870    -0.5504990     0.0019500
  H        0.8093100    -1.8174470     0.0004310
  C       -1.3605684    -0.3434313    -0.1999730
  H       -1.8586250     0.0456800     0.8905520
  H       -1.4535700    -1.4316540    -0.0164900
  H       -1.8684430     0.0738120    -0.8718410
units angstrom
no_reorient  #important for SAPT in psi4, default
symmetry c1  #important for SAPT in psi4, default
}

set PROPERTIES_ORIGIN ["COM"]
properties('MP2/aug-cc-pvtz', properties = ['dipole'])
--------------------------------------------------------------------------

    Molecular point group: c1
  Charge       = 0
  Multiplicity = 1
  Basis Set: AUG-CC-PVTZ
    Blend: AUG-CC-PVTZ
  Basis Set: (AUG-CC-PVTZ AUX)
    Blend: AUG-CC-PVTZ-JKFIT

    Orbital Energies [Eh]
    ---------------------

    Doubly Occupied:

       1A    -20.517249     2A    -15.591116     3A    -11.360556
       4A    -11.246498     5A     -1.372901     6A     -1.212140
       7A     -1.007363     8A     -0.806176     9A     -0.731150
      10A     -0.661423    11A     -0.634642    12A     -0.586254
      13A     -0.568328    14A     -0.487233    15A     -0.424175
      16A     -0.415505

  @DF-RHF Final Energy:  -208.02017386676613

   => Energetics <=

    Nuclear Repulsion Energy =            121.1277876321851892
    One-Electron Energy =                -523.0505050925578416
    Two-Electron Energy =                 193.9025435936065378
    Total Energy =                       -208.0201738667661289
  Basis Set: (AUG-CC-PVTZ AUX)
    Blend: AUG-CC-PVTZ-RI
    Molecular point group: c1

    Geometry (in Angstrom), charge = 0, multiplicity = 1:

       Center              X                  Y                   Z               Mass
    ------------   -----------------  -----------------  -----------------  -----------------
         C            0.034894851649     0.082244685713     0.040087790347    12.000000000000
         O            0.320068851649     1.277951685713     0.040831790347    15.994914619570
         N            0.989677851649    -0.895972314287     0.040482790347    14.003074004430
         H            1.959606851649    -0.612193314287     0.042679790347     1.007825032230
         H            0.769429851649    -1.879141314287     0.041160790347     1.007825032230
         C           -1.400448548351    -0.405125614287    -0.159243209653    12.000000000000
         H           -1.898505148351    -0.016014314287     0.931281790347     1.007825032230
         H           -1.493450148351    -1.493348314287     0.024239790347     1.007825032230
         H           -1.908323148351     0.012117685713    -0.831111209653     1.007825032230

  Basis Set: AUG-CC-PVTZ
    Blend: AUG-CC-PVTZ
  Basis Set: (AUG-CC-PVTZ AUX)
    Blend: AUG-CC-PVTZ-JKFIT
	 Reference Energy          =    -208.0201738667661289 [Eh]
	 Singles Energy            =      -0.0000000000000000 [Eh]
	 Same-Spin Energy          =      -0.2052617024801977 [Eh]
	 Opposite-Spin Energy      =      -0.6584168396794059 [Eh]
	 Correlation Energy        =      -0.8636785421596036 [Eh]
	 Total Energy              =    -208.8838524089257191 [Eh]

	 ================> DF-SCS-MP2 Energies <==================
	-----------------------------------------------------------
	 SCS Same-Spin Scale       =       0.3333333333333333 [-]
	 SCS Opposite-Spin Scale   =       1.2000000000000000 [-]
	 SCS Same-Spin Energy      =      -0.0684205674933992 [Eh]
	 SCS Opposite-Spin Energy  =      -0.7901002076152871 [Eh]
	 SCS Correlation Energy    =      -0.8585207751086863 [Eh]
	 SCS Total Energy          =    -208.8786946418748016 [Eh]
	-----------------------------------------------------------

  Dipole Moment: [D]
     X:    -0.1192      Y:    -3.8423      Z:    -0.0394     Total:     3.8444

*** Psi4 exiting successfully. Buy a developer a beer!
