                               Psi4 1.3.2 release

  ==> Input File <==

--------------------------------------------------------------------------
#psi4
#
memory 32 gb

molecule  {
0 1
  C        0.0747750     0.1439390    -0.0006420
  O        0.3599490     1.3396460     0.0001020
  N        1.0295580    -0.8342780    -0.0002470
  H        1.9994870    -0.5504990     0.0019500
  H        0.8093100    -1.8174470     0.0004310
  C       -1.3605772    -0.3434179    -0.2999730
  H       -1.8586250     0.0456800     0.8905520
  H       -1.4535700    -1.4316540    -0.0164900
  H       -1.8684430     0.0738120    -0.8718410
units angstrom
no_reorient  #important for SAPT in psi4, default
symmetry c1  #important for SAPT in psi4, default
}

set PROPERTIES_ORIGIN ["COM"]
properties('MP2/aug-cc-pvtz', properties = ['dipole'])
--------------------------------------------------------------------------

    Molecular point group: c1
  Charge       = 0
  Multiplicity = 1
  Basis Set: AUG-CC-PVTZ
    Blend: AUG-CC-PVTZ
  Basis Set: (AUG-CC-PVTZ AUX)
    Blend: AUG-CC-PVTZ-JKFIT

    Orbital Energies [Eh]
    ---------------------

    Doubly Occupied:

       1A    -20.518029     2A    -15.592012     3A    -11.364499
       4A    -11.253325     5A     -1.373619     6A     -1.212932
       7A     -1.010895     8A     -0.812605     9A     -0.736982
      10A     -0.660012    11A     -0.647883    12A     -0.588638
      13A     -0.566262    14A     -0.462400    15A     -0.423473
      16A     -0.416352

  @DF-RHF Final Energy:  -207.96752772075931

   => Energetics <=

    Nuclear Repulsion Energy =            120.9578710164872035
    One-Electron Energy =                -522.5709607756965625
    Two-Electron Energy =                 193.6455620384500378
    Total Energy =                       -207.9675277207593069
  Basis Set: (AUG-CC-PVTZ AUX)
    Blend: AUG-CC-PVTZ-RI
    Molecular point group: c1

    Geometry (in Angstrom), charge = 0, multiplicity = 1:

       Center              X                  Y                   Z               Mass
    ------------   -----------------  -----------------  -----------------  -----------------
         C            0.034896640354     0.082241962002     0.060413987261    12.000000000000
         O            0.320070640354     1.277948962002     0.061157987261    15.994914619570
         N            0.989679640354    -0.895975037998     0.060808987261    14.003074004430
         H            1.959608640354    -0.612196037998     0.063005987261     1.007825032230
         H            0.769431640354    -1.879144037998     0.061486987261     1.007825032230
         C           -1.400455559646    -0.405114937998    -0.238917012739    12.000000000000
         H           -1.898503359646    -0.016017037998     0.951607987261     1.007825032230
         H           -1.493448359646    -1.493351037998     0.044565987261     1.007825032230
         H           -1.908321359646     0.012114962002    -0.810785012739     1.007825032230

  Basis Set: AUG-CC-PVTZ
    Blend: AUG-CC-PVTZ
  Basis Set: (AUG-CC-PVTZ AUX)
    Blend: AUG-CC-PVTZ-JKFIT
	 Reference Energy          =    -207.9675277207593069 [Eh]
	 Singles Energy            =      -0.0000000000000000 [Eh]
	 Same-Spin Energy          =      -0.2059193547809473 [Eh]
	 Opposite-Spin Energy      =      -0.6608054457016914 [Eh]
	 Correlation Energy        =      -0.8667248004826387 [Eh]
	 Total Energy              =    -208.8342525212419503 [Eh]

	 ================> DF-SCS-MP2 Energies <==================
	-----------------------------------------------------------
	 SCS Same-Spin Scale       =       0.3333333333333333 [-]
	 SCS Opposite-Spin Scale   =       1.2000000000000000 [-]
	 SCS Same-Spin Energy      =      -0.0686397849269824 [Eh]
	 SCS Opposite-Spin Energy  =      -0.7929665348420297 [Eh]
	 SCS Correlation Energy    =      -0.8616063197690121 [Eh]
	 SCS Total Energy          =    -208.8291340405283165 [Eh]
	-----------------------------------------------------------

  Dipole Moment: [D]
     X:    -0.0709      Y:    -3.8284      Z:    -0.0482     Total:     3.8294

*** Psi4 exiting successfully. Buy a developer a beer!
