                               Psi4 1.3.2 release

  ==> Input File <==

--------------------------------------------------------------------------
#psi4
#
memory 32 gb

molecule  {
0 1
  C        0.0747750     0.1439390    -0.0006420
  O        0.3599490     1.3396460     0.0001020
  N        1.0295580    -0.8342780    -0.0002470
  H        1.9994870    -0.5504990     0.0019500
  H        0.8093100    -1.8174470     0.0004310
  C       -1.3605597    -0.3434446    -0.0999730
  H       -1.8586250     0.0456800     0.8905520
  H       -1.4535700    -1.4316540    -0.0164900
  H       -1.8684430     0.0738120    -0.8718410
units angstrom
no_reorient  #important for SAPT in psi4, default
symmetry c1  #important for SAPT in psi4, default
}

set PROPERTIES_ORIGIN ["COM"]
properties('MP2/aug-cc-pvtz', properties = ['dipole'])
--------------------------------------------------------------------------

    Molecular point group: c1
  Charge       = 0
  Multiplicity = 1
  Basis Set: AUG-CC-PVTZ
    Blend: AUG-CC-PVTZ
  Basis Set: (AUG-CC-PVTZ AUX)
    Blend: AUG-CC-PVTZ-JKFIT

    Orbital Energies [Eh]
    ---------------------

    Doubly Occupied:

       1A    -20.516798     2A    -15.590552     3A    -11.358096
       4A    -11.242347     5A     -1.372468     6A     -1.211641
       7A     -1.005513     8A     -0.802436     9A     -0.727329
      10A     -0.662860    11A     -0.619878    12A     -0.584506
      13A     -0.566526    14A     -0.510869    15A     -0.424548
      16A     -0.414958

  @DF-RHF Final Energy:  -208.05125690502973

   => Energetics <=

    Nuclear Repulsion Energy =            121.2307187285236978
    One-Electron Energy =                -523.3413008720796142
    Two-Electron Energy =                 194.0593252385261849
    Total Energy =                       -208.0512569050297316
  Basis Set: (AUG-CC-PVTZ AUX)
    Blend: AUG-CC-PVTZ-RI
    Molecular point group: c1

    Geometry (in Angstrom), charge = 0, multiplicity = 1:

       Center              X                  Y                   Z               Mass
    ------------   -----------------  -----------------  -----------------  -----------------
         C            0.034893083270     0.082247389097     0.019761593434    12.000000000000
         O            0.320067083270     1.277954389097     0.020505593434    15.994914619570
         N            0.989676083270    -0.895969610903     0.020156593434    14.003074004430
         H            1.959605083270    -0.612190610903     0.022353593434     1.007825032230
         H            0.769428083270    -1.879138610903     0.020834593434     1.007825032230
         C           -1.400441616730    -0.405136210903    -0.079569406566    12.000000000000
         H           -1.898506916730    -0.016011610903     0.910955593434     1.007825032230
         H           -1.493451916730    -1.493345610903     0.003913593434     1.007825032230
         H           -1.908324916730     0.012120389097    -0.851437406566     1.007825032230

  Basis Set: AUG-CC-PVTZ
    Blend: AUG-CC-PVTZ
  Basis Set: (AUG-CC-PVTZ AUX)
    Blend: AUG-CC-PVTZ-JKFIT
	 Reference Energy          =    -208.0512569050297316 [Eh]
	 Singles Energy            =      -0.0000000000000000 [Eh]
	 Same-Spin Energy          =      -0.2048770567221507 [Eh]
	 Opposite-Spin Energy      =      -0.6570325419250693 [Eh]
	 Correlation Energy        =      -0.8619095986472201 [Eh]
	 Total Energy              =    -208.9131665036769618 [Eh]

	 ================> DF-SCS-MP2 Energies <==================
	-----------------------------------------------------------
	 SCS Same-Spin Scale       =       0.3333333333333333 [-]
	 SCS Opposite-Spin Scale   =       1.2000000000000000 [-]
	 SCS Same-Spin Energy      =      -0.0682923522407169 [Eh]
	 SCS Opposite-Spin Energy  =      -0.7884390503100832 [Eh]
	 SCS Correlation Energy    =      -0.8567314025508002 [Eh]
	 SCS Total Energy          =    -208.9079883075805242 [Eh]
	-----------------------------------------------------------

  Dipole Moment: [D]
     X:    -0.1508      Y:    -3.8469      Z:    -0.0195     Total:     3.8500

*** Psi4 exiting successfully. Buy a developer a beer!
