                               Psi4 1.3.2 release

  ==> Input File <==

--------------------------------------------------------------------------
#psi4
#
memory 32 gb

molecule  {
0 1
  C        0.0747750     0.1439390    -0.0006420
  O        0.3599490     1.3396460     0.0001020
  N        1.0295580    -0.8342780    -0.0002470
  H        1.9994870    -0.5504990     0.0019500
  H        0.8093100    -1.8174470     0.0004310
  C       -1.3605728    -0.3434246    -0.2499730
  H       -1.8586250     0.0456800     0.8905520
  H       -1.4535700    -1.4316540    -0.0164900
  H       -1.8684430     0.0738120    -0.8718410
units angstrom
no_reorient  #important for SAPT in psi4, default
symmetry c1  #important for SAPT in psi4, default
}

set PROPERTIES_ORIGIN ["COM"]
properties('MP2/aug-cc-pvtz', properties = ['dipole'])
--------------------------------------------------------------------------

    Molecular point group: c1
  Charge       = 0
  Multiplicity = 1
  Basis Set: AUG-CC-PVTZ
    Blend: AUG-CC-PVTZ
  Basis Set: (AUG-CC-PVTZ AUX)
    Blend: AUG-CC-PVTZ-JKFIT

    Orbital Energies [Eh]
    ---------------------

    Doubly Occupied:

       1A    -20.517598     2A    -15.591527     3A    -11.362355
       4A    -11.249585     5A     -1.373226     6A     -1.212503
       7A     -1.008887     8A     -0.809066     9A     -0.733895
      10A     -0.660530    11A     -0.642038    12A     -0.587447
      13A     -0.567601    14A     -0.474701    15A     -0.423873
      16A     -0.415897

  @DF-RHF Final Energy:  -207.99658473551548

   => Energetics <=

    Nuclear Repulsion Energy =            121.0511103464819769
    One-Electron Energy =                -522.8339300816202240
    Two-Electron Energy =                 193.7862349996227351
    Total Energy =                       -207.9965847355154835
  Basis Set: (AUG-CC-PVTZ AUX)
    Blend: AUG-CC-PVTZ-RI
    Molecular point group: c1

    Geometry (in Angstrom), charge = 0, multiplicity = 1:

       Center              X                  Y                   Z               Mass
    ------------   -----------------  -----------------  -----------------  -----------------
         C            0.034895746001     0.082243323858     0.050250888804    12.000000000000
         O            0.320069746001     1.277950323858     0.050994888804    15.994914619570
         N            0.989678746001    -0.895973676142     0.050645888804    14.003074004430
         H            1.959607746001    -0.612194676142     0.052842888804     1.007825032230
         H            0.769430746001    -1.879142676142     0.051323888804     1.007825032230
         C           -1.400452053999    -0.405120276142    -0.199080111196    12.000000000000
         H           -1.898504253999    -0.016015676142     0.941444888804     1.007825032230
         H           -1.493449253999    -1.493349676142     0.034402888804     1.007825032230
         H           -1.908322253999     0.012116323858    -0.820948111196     1.007825032230

  Basis Set: AUG-CC-PVTZ
    Blend: AUG-CC-PVTZ
  Basis Set: (AUG-CC-PVTZ AUX)
    Blend: AUG-CC-PVTZ-JKFIT
	 Reference Energy          =    -207.9965847355154835 [Eh]
	 Singles Energy            =      -0.0000000000000000 [Eh]
	 Same-Spin Energy          =      -0.2055551784248453 [Eh]
	 Opposite-Spin Energy      =      -0.6594811107965832 [Eh]
	 Correlation Energy        =      -0.8650362892214285 [Eh]
	 Total Energy              =    -208.8616210247369054 [Eh]

	 ================> DF-SCS-MP2 Energies <==================
	-----------------------------------------------------------
	 SCS Same-Spin Scale       =       0.3333333333333333 [-]
	 SCS Opposite-Spin Scale   =       1.2000000000000000 [-]
	 SCS Same-Spin Energy      =      -0.0685183928082818 [Eh]
	 SCS Opposite-Spin Energy  =      -0.7913773329558998 [Eh]
	 SCS Correlation Energy    =      -0.8598957257641816 [Eh]
	 SCS Total Energy          =    -208.8564804612796593 [Eh]
	-----------------------------------------------------------

  Dipole Moment: [D]
     X:    -0.0967      Y:    -3.8369      Z:    -0.0457     Total:     3.8384

*** Psi4 exiting successfully. Buy a developer a beer!
