                               Psi4 1.3.2 release

  ==> Input File <==

--------------------------------------------------------------------------
#psi4
#
memory 32 gb

molecule  {
0 1
  C        0.0747750     0.1439390    -0.0006420
  O        0.3599490     1.3396460     0.0001020
  N        1.0295580    -0.8342780    -0.0002470
  H        1.9994870    -0.5504990     0.0019500
  H        0.8093100    -1.8174470     0.0004310
  C       -1.3605641    -0.3434379    -0.1499730
  H       -1.8586250     0.0456800     0.8905520
  H       -1.4535700    -1.4316540    -0.0164900
  H       -1.8684430     0.0738120    -0.8718410
units angstrom
no_reorient  #important for SAPT in psi4, default
symmetry c1  #important for SAPT in psi4, default
}

set PROPERTIES_ORIGIN ["COM"]
properties('MP2/aug-cc-pvtz', properties = ['dipole'])
--------------------------------------------------------------------------

    Molecular point group: c1
  Charge       = 0
  Multiplicity = 1
  Basis Set: AUG-CC-PVTZ
    Blend: AUG-CC-PVTZ
  Basis Set: (AUG-CC-PVTZ AUX)
    Blend: AUG-CC-PVTZ-JKFIT

    Orbital Energies [Eh]
    ---------------------

    Doubly Occupied:

       1A    -20.516982     2A    -15.590789     3A    -11.359130
       4A    -11.244081     5A     -1.372648     6A     -1.211850
       7A     -1.006258     8A     -0.803972     9A     -0.728931
      10A     -0.662248    11A     -0.626837    12A     -0.585213
      13A     -0.568090    14A     -0.499547    15A     -0.424396
      16A     -0.415189

  @DF-RHF Final Energy:  -208.03836271973799

   => Energetics <=

    Nuclear Repulsion Energy =            121.1877284659244935
    One-Electron Energy =                -523.2198572541005888
    Two-Electron Energy =                 193.9937660684381342
    Total Energy =                       -208.0383627197379894
  Basis Set: (AUG-CC-PVTZ AUX)
    Blend: AUG-CC-PVTZ-RI
    Molecular point group: c1

    Geometry (in Angstrom), charge = 0, multiplicity = 1:

       Center              X                  Y                   Z               Mass
    ------------   -----------------  -----------------  -----------------  -----------------
         C            0.034893977622     0.082246027242     0.029924691891    12.000000000000
         O            0.320067977622     1.277953027242     0.030668691891    15.994914619570
         N            0.989676977622    -0.895970972758     0.030319691891    14.003074004430
         H            1.959605977622    -0.612191972758     0.032516691891     1.007825032230
         H            0.769428977622    -1.879139972758     0.030997691891     1.007825032230
         C           -1.400445122378    -0.405130872758    -0.119406308109    12.000000000000
         H           -1.898506022378    -0.016012972758     0.921118691891     1.007825032230
         H           -1.493451022378    -1.493346972758     0.014076691891     1.007825032230
         H           -1.908324022378     0.012119027242    -0.841274308109     1.007825032230

  Basis Set: AUG-CC-PVTZ
    Blend: AUG-CC-PVTZ
  Basis Set: (AUG-CC-PVTZ AUX)
    Blend: AUG-CC-PVTZ-JKFIT
	 Reference Energy          =    -208.0383627197379894 [Eh]
	 Singles Energy            =      -0.0000000000000000 [Eh]
	 Same-Spin Energy          =      -0.2050363307208794 [Eh]
	 Opposite-Spin Energy      =      -0.6576033705923573 [Eh]
	 Correlation Energy        =      -0.8626397013132368 [Eh]
	 Total Energy              =    -208.9010024210512313 [Eh]

	 ================> DF-SCS-MP2 Energies <==================
	-----------------------------------------------------------
	 SCS Same-Spin Scale       =       0.3333333333333333 [-]
	 SCS Opposite-Spin Scale   =       1.2000000000000000 [-]
	 SCS Same-Spin Energy      =      -0.0683454435736265 [Eh]
	 SCS Opposite-Spin Energy  =      -0.7891240447108288 [Eh]
	 SCS Correlation Energy    =      -0.8574694882844552 [Eh]
	 SCS Total Energy          =    -208.8958322080224548 [Eh]
	-----------------------------------------------------------

  Dipole Moment: [D]
     X:    -0.1375      Y:    -3.8454      Z:    -0.0303     Total:     3.8480

*** Psi4 exiting successfully. Buy a developer a beer!
