                               Psi4 1.3.2 release

  ==> Input File <==

--------------------------------------------------------------------------
#psi4
#
memory 32 gb

molecule  {
0 1
  N        1.5809750    -0.0000040    -0.2631210
  C        0.1877573     0.0460778    -0.0989992
  C       -0.5447150     1.2059360    -0.0650820
  C       -0.5447190    -1.2059370    -0.0651000
  C        2.2782760     1.2232720     0.1068400
  C        2.2782740    -1.2232720     0.1068750
  C       -1.9355870     1.1987890     0.0289600
  C       -1.9355910    -1.1987860     0.0289420
  C       -2.6468500     0.0000020     0.0738780
  H       -0.0353100     2.1623660    -0.0908580
  H       -0.0353170    -2.1623680    -0.0908950
  H        1.9822100     2.0441110    -0.5499540
  H        3.3493810     1.0663200    -0.0318300
  H        2.0973190     1.5260350     1.1502070
  H        3.3493810    -1.0663200    -0.0317850
  H        2.0973040    -1.5260120     1.1502460
  H        1.9822180    -2.0441270    -0.5499050
  H       -2.4643420     2.1488140     0.0683770
  H       -2.4643490    -2.1488100     0.0683440
  H       -3.7307980     0.0000040     0.1506540
units angstrom
no_reorient  #important for SAPT in psi4, default
symmetry c1  #important for SAPT in psi4, default
}

set PROPERTIES_ORIGIN ["COM"]
properties('MP2/aug-cc-pvtz', properties = ['dipole'])
--------------------------------------------------------------------------

    Molecular point group: c1
  Charge       = 0
  Multiplicity = 1
  Basis Set: AUG-CC-PVTZ
    Blend: AUG-CC-PVTZ
  Basis Set: (AUG-CC-PVTZ AUX)
    Blend: AUG-CC-PVTZ-JKFIT

    Orbital Energies [Eh]
    ---------------------

    Doubly Occupied:

       1A    -15.569318     2A    -11.275542     3A    -11.255478
       4A    -11.253099     5A    -11.233474     6A    -11.232378
       7A    -11.226260     8A    -11.218578     9A    -11.217838
      10A     -1.253322    11A     -1.131265    12A     -1.014060
      13A     -1.001245    14A     -0.963639    15A     -0.887959
      16A     -0.817484    17A     -0.782665    18A     -0.707919
      19A     -0.648648    20A     -0.643012    21A     -0.635565
      22A     -0.617144    23A     -0.582930    24A     -0.574856
      25A     -0.553560    26A     -0.541453    27A     -0.526389
      28A     -0.507071    29A     -0.495791    30A     -0.474304
      31A     -0.408391    32A     -0.332986    33A     -0.286849

  @DF-RHF Final Energy:  -363.90152874598590

   => Energetics <=

    Nuclear Repulsion Energy =            429.2837123266559729
    One-Electron Energy =               -1342.6295394930475595
    Two-Electron Energy =                 549.4442984204056302
    Total Energy =                       -363.9015287459859564
  Basis Set: (AUG-CC-PVTZ AUX)
    Blend: AUG-CC-PVTZ-RI
    Molecular point group: c1

    Geometry (in Angstrom), charge = 0, multiplicity = 1:

       Center              X                  Y                   Z               Mass
    ------------   -----------------  -----------------  -----------------  -----------------
         N            1.630886161168    -0.004570376858    -0.254561910703    14.003074004430
         C            0.237668461168     0.041511423142    -0.090440110703    12.000000000000
         C           -0.494803838832     1.201369623142    -0.056522910703    12.000000000000
         C           -0.494807838832    -1.210503376858    -0.056540910703    12.000000000000
         C            2.328187161168     1.218705623142     0.115399089297    12.000000000000
         C            2.328185161168    -1.227838376858     0.115434089297    12.000000000000
         C           -1.885675838832     1.194222623142     0.037519089297    12.000000000000
         C           -1.885679838832    -1.203352376858     0.037501089297    12.000000000000
         C           -2.596938838832    -0.004564376858     0.082437089297    12.000000000000
         H            0.014601161168     2.157799623142    -0.082298910703     1.007825032230
         H            0.014594161168    -2.166934376858    -0.082335910703     1.007825032230
         H            2.032121161168     2.039544623142    -0.541394910703     1.007825032230
         H            3.399292161168     1.061753623142    -0.023270910703     1.007825032230
         H            2.147230161168     1.521468623142     1.158766089297     1.007825032230
         H            3.399292161168    -1.070886376858    -0.023225910703     1.007825032230
         H            2.147215161168    -1.530578376858     1.158805089297     1.007825032230
         H            2.032129161168    -2.048693376858    -0.541345910703     1.007825032230
         H           -2.414430838832     2.144247623142     0.076936089297     1.007825032230
         H           -2.414437838832    -2.153376376858     0.076903089297     1.007825032230
         H           -3.680886838832    -0.004562376858     0.159213089297     1.007825032230

  Basis Set: AUG-CC-PVTZ
    Blend: AUG-CC-PVTZ
  Basis Set: (AUG-CC-PVTZ AUX)
    Blend: AUG-CC-PVTZ-JKFIT
	 Reference Energy          =    -363.9015287459858996 [Eh]
	 Singles Energy            =      -0.0000000000000000 [Eh]
	 Same-Spin Energy          =      -0.4021728583689917 [Eh]
	 Opposite-Spin Energy      =      -1.3068267946798822 [Eh]
	 Correlation Energy        =      -1.7089996530488740 [Eh]
	 Total Energy              =    -365.6105283990347630 [Eh]

	 ================> DF-SCS-MP2 Energies <==================
	-----------------------------------------------------------
	 SCS Same-Spin Scale       =       0.3333333333333333 [-]
	 SCS Opposite-Spin Scale   =       1.2000000000000000 [-]
	 SCS Same-Spin Energy      =      -0.1340576194563306 [Eh]
	 SCS Opposite-Spin Energy  =      -1.5681921536158585 [Eh]
	 SCS Correlation Energy    =      -1.7022497730721891 [Eh]
	 SCS Total Energy          =    -365.6037785190580962 [Eh]
	-----------------------------------------------------------

  Dipole Moment: [D]
     X:     1.5665      Y:    -0.0279      Z:     0.4387     Total:     1.6270

*** Psi4 exiting successfully. Buy a developer a beer!
