                               Psi4 1.4a3.dev225

  ==> Input File <==

--------------------------------------------------------------------------
#psi4
#
memory 32 gb

molecule  {
0 1
  N        1.5809750    -0.0000040    -0.2631210
  C        0.1652690    -0.0000010    -0.1133347
  C       -0.5447150     1.2059360    -0.0650820
  C       -0.5447190    -1.2059370    -0.0651000
  C        2.2782760     1.2232720     0.1068400
  C        2.2782740    -1.2232720     0.1068750
  C       -1.9355870     1.1987890     0.0289600
  C       -1.9355910    -1.1987860     0.0289420
  C       -2.6468500     0.0000020     0.0738780
  H       -0.0353100     2.1623660    -0.0908580
  H       -0.0353170    -2.1623680    -0.0908950
  H        1.9822100     2.0441110    -0.5499540
  H        3.3493810     1.0663200    -0.0318300
  H        2.0973190     1.5260350     1.1502070
  H        3.3493810    -1.0663200    -0.0317850
  H        2.0973040    -1.5260120     1.1502460
  H        1.9822180    -2.0441270    -0.5499050
  H       -2.4643420     2.1488140     0.0683770
  H       -2.4643490    -2.1488100     0.0683440
  H       -3.7307980     0.0000040     0.1506540
units angstrom
no_reorient  #important for SAPT in psi4, default
symmetry c1  #important for SAPT in psi4, default
}

set PROPERTIES_ORIGIN ["COM"]
properties('MP2/aug-cc-pvtz', properties = ['dipole'])
--------------------------------------------------------------------------

    Molecular point group: c1
  Charge       = 0
  Multiplicity = 1
  Basis Set: AUG-CC-PVTZ
    Blend: AUG-CC-PVTZ
  Basis Set: (AUG-CC-PVTZ AUX)
    Blend: AUG-CC-PVTZ-JKFIT

    Orbital Energies [Eh]
    ---------------------

    Doubly Occupied:

       1A    -15.566992     2A    -11.274604     3A    -11.252902
       4A    -11.252884     5A    -11.233624     6A    -11.233583
       7A    -11.222221     8A    -11.222203     9A    -11.219579
      10A     -1.247079    11A     -1.133472    12A     -1.012491
      13A     -1.005256    14A     -0.961921    15A     -0.884170
      16A     -0.818778    17A     -0.784237    18A     -0.708118
      19A     -0.645503    20A     -0.642727    21A     -0.633194
      22A     -0.617887    23A     -0.585885    24A     -0.574185
      25A     -0.552122    26A     -0.540163    27A     -0.525367
      28A     -0.506612    29A     -0.495358    30A     -0.479528
      31A     -0.404916    32A     -0.333557    33A     -0.289298

  @DF-RHF Final Energy:  -363.90415315145219

   => Energetics <=

    Nuclear Repulsion Energy =            429.2748314195513331
    One-Electron Energy =               -1342.6371341555088748
    Two-Electron Energy =                 549.4581495845053496
    Total Energy =                       -363.9041531514521921
  Basis Set: (AUG-CC-PVTZ AUX)
    Blend: AUG-CC-PVTZ-RI
    Molecular point group: c1

    Geometry (in Angstrom), charge = 0, multiplicity = 1:

       Center              X                  Y                   Z               Mass
    ------------   -----------------  -----------------  -----------------  -----------------
         N            1.633114763825    -0.000003942930    -0.253141254923    14.003074004430
         C            0.217408763825    -0.000000942930    -0.103354954923    12.000000000000
         C           -0.492575236175     1.205936057070    -0.055102254923    12.000000000000
         C           -0.492579236175    -1.205936942930    -0.055120254923    12.000000000000
         C            2.330415763825     1.223272057070     0.116819745077    12.000000000000
         C            2.330413763825    -1.223271942930     0.116854745077    12.000000000000
         C           -1.883447236175     1.198789057070     0.038939745077    12.000000000000
         C           -1.883451236175    -1.198785942930     0.038921745077    12.000000000000
         C           -2.594710236175     0.000002057070     0.083857745077    12.000000000000
         H            0.016829763825     2.162366057070    -0.080878254923     1.007825032230
         H            0.016822763825    -2.162367942930    -0.080915254923     1.007825032230
         H            2.034349763825     2.044111057070    -0.539974254923     1.007825032230
         H            3.401520763825     1.066320057070    -0.021850254923     1.007825032230
         H            2.149458763825     1.526035057070     1.160186745077     1.007825032230
         H            3.401520763825    -1.066319942930    -0.021805254923     1.007825032230
         H            2.149443763825    -1.526011942930     1.160225745077     1.007825032230
         H            2.034357763825    -2.044126942930    -0.539925254923     1.007825032230
         H           -2.412202236175     2.148814057070     0.078356745077     1.007825032230
         H           -2.412209236175    -2.148809942930     0.078323745077     1.007825032230
         H           -3.678658236175     0.000004057070     0.160633745077     1.007825032230

  Basis Set: AUG-CC-PVTZ
    Blend: AUG-CC-PVTZ
  Basis Set: (AUG-CC-PVTZ AUX)
    Blend: AUG-CC-PVTZ-JKFIT
	 Reference Energy          =    -363.9041531514521921 [Eh]
	 Singles Energy            =      -0.0000000000000000 [Eh]
	 Same-Spin Energy          =      -0.4020584854296019 [Eh]
	 Opposite-Spin Energy      =      -1.3064699107330955 [Eh]
	 Correlation Energy        =      -1.7085283961626974 [Eh]
	 Total Energy              =    -365.6126815476148977 [Eh]

	 ================> DF-SCS-MP2 Energies <==================
	-----------------------------------------------------------
	 SCS Same-Spin Scale       =       0.3333333333333333 [-]
	 SCS Opposite-Spin Scale   =       1.2000000000000000 [-]
	 SCS Same-Spin Energy      =      -0.1340194951432006 [Eh]
	 SCS Opposite-Spin Energy  =      -1.5677638928797146 [Eh]
	 SCS Correlation Energy    =      -1.7017833880229152 [Eh]
	 SCS Total Energy          =    -365.6059365394751239 [Eh]
	-----------------------------------------------------------

  Dipole Moment: [D]
     X:     1.4274      Y:     0.0000      Z:     0.4441     Total:     1.4949

*** Psi4 exiting successfully. Buy a developer a beer!
