                               Psi4 1.3.2 release

  ==> Input File <==

--------------------------------------------------------------------------
#psi4
#
memory 32 gb

molecule  {
0 1
  N        1.5809750    -0.0000040    -0.2631210
  C        0.1980429     0.1380109    -0.0667391
  C       -0.5447150     1.2059360    -0.0650820
  C       -0.5447190    -1.2059370    -0.0651000
  C        2.2782760     1.2232720     0.1068400
  C        2.2782740    -1.2232720     0.1068750
  C       -1.9355870     1.1987890     0.0289600
  C       -1.9355910    -1.1987860     0.0289420
  C       -2.6468500     0.0000020     0.0738780
  H       -0.0353100     2.1623660    -0.0908580
  H       -0.0353170    -2.1623680    -0.0908950
  H        1.9822100     2.0441110    -0.5499540
  H        3.3493810     1.0663200    -0.0318300
  H        2.0973190     1.5260350     1.1502070
  H        3.3493810    -1.0663200    -0.0317850
  H        2.0973040    -1.5260120     1.1502460
  H        1.9822180    -2.0441270    -0.5499050
  H       -2.4643420     2.1488140     0.0683770
  H       -2.4643490    -2.1488100     0.0683440
  H       -3.7307980     0.0000040     0.1506540
units angstrom
no_reorient  #important for SAPT in psi4, default
symmetry c1  #important for SAPT in psi4, default
}

set PROPERTIES_ORIGIN ["COM"]
properties('MP2/aug-cc-pvtz', properties = ['dipole'])
--------------------------------------------------------------------------

    Molecular point group: c1
  Charge       = 0
  Multiplicity = 1
  Basis Set: AUG-CC-PVTZ
    Blend: AUG-CC-PVTZ
  Basis Set: (AUG-CC-PVTZ AUX)
    Blend: AUG-CC-PVTZ-JKFIT

    Orbital Energies [Eh]
    ---------------------

    Doubly Occupied:

       1A    -15.569386     2A    -11.273632     3A    -11.257547
       4A    -11.250739     5A    -11.234225     6A    -11.233403
       7A    -11.230702     8A    -11.219973     9A    -11.209229
      10A     -1.253912    11A     -1.132659    12A     -1.024972
      13A     -0.992149    14A     -0.964043    15A     -0.888177
      16A     -0.822335    17A     -0.777111    18A     -0.707926
      19A     -0.653405    20A     -0.641166    21A     -0.635627
      22A     -0.616532    23A     -0.581075    24A     -0.576171
      25A     -0.554887    26A     -0.538508    27A     -0.526627
      28A     -0.509300    29A     -0.497939    30A     -0.460076
      31A     -0.409537    32A     -0.335840    33A     -0.286806

  @DF-RHF Final Energy:  -363.87947870745052

   => Energetics <=

    Nuclear Repulsion Energy =            429.3384978410652479
    One-Electron Energy =               -1342.7047182534595322
    Two-Electron Energy =                 549.4867417049438245
    Total Energy =                       -363.8794787074505166
  Basis Set: (AUG-CC-PVTZ AUX)
    Blend: AUG-CC-PVTZ-RI
    Molecular point group: c1

    Geometry (in Angstrom), charge = 0, multiplicity = 1:

       Center              X                  Y                   Z               Mass
    ------------   -----------------  -----------------  -----------------  -----------------
         N            1.629866852661    -0.013680996644    -0.257758904010    14.003074004430
         C            0.246934752661     0.124333903356    -0.061377004010    12.000000000000
         C           -0.495823147339     1.192259003356    -0.059719904010    12.000000000000
         C           -0.495827147339    -1.219613996644    -0.059737904010    12.000000000000
         C            2.327167852661     1.209595003356     0.112202095990    12.000000000000
         C            2.327165852661    -1.236948996644     0.112237095990    12.000000000000
         C           -1.886695147339     1.185112003356     0.034322095990    12.000000000000
         C           -1.886699147339    -1.212462996644     0.034304095990    12.000000000000
         C           -2.597958147339    -0.013674996644     0.079240095990    12.000000000000
         H            0.013581852661     2.148689003356    -0.085495904010     1.007825032230
         H            0.013574852661    -2.176044996644    -0.085532904010     1.007825032230
         H            2.031101852661     2.030434003356    -0.544591904010     1.007825032230
         H            3.398272852661     1.052643003356    -0.026467904010     1.007825032230
         H            2.146210852661     1.512358003356     1.155569095990     1.007825032230
         H            3.398272852661    -1.079996996644    -0.026422904010     1.007825032230
         H            2.146195852661    -1.539688996644     1.155608095990     1.007825032230
         H            2.031109852661    -2.057803996644    -0.544542904010     1.007825032230
         H           -2.415450147339     2.135137003356     0.073739095990     1.007825032230
         H           -2.415457147339    -2.162486996644     0.073706095990     1.007825032230
         H           -3.681906147339    -0.013672996644     0.156016095990     1.007825032230

  Basis Set: AUG-CC-PVTZ
    Blend: AUG-CC-PVTZ
  Basis Set: (AUG-CC-PVTZ AUX)
    Blend: AUG-CC-PVTZ-JKFIT
	 Reference Energy          =    -363.8794787074505166 [Eh]
	 Singles Energy            =      -0.0000000000000000 [Eh]
	 Same-Spin Energy          =      -0.4019079453935095 [Eh]
	 Opposite-Spin Energy      =      -1.3079944242112789 [Eh]
	 Correlation Energy        =      -1.7099023696047884 [Eh]
	 Total Energy              =    -365.5893810770552932 [Eh]

	 ================> DF-SCS-MP2 Energies <==================
	-----------------------------------------------------------
	 SCS Same-Spin Scale       =       0.3333333333333333 [-]
	 SCS Opposite-Spin Scale   =       1.2000000000000000 [-]
	 SCS Same-Spin Energy      =      -0.1339693151311698 [Eh]
	 SCS Opposite-Spin Energy  =      -1.5695933090535346 [Eh]
	 SCS Correlation Energy    =      -1.7035626241847044 [Eh]
	 SCS Total Energy          =    -365.5830413316352292 [Eh]
	-----------------------------------------------------------

  Dipole Moment: [D]
     X:     1.5341      Y:    -0.0747      Z:     0.4510     Total:     1.6008

*** Psi4 exiting successfully. Buy a developer a beer!
