                               Psi4 1.3.2 release

  ==> Input File <==

--------------------------------------------------------------------------
#psi4
#
memory 32 gb

molecule  {
0 1
  N        1.5809750    -0.0000040    -0.2631210
  C        0.3840479    -0.0000014    -0.1364822
  C       -0.5447150     1.2059360    -0.0650820
  C       -0.5447190    -1.2059370    -0.0651000
  C        2.2782760     1.2232720     0.1068400
  C        2.2782740    -1.2232720     0.1068750
  C       -1.9355870     1.1987890     0.0289600
  C       -1.9355910    -1.1987860     0.0289420
  C       -2.6468500     0.0000020     0.0738780
  H       -0.0353100     2.1623660    -0.0908580
  H       -0.0353170    -2.1623680    -0.0908950
  H        1.9822100     2.0441110    -0.5499540
  H        3.3493810     1.0663200    -0.0318300
  H        2.0973190     1.5260350     1.1502070
  H        3.3493810    -1.0663200    -0.0317850
  H        2.0973040    -1.5260120     1.1502460
  H        1.9822180    -2.0441270    -0.5499050
  H       -2.4643420     2.1488140     0.0683770
  H       -2.4643490    -2.1488100     0.0683440
  H       -3.7307980     0.0000040     0.1506540
units angstrom
no_reorient  #important for SAPT in psi4, default
symmetry c1  #important for SAPT in psi4, default
}

set PROPERTIES_ORIGIN ["COM"]
properties('MP2/aug-cc-pvtz', properties = ['dipole'])
--------------------------------------------------------------------------

    Molecular point group: c1
  Charge       = 0
  Multiplicity = 1
  Basis Set: AUG-CC-PVTZ
    Blend: AUG-CC-PVTZ
  Basis Set: (AUG-CC-PVTZ AUX)
    Blend: AUG-CC-PVTZ-JKFIT

    Orbital Energies [Eh]
    ---------------------

    Doubly Occupied:

       1A    -15.595825     2A    -11.289326     3A    -11.273354
       4A    -11.273336     5A    -11.225704     6A    -11.225689
       7A    -11.218263     8A    -11.218259     9A    -11.199664
      10A     -1.338748    11A     -1.106435    12A     -1.006517
      13A     -1.005189    14A     -0.976155    15A     -0.917690
      16A     -0.796311    17A     -0.775822    18A     -0.715040
      19A     -0.673064    20A     -0.667133    21A     -0.654736
      22A     -0.611224    23A     -0.580813    24A     -0.571136
      25A     -0.564340    26A     -0.549967    27A     -0.539060
      28A     -0.502739    29A     -0.495305    30A     -0.437482
      31A     -0.433317    32A     -0.322853    33A     -0.256451

  @DF-RHF Final Energy:  -363.84198209805140

   => Energetics <=

    Nuclear Repulsion Energy =            429.7199063085579951
    One-Electron Energy =               -1343.0898803106720152
    Two-Electron Energy =                 549.5279919040626737
    Total Energy =                       -363.8419820980514032
  Basis Set: (AUG-CC-PVTZ AUX)
    Blend: AUG-CC-PVTZ-RI
    Molecular point group: c1

    Geometry (in Angstrom), charge = 0, multiplicity = 1:

       Center              X                  Y                   Z               Mass
    ------------   -----------------  -----------------  -----------------  -----------------
         N            1.611433656856    -0.000003903290    -0.250847325190    14.003074004430
         C            0.414506556856    -0.000001303290    -0.124208525190    12.000000000000
         C           -0.514256343144     1.205936096710    -0.052808325190    12.000000000000
         C           -0.514260343144    -1.205936903290    -0.052826325190    12.000000000000
         C            2.308734656856     1.223272096710     0.119113674810    12.000000000000
         C            2.308732656856    -1.223271903290     0.119148674810    12.000000000000
         C           -1.905128343144     1.198789096710     0.041233674810    12.000000000000
         C           -1.905132343144    -1.198785903290     0.041215674810    12.000000000000
         C           -2.616391343144     0.000002096710     0.086151674810    12.000000000000
         H           -0.004851343144     2.162366096710    -0.078584325190     1.007825032230
         H           -0.004858343144    -2.162367903290    -0.078621325190     1.007825032230
         H            2.012668656856     2.044111096710    -0.537680325190     1.007825032230
         H            3.379839656856     1.066320096710    -0.019556325190     1.007825032230
         H            2.127777656856     1.526035096710     1.162480674810     1.007825032230
         H            3.379839656856    -1.066319903290    -0.019511325190     1.007825032230
         H            2.127762656856    -1.526011903290     1.162519674810     1.007825032230
         H            2.012676656856    -2.044126903290    -0.537631325190     1.007825032230
         H           -2.433883343144     2.148814096710     0.080650674810     1.007825032230
         H           -2.433890343144    -2.148809903290     0.080617674810     1.007825032230
         H           -3.700339343144     0.000004096710     0.162927674810     1.007825032230

  Basis Set: AUG-CC-PVTZ
    Blend: AUG-CC-PVTZ
  Basis Set: (AUG-CC-PVTZ AUX)
    Blend: AUG-CC-PVTZ-JKFIT
	 Reference Energy          =    -363.8419820980514032 [Eh]
	 Singles Energy            =      -0.0000000000000000 [Eh]
	 Same-Spin Energy          =      -0.4046856835741386 [Eh]
	 Opposite-Spin Energy      =      -1.3107789885688410 [Eh]
	 Correlation Energy        =      -1.7154646721429796 [Eh]
	 Total Energy              =    -365.5574467701943604 [Eh]

	 ================> DF-SCS-MP2 Energies <==================
	-----------------------------------------------------------
	 SCS Same-Spin Scale       =       0.3333333333333333 [-]
	 SCS Opposite-Spin Scale   =       1.2000000000000000 [-]
	 SCS Same-Spin Energy      =      -0.1348952278580462 [Eh]
	 SCS Opposite-Spin Energy  =      -1.5729347862826091 [Eh]
	 SCS Correlation Energy    =      -1.7078300141406553 [Eh]
	 SCS Total Energy          =    -365.5498121121920576 [Eh]
	-----------------------------------------------------------

  Dipole Moment: [D]
     X:     3.2700      Y:    -0.0000      Z:     0.3342     Total:     3.2871

*** Psi4 exiting successfully. Buy a developer a beer!
