                               Psi4 1.3.2 release

  ==> Input File <==

--------------------------------------------------------------------------
#psi4
#
memory 32 gb

molecule  {
0 1
  N        1.5809750    -0.0000040    -0.2631210
  C        0.1850623    -0.0921025    -0.1488382
  C       -0.5447150     1.2059360    -0.0650820
  C       -0.5447190    -1.2059370    -0.0651000
  C        2.2782760     1.2232720     0.1068400
  C        2.2782740    -1.2232720     0.1068750
  C       -1.9355870     1.1987890     0.0289600
  C       -1.9355910    -1.1987860     0.0289420
  C       -2.6468500     0.0000020     0.0738780
  H       -0.0353100     2.1623660    -0.0908580
  H       -0.0353170    -2.1623680    -0.0908950
  H        1.9822100     2.0441110    -0.5499540
  H        3.3493810     1.0663200    -0.0318300
  H        2.0973190     1.5260350     1.1502070
  H        3.3493810    -1.0663200    -0.0317850
  H        2.0973040    -1.5260120     1.1502460
  H        1.9822180    -2.0441270    -0.5499050
  H       -2.4643420     2.1488140     0.0683770
  H       -2.4643490    -2.1488100     0.0683440
  H       -3.7307980     0.0000040     0.1506540
units angstrom
no_reorient  #important for SAPT in psi4, default
symmetry c1  #important for SAPT in psi4, default
}

set PROPERTIES_ORIGIN ["COM"]
properties('MP2/aug-cc-pvtz', properties = ['dipole'])
--------------------------------------------------------------------------

    Molecular point group: c1
  Charge       = 0
  Multiplicity = 1
  Basis Set: AUG-CC-PVTZ
    Blend: AUG-CC-PVTZ
  Basis Set: (AUG-CC-PVTZ AUX)
    Blend: AUG-CC-PVTZ-JKFIT

    Orbital Energies [Eh]
    ---------------------

    Doubly Occupied:

       1A    -15.568873     2A    -11.275471     3A    -11.257039
       4A    -11.252154     5A    -11.233924     6A    -11.231835
       7A    -11.229597     8A    -11.218672     9A    -11.213032
      10A     -1.252585    11A     -1.131888    12A     -1.019482
      13A     -0.996846    14A     -0.963634    15A     -0.888441
      16A     -0.819675    17A     -0.780218    18A     -0.708105
      19A     -0.650193    20A     -0.641693    21A     -0.636110
      22A     -0.617175    23A     -0.582409    24A     -0.575149
      25A     -0.554041    26A     -0.540691    27A     -0.526541
      28A     -0.507253    29A     -0.498351    30A     -0.469154
      31A     -0.407849    32A     -0.334039    33A     -0.286086

  @DF-RHF Final Energy:  -363.89369087143893

   => Energetics <=

    Nuclear Repulsion Energy =            429.2473683572317213
    One-Electron Energy =               -1342.5457074663950152
    Two-Electron Energy =                 549.4046482377243592
    Total Energy =                       -363.8936908714389347
  Basis Set: (AUG-CC-PVTZ AUX)
    Blend: AUG-CC-PVTZ-RI
    Molecular point group: c1

    Geometry (in Angstrom), charge = 0, multiplicity = 1:

       Center              X                  Y                   Z               Mass
    ------------   -----------------  -----------------  -----------------  -----------------
         N            1.631153237121     0.009123365387    -0.249622838927    14.003074004430
         C            0.235240537121    -0.082975134613    -0.135340038927    12.000000000000
         C           -0.494536762879     1.215063365387    -0.051583838927    12.000000000000
         C           -0.494540762879    -1.196809634613    -0.051601838927    12.000000000000
         C            2.328454237121     1.232399365387     0.120338161073    12.000000000000
         C            2.328452237121    -1.214144634613     0.120373161073    12.000000000000
         C           -1.885408762879     1.207916365387     0.042458161073    12.000000000000
         C           -1.885412762879    -1.189658634613     0.042440161073    12.000000000000
         C           -2.596671762879     0.009129365387     0.087376161073    12.000000000000
         H            0.014868237121     2.171493365387    -0.077359838927     1.007825032230
         H            0.014861237121    -2.153240634613    -0.077396838927     1.007825032230
         H            2.032388237121     2.053238365387    -0.536455838927     1.007825032230
         H            3.399559237121     1.075447365387    -0.018331838927     1.007825032230
         H            2.147497237121     1.535162365387     1.163705161073     1.007825032230
         H            3.399559237121    -1.057192634613    -0.018286838927     1.007825032230
         H            2.147482237121    -1.516884634613     1.163744161073     1.007825032230
         H            2.032396237121    -2.034999634613    -0.536406838927     1.007825032230
         H           -2.414163762879     2.157941365387     0.081875161073     1.007825032230
         H           -2.414170762879    -2.139682634613     0.081842161073     1.007825032230
         H           -3.680619762879     0.009131365387     0.164152161073     1.007825032230

  Basis Set: AUG-CC-PVTZ
    Blend: AUG-CC-PVTZ
  Basis Set: (AUG-CC-PVTZ AUX)
    Blend: AUG-CC-PVTZ-JKFIT
	 Reference Energy          =    -363.8936908714389347 [Eh]
	 Singles Energy            =      -0.0000000000000000 [Eh]
	 Same-Spin Energy          =      -0.4020115210189401 [Eh]
	 Opposite-Spin Energy      =      -1.3071674214066433 [Eh]
	 Correlation Energy        =      -1.7091789424255834 [Eh]
	 Total Energy              =    -365.6028698138645154 [Eh]

	 ================> DF-SCS-MP2 Energies <==================
	-----------------------------------------------------------
	 SCS Same-Spin Scale       =       0.3333333333333333 [-]
	 SCS Opposite-Spin Scale   =       1.2000000000000000 [-]
	 SCS Same-Spin Energy      =      -0.1340038403396467 [Eh]
	 SCS Opposite-Spin Energy  =      -1.5686009056879719 [Eh]
	 SCS Correlation Energy    =      -1.7026047460276186 [Eh]
	 SCS Total Energy          =    -365.5962956174665806 [Eh]
	-----------------------------------------------------------

  Dipole Moment: [D]
     X:     1.5827      Y:     0.0557      Z:     0.4307     Total:     1.6412

*** Psi4 exiting successfully. Buy a developer a beer!
