                               Psi4 1.3.2 release

  ==> Input File <==

--------------------------------------------------------------------------
#psi4
#
memory 32 gb

molecule  {
0 1
  N        1.5809750    -0.0000040    -0.2631210
  C        0.1842593    -0.0460798    -0.1320588
  C       -0.5447150     1.2059360    -0.0650820
  C       -0.5447190    -1.2059370    -0.0651000
  C        2.2782760     1.2232720     0.1068400
  C        2.2782740    -1.2232720     0.1068750
  C       -1.9355870     1.1987890     0.0289600
  C       -1.9355910    -1.1987860     0.0289420
  C       -2.6468500     0.0000020     0.0738780
  H       -0.0353100     2.1623660    -0.0908580
  H       -0.0353170    -2.1623680    -0.0908950
  H        1.9822100     2.0441110    -0.5499540
  H        3.3493810     1.0663200    -0.0318300
  H        2.0973190     1.5260350     1.1502070
  H        3.3493810    -1.0663200    -0.0317850
  H        2.0973040    -1.5260120     1.1502460
  H        1.9822180    -2.0441270    -0.5499050
  H       -2.4643420     2.1488140     0.0683770
  H       -2.4643490    -2.1488100     0.0683440
  H       -3.7307980     0.0000040     0.1506540
units angstrom
no_reorient  #important for SAPT in psi4, default
symmetry c1  #important for SAPT in psi4, default
}

set PROPERTIES_ORIGIN ["COM"]
properties('MP2/aug-cc-pvtz', properties = ['dipole'])
--------------------------------------------------------------------------

    Molecular point group: c1
  Charge       = 0
  Multiplicity = 1
  Basis Set: AUG-CC-PVTZ
    Blend: AUG-CC-PVTZ
  Basis Set: (AUG-CC-PVTZ AUX)
    Blend: AUG-CC-PVTZ-JKFIT

    Orbital Energies [Eh]
    ---------------------

    Doubly Occupied:

       1A    -15.569092     2A    -11.275924     3A    -11.255710
       4A    -11.253276     5A    -11.233480     6A    -11.232381
       7A    -11.226093     8A    -11.218336     9A    -11.217627
      10A     -1.252829    11A     -1.131310    12A     -1.014105
      13A     -1.001378    14A     -0.963565    15A     -0.888167
      16A     -0.817562    17A     -0.782599    18A     -0.708019
      19A     -0.648249    20A     -0.642922    21A     -0.635860
      22A     -0.617288    23A     -0.583022    24A     -0.574732
      25A     -0.553518    26A     -0.541761    27A     -0.526434
      28A     -0.506632    29A     -0.496657    30A     -0.474543
      31A     -0.407859    32A     -0.332989    33A     -0.286432

  @DF-RHF Final Energy:  -363.90180282324638

   => Energetics <=

    Nuclear Repulsion Energy =            429.2530742669543997
    One-Electron Energy =               -1342.5690486137223161
    Two-Electron Energy =                 549.4141715235215315
    Total Energy =                       -363.9018028232463848
  Basis Set: (AUG-CC-PVTZ AUX)
    Blend: AUG-CC-PVTZ-RI
    Molecular point group: c1

    Geometry (in Angstrom), charge = 0, multiplicity = 1:

       Center              X                  Y                   Z               Mass
    ------------   -----------------  -----------------  -----------------  -----------------
         N            1.631232814854     0.004562490999    -0.251285686515    14.003074004430
         C            0.234517114854    -0.041513309001    -0.120223486515    12.000000000000
         C           -0.494457185146     1.210502490999    -0.053246686515    12.000000000000
         C           -0.494461185146    -1.201370509001    -0.053264686515    12.000000000000
         C            2.328533814854     1.227838490999     0.118675313485    12.000000000000
         C            2.328531814854    -1.218705509001     0.118710313485    12.000000000000
         C           -1.885329185146     1.203355490999     0.040795313485    12.000000000000
         C           -1.885333185146    -1.194219509001     0.040777313485    12.000000000000
         C           -2.596592185146     0.004568490999     0.085713313485    12.000000000000
         H            0.014947814854     2.166932490999    -0.079022686515     1.007825032230
         H            0.014940814854    -2.157801509001    -0.079059686515     1.007825032230
         H            2.032467814854     2.048677490999    -0.538118686515     1.007825032230
         H            3.399638814854     1.070886490999    -0.019994686515     1.007825032230
         H            2.147576814854     1.530601490999     1.162042313485     1.007825032230
         H            3.399638814854    -1.061753509001    -0.019949686515     1.007825032230
         H            2.147561814854    -1.521445509001     1.162081313485     1.007825032230
         H            2.032475814854    -2.039560509001    -0.538069686515     1.007825032230
         H           -2.414084185146     2.153380490999     0.080212313485     1.007825032230
         H           -2.414091185146    -2.144243509001     0.080179313485     1.007825032230
         H           -3.680540185146     0.004570490999     0.162489313485     1.007825032230

  Basis Set: AUG-CC-PVTZ
    Blend: AUG-CC-PVTZ
  Basis Set: (AUG-CC-PVTZ AUX)
    Blend: AUG-CC-PVTZ-JKFIT
	 Reference Energy          =    -363.9018028232463848 [Eh]
	 Singles Energy            =      -0.0000000000000000 [Eh]
	 Same-Spin Energy          =      -0.4021496146612489 [Eh]
	 Opposite-Spin Energy      =      -1.3067740496724150 [Eh]
	 Correlation Energy        =      -1.7089236643336638 [Eh]
	 Total Energy              =    -365.6107264875800524 [Eh]

	 ================> DF-SCS-MP2 Energies <==================
	-----------------------------------------------------------
	 SCS Same-Spin Scale       =       0.3333333333333333 [-]
	 SCS Opposite-Spin Scale   =       1.2000000000000000 [-]
	 SCS Same-Spin Energy      =      -0.1340498715537496 [Eh]
	 SCS Opposite-Spin Energy  =      -1.5681288596068979 [Eh]
	 SCS Correlation Energy    =      -1.7021787311606476 [Eh]
	 SCS Total Energy          =    -365.6039815544070279 [Eh]
	-----------------------------------------------------------

  Dipole Moment: [D]
     X:     1.5825      Y:     0.0285      Z:     0.4323     Total:     1.6407

*** Psi4 exiting successfully. Buy a developer a beer!
