                               Psi4 1.4a3.dev225

  ==> Input File <==

--------------------------------------------------------------------------
#psi4
#
memory 32 gb

molecule  {
0 1
  N        1.5809750    -0.0000040    -0.2631210
  C        0.2050470    -0.0000010    -0.1175433
  C       -0.5447150     1.2059360    -0.0650820
  C       -0.5447190    -1.2059370    -0.0651000
  C        2.2782760     1.2232720     0.1068400
  C        2.2782740    -1.2232720     0.1068750
  C       -1.9355870     1.1987890     0.0289600
  C       -1.9355910    -1.1987860     0.0289420
  C       -2.6468500     0.0000020     0.0738780
  H       -0.0353100     2.1623660    -0.0908580
  H       -0.0353170    -2.1623680    -0.0908950
  H        1.9822100     2.0441110    -0.5499540
  H        3.3493810     1.0663200    -0.0318300
  H        2.0973190     1.5260350     1.1502070
  H        3.3493810    -1.0663200    -0.0317850
  H        2.0973040    -1.5260120     1.1502460
  H        1.9822180    -2.0441270    -0.5499050
  H       -2.4643420     2.1488140     0.0683770
  H       -2.4643490    -2.1488100     0.0683440
  H       -3.7307980     0.0000040     0.1506540
units angstrom
no_reorient  #important for SAPT in psi4, default
symmetry c1  #important for SAPT in psi4, default
}

set PROPERTIES_ORIGIN ["COM"]
properties('MP2/aug-cc-pvtz', properties = ['dipole'])
--------------------------------------------------------------------------

    Molecular point group: c1
  Charge       = 0
  Multiplicity = 1
  Basis Set: AUG-CC-PVTZ
    Blend: AUG-CC-PVTZ
  Basis Set: (AUG-CC-PVTZ AUX)
    Blend: AUG-CC-PVTZ-JKFIT

    Orbital Energies [Eh]
    ---------------------

    Doubly Occupied:

       1A    -15.571552     2A    -11.277366     3A    -11.255964
       4A    -11.255945     5A    -11.232322     6A    -11.232286
       7A    -11.221957     8A    -11.221943     9A    -11.216927
      10A     -1.259519    11A     -1.128705    12A     -1.009348
      13A     -1.003347    14A     -0.965241    15A     -0.891863
      16A     -0.814686    17A     -0.782744    18A     -0.707944
      19A     -0.649411    20A     -0.644766    21A     -0.638272
      22A     -0.616627    23A     -0.580618    24A     -0.574988
      25A     -0.554471    26A     -0.544189    27A     -0.527482
      28A     -0.506676    29A     -0.495314    30A     -0.473209
      31A     -0.411239    32A     -0.331672    33A     -0.283985

  @DF-RHF Final Energy:  -363.90367344942069

   => Energetics <=

    Nuclear Repulsion Energy =            429.2637769354892043
    One-Electron Energy =               -1342.5697492761119065
    Two-Electron Energy =                 549.4022988912020082
    Total Energy =                       -363.9036734494206939
  Basis Set: (AUG-CC-PVTZ AUX)
    Blend: AUG-CC-PVTZ-RI
    Molecular point group: c1

    Geometry (in Angstrom), charge = 0, multiplicity = 1:

       Center              X                  Y                   Z               Mass
    ------------   -----------------  -----------------  -----------------  -----------------
         N            1.629172742574    -0.000003942930    -0.252724180393    14.003074004430
         C            0.253244742574    -0.000000942930    -0.107146480393    12.000000000000
         C           -0.496517257426     1.205936057070    -0.054685180393    12.000000000000
         C           -0.496521257426    -1.205936942930    -0.054703180393    12.000000000000
         C            2.326473742574     1.223272057070     0.117236819607    12.000000000000
         C            2.326471742574    -1.223271942930     0.117271819607    12.000000000000
         C           -1.887389257426     1.198789057070     0.039356819607    12.000000000000
         C           -1.887393257426    -1.198785942930     0.039338819607    12.000000000000
         C           -2.598652257426     0.000002057070     0.084274819607    12.000000000000
         H            0.012887742574     2.162366057070    -0.080461180393     1.007825032230
         H            0.012880742574    -2.162367942930    -0.080498180393     1.007825032230
         H            2.030407742574     2.044111057070    -0.539557180393     1.007825032230
         H            3.397578742574     1.066320057070    -0.021433180393     1.007825032230
         H            2.145516742574     1.526035057070     1.160603819607     1.007825032230
         H            3.397578742574    -1.066319942930    -0.021388180393     1.007825032230
         H            2.145501742574    -1.526011942930     1.160642819607     1.007825032230
         H            2.030415742574    -2.044126942930    -0.539508180393     1.007825032230
         H           -2.416144257426     2.148814057070     0.078773819607     1.007825032230
         H           -2.416151257426    -2.148809942930     0.078740819607     1.007825032230
         H           -3.682600257426     0.000004057070     0.161050819607     1.007825032230

  Basis Set: AUG-CC-PVTZ
    Blend: AUG-CC-PVTZ
  Basis Set: (AUG-CC-PVTZ AUX)
    Blend: AUG-CC-PVTZ-JKFIT
	 Reference Energy          =    -363.9036734494206939 [Eh]
	 Singles Energy            =      -0.0000000000000000 [Eh]
	 Same-Spin Energy          =      -0.4023891101203461 [Eh]
	 Opposite-Spin Energy      =      -1.3069064268136625 [Eh]
	 Correlation Energy        =      -1.7092955369340086 [Eh]
	 Total Energy              =    -365.6129689863547014 [Eh]

	 ================> DF-SCS-MP2 Energies <==================
	-----------------------------------------------------------
	 SCS Same-Spin Scale       =       0.3333333333333333 [-]
	 SCS Opposite-Spin Scale   =       1.2000000000000000 [-]
	 SCS Same-Spin Energy      =      -0.1341297033734487 [Eh]
	 SCS Opposite-Spin Energy  =      -1.5682877121763950 [Eh]
	 SCS Correlation Energy    =      -1.7024174155498437 [Eh]
	 SCS Total Energy          =    -365.6060908649705539 [Eh]
	-----------------------------------------------------------

  Dipole Moment: [D]
     X:     1.7306      Y:     0.0000      Z:     0.4253     Total:     1.7821

*** Psi4 exiting successfully. Buy a developer a beer!
