                               Psi4 1.3.2 release

  ==> Input File <==

--------------------------------------------------------------------------
#psi4
#
memory 32 gb

molecule  {
0 1
  N        1.5809750    -0.0000040    -0.2631210
  C        0.1920540     0.0921005    -0.0827593
  C       -0.5447150     1.2059360    -0.0650820
  C       -0.5447190    -1.2059370    -0.0651000
  C        2.2782760     1.2232720     0.1068400
  C        2.2782740    -1.2232720     0.1068750
  C       -1.9355870     1.1987890     0.0289600
  C       -1.9355910    -1.1987860     0.0289420
  C       -2.6468500     0.0000020     0.0738780
  H       -0.0353100     2.1623660    -0.0908580
  H       -0.0353170    -2.1623680    -0.0908950
  H        1.9822100     2.0441110    -0.5499540
  H        3.3493810     1.0663200    -0.0318300
  H        2.0973190     1.5260350     1.1502070
  H        3.3493810    -1.0663200    -0.0317850
  H        2.0973040    -1.5260120     1.1502460
  H        1.9822180    -2.0441270    -0.5499050
  H       -2.4643420     2.1488140     0.0683770
  H       -2.4643490    -2.1488100     0.0683440
  H       -3.7307980     0.0000040     0.1506540
units angstrom
no_reorient  #important for SAPT in psi4, default
symmetry c1  #important for SAPT in psi4, default
}

set PROPERTIES_ORIGIN ["COM"]
properties('MP2/aug-cc-pvtz', properties = ['dipole'])
--------------------------------------------------------------------------

    Molecular point group: c1
  Charge       = 0
  Multiplicity = 1
  Basis Set: AUG-CC-PVTZ
    Blend: AUG-CC-PVTZ
  Basis Set: (AUG-CC-PVTZ AUX)
    Blend: AUG-CC-PVTZ-JKFIT

    Orbital Energies [Eh]
    ---------------------

    Doubly Occupied:

       1A    -15.569344     2A    -11.274717     3A    -11.256527
       4A    -11.251865     5A    -11.233905     6A    -11.231846
       7A    -11.229857     8A    -11.219146     9A    -11.213491
      10A     -1.253583    11A     -1.131790    12A     -1.019347
      13A     -0.996634    14A     -0.963789    15A     -0.888018
      16A     -0.819534    17A     -0.780342    18A     -0.707905
      19A     -0.650821    20A     -0.642025    21A     -0.635539
      22A     -0.616890    23A     -0.582207    24A     -0.575381
      25A     -0.554139    26A     -0.540152    27A     -0.526465
      28A     -0.508065    29A     -0.496768    30A     -0.468527
      31A     -0.408899    32A     -0.334091    33A     -0.286887

  @DF-RHF Final Energy:  -363.89318219679609

   => Energetics <=

    Nuclear Repulsion Energy =            429.3087336318106395
    One-Electron Energy =               -1342.6668452523379074
    Two-Electron Energy =                 549.4649294237311778
    Total Energy =                       -363.8931821967961469
  Basis Set: (AUG-CC-PVTZ AUX)
    Blend: AUG-CC-PVTZ-RI
    Molecular point group: c1

    Geometry (in Angstrom), charge = 0, multiplicity = 1:

       Center              X                  Y                   Z               Mass
    ------------   -----------------  -----------------  -----------------  -----------------
         N            1.630460355881    -0.009131251247    -0.256171293551    14.003074004430
         C            0.241539355881     0.082973248753    -0.075809593551    12.000000000000
         C           -0.495229644119     1.196808748753    -0.058132293551    12.000000000000
         C           -0.495233644119    -1.215064251247    -0.058150293551    12.000000000000
         C            2.327761355881     1.214144748753     0.113789706449    12.000000000000
         C            2.327759355881    -1.232399251247     0.113824706449    12.000000000000
         C           -1.886101644119     1.189661748753     0.035909706449    12.000000000000
         C           -1.886105644119    -1.207913251247     0.035891706449    12.000000000000
         C           -2.597364644119    -0.009125251247     0.080827706449    12.000000000000
         H            0.014175355881     2.153238748753    -0.083908293551     1.007825032230
         H            0.014168355881    -2.171495251247    -0.083945293551     1.007825032230
         H            2.031695355881     2.034983748753    -0.543004293551     1.007825032230
         H            3.398866355881     1.057192748753    -0.024880293551     1.007825032230
         H            2.146804355881     1.516907748753     1.157156706449     1.007825032230
         H            3.398866355881    -1.075447251247    -0.024835293551     1.007825032230
         H            2.146789355881    -1.535139251247     1.157195706449     1.007825032230
         H            2.031703355881    -2.053254251247    -0.542955293551     1.007825032230
         H           -2.414856644119     2.139686748753     0.075326706449     1.007825032230
         H           -2.414863644119    -2.157937251247     0.075293706449     1.007825032230
         H           -3.681312644119    -0.009123251247     0.157603706449     1.007825032230

  Basis Set: AUG-CC-PVTZ
    Blend: AUG-CC-PVTZ
  Basis Set: (AUG-CC-PVTZ AUX)
    Blend: AUG-CC-PVTZ-JKFIT
	 Reference Energy          =    -363.8931821967960900 [Eh]
	 Singles Energy            =      -0.0000000000000000 [Eh]
	 Same-Spin Energy          =      -0.4020581559406595 [Eh]
	 Opposite-Spin Energy      =      -1.3072759477731939 [Eh]
	 Correlation Energy        =      -1.7093341037138534 [Eh]
	 Total Energy              =    -365.6025163005099330 [Eh]

	 ================> DF-SCS-MP2 Energies <==================
	-----------------------------------------------------------
	 SCS Same-Spin Scale       =       0.3333333333333333 [-]
	 SCS Opposite-Spin Scale   =       1.2000000000000000 [-]
	 SCS Same-Spin Energy      =      -0.1340193853135532 [Eh]
	 SCS Opposite-Spin Energy  =      -1.5687311373278325 [Eh]
	 SCS Correlation Energy    =      -1.7027505226413857 [Eh]
	 SCS Total Energy          =    -365.5959327194374850 [Eh]
	-----------------------------------------------------------

  Dipole Moment: [D]
     X:     1.5517      Y:    -0.0534      Z:     0.4440     Total:     1.6148

*** Psi4 exiting successfully. Buy a developer a beer!
