                               Psi4 1.3.2 release

  ==> Input File <==

--------------------------------------------------------------------------
#psi4
#
memory 32 gb

molecule  {
0 1
  N        1.5809750    -0.0000040    -0.2631210
  C        0.2846029    -0.0000012    -0.1259606
  C       -0.5447150     1.2059360    -0.0650820
  C       -0.5447190    -1.2059370    -0.0651000
  C        2.2782760     1.2232720     0.1068400
  C        2.2782740    -1.2232720     0.1068750
  C       -1.9355870     1.1987890     0.0289600
  C       -1.9355910    -1.1987860     0.0289420
  C       -2.6468500     0.0000020     0.0738780
  H       -0.0353100     2.1623660    -0.0908580
  H       -0.0353170    -2.1623680    -0.0908950
  H        1.9822100     2.0441110    -0.5499540
  H        3.3493810     1.0663200    -0.0318300
  H        2.0973190     1.5260350     1.1502070
  H        3.3493810    -1.0663200    -0.0317850
  H        2.0973040    -1.5260120     1.1502460
  H        1.9822180    -2.0441270    -0.5499050
  H       -2.4643420     2.1488140     0.0683770
  H       -2.4643490    -2.1488100     0.0683440
  H       -3.7307980     0.0000040     0.1506540
units angstrom
no_reorient  #important for SAPT in psi4, default
symmetry c1  #important for SAPT in psi4, default
}

set PROPERTIES_ORIGIN ["COM"]
properties('MP2/aug-cc-pvtz', properties = ['dipole'])
--------------------------------------------------------------------------

    Molecular point group: c1
  Charge       = 0
  Multiplicity = 1
  Basis Set: AUG-CC-PVTZ
    Blend: AUG-CC-PVTZ
  Basis Set: (AUG-CC-PVTZ AUX)
    Blend: AUG-CC-PVTZ-JKFIT

    Orbital Energies [Eh]
    ---------------------

    Doubly Occupied:

       1A    -15.581524     2A    -11.283132     3A    -11.262932
       4A    -11.262914     5A    -11.229569     6A    -11.229543
       7A    -11.220893     8A    -11.220885     9A    -11.210370
      10A     -1.289936    11A     -1.118921    12A     -1.004567
      13A     -1.001286    14A     -0.971808    15A     -0.906468
      16A     -0.806409    17A     -0.779436    18A     -0.709627
      19A     -0.656648    20A     -0.652117    21A     -0.649159
      22A     -0.613826    23A     -0.576881    24A     -0.571709
      25A     -0.557162    26A     -0.553841    27A     -0.532535
      28A     -0.506172    29A     -0.493025    30A     -0.457689
      31A     -0.424290    32A     -0.327846    33A     -0.272273

  @DF-RHF Final Energy:  -363.88961970398628

   => Energetics <=

    Nuclear Repulsion Energy =            429.3544131579964755
    One-Electron Energy =               -1342.6172757771203123
    Two-Electron Energy =                 549.3732429151374390
    Total Energy =                       -363.8896197039863409
  Basis Set: (AUG-CC-PVTZ AUX)
    Blend: AUG-CC-PVTZ-RI
    Molecular point group: c1

    Geometry (in Angstrom), charge = 0, multiplicity = 1:

       Center              X                  Y                   Z               Mass
    ------------   -----------------  -----------------  -----------------  -----------------
         N            1.621288709983    -0.000003923110    -0.251890021424    14.003074004430
         C            0.324916609983    -0.000001123110    -0.114729621424    12.000000000000
         C           -0.504401290017     1.205936076890    -0.053851021424    12.000000000000
         C           -0.504405290017    -1.205936923110    -0.053869021424    12.000000000000
         C            2.318589709983     1.223272076890     0.118070978576    12.000000000000
         C            2.318587709983    -1.223271923110     0.118105978576    12.000000000000
         C           -1.895273290017     1.198789076890     0.040190978576    12.000000000000
         C           -1.895277290017    -1.198785923110     0.040172978576    12.000000000000
         C           -2.606536290017     0.000002076890     0.085108978576    12.000000000000
         H            0.005003709983     2.162366076890    -0.079627021424     1.007825032230
         H            0.004996709983    -2.162367923110    -0.079664021424     1.007825032230
         H            2.022523709983     2.044111076890    -0.538723021424     1.007825032230
         H            3.389694709983     1.066320076890    -0.020599021424     1.007825032230
         H            2.137632709983     1.526035076890     1.161437978576     1.007825032230
         H            3.389694709983    -1.066319923110    -0.020554021424     1.007825032230
         H            2.137617709983    -1.526011923110     1.161476978576     1.007825032230
         H            2.022531709983    -2.044126923110    -0.538674021424     1.007825032230
         H           -2.424028290017     2.148814076890     0.079607978576     1.007825032230
         H           -2.424035290017    -2.148809923110     0.079574978576     1.007825032230
         H           -3.690484290017     0.000004076890     0.161884978576     1.007825032230

  Basis Set: AUG-CC-PVTZ
    Blend: AUG-CC-PVTZ
  Basis Set: (AUG-CC-PVTZ AUX)
    Blend: AUG-CC-PVTZ-JKFIT
	 Reference Energy          =    -363.8896197039862841 [Eh]
	 Singles Energy            =      -0.0000000000000000 [Eh]
	 Same-Spin Energy          =      -0.4033378493791264 [Eh]
	 Opposite-Spin Energy      =      -1.3083853723367560 [Eh]
	 Correlation Energy        =      -1.7117232217158824 [Eh]
	 Total Energy              =    -365.6013429257021699 [Eh]

	 ================> DF-SCS-MP2 Energies <==================
	-----------------------------------------------------------
	 SCS Same-Spin Scale       =       0.3333333333333333 [-]
	 SCS Opposite-Spin Scale   =       1.2000000000000000 [-]
	 SCS Same-Spin Energy      =      -0.1344459497930421 [Eh]
	 SCS Opposite-Spin Energy  =      -1.5700624468041071 [Eh]
	 SCS Correlation Energy    =      -1.7045083965971493 [Eh]
	 SCS Total Energy          =    -365.5941281005834185 [Eh]
	-----------------------------------------------------------

  Dipole Moment: [D]
     X:     2.3820      Y:    -0.0000      Z:     0.3858     Total:     2.4130

*** Psi4 exiting successfully. Buy a developer a beer!
