                               Psi4 1.3.2 release

  ==> Input File <==

--------------------------------------------------------------------------
#psi4
#
memory 32 gb

molecule  {
0 1
  N        1.5809750    -0.0000040    -0.2631210
  C       -0.0137319    -0.0000006    -0.0943958
  C       -0.5447150     1.2059360    -0.0650820
  C       -0.5447190    -1.2059370    -0.0651000
  C        2.2782760     1.2232720     0.1068400
  C        2.2782740    -1.2232720     0.1068750
  C       -1.9355870     1.1987890     0.0289600
  C       -1.9355910    -1.1987860     0.0289420
  C       -2.6468500     0.0000020     0.0738780
  H       -0.0353100     2.1623660    -0.0908580
  H       -0.0353170    -2.1623680    -0.0908950
  H        1.9822100     2.0441110    -0.5499540
  H        3.3493810     1.0663200    -0.0318300
  H        2.0973190     1.5260350     1.1502070
  H        3.3493810    -1.0663200    -0.0317850
  H        2.0973040    -1.5260120     1.1502460
  H        1.9822180    -2.0441270    -0.5499050
  H       -2.4643420     2.1488140     0.0683770
  H       -2.4643490    -2.1488100     0.0683440
  H       -3.7307980     0.0000040     0.1506540
units angstrom
no_reorient  #important for SAPT in psi4, default
symmetry c1  #important for SAPT in psi4, default
}

set PROPERTIES_ORIGIN ["COM"]
properties('MP2/aug-cc-pvtz', properties = ['dipole'])
--------------------------------------------------------------------------

    Molecular point group: c1
  Charge       = 0
  Multiplicity = 1
  Basis Set: AUG-CC-PVTZ
    Blend: AUG-CC-PVTZ
  Basis Set: (AUG-CC-PVTZ AUX)
    Blend: AUG-CC-PVTZ-JKFIT

    Orbital Energies [Eh]
    ---------------------

    Doubly Occupied:

       1A    -15.547384     2A    -11.266540     3A    -11.241275
       4A    -11.241257     5A    -11.239780     6A    -11.239727
       7A    -11.228010     8A    -11.223134     9A    -11.223086
      10A     -1.212097    11A     -1.151339    12A     -1.030947
      13A     -1.014451    14A     -0.948541    15A     -0.854366
      16A     -0.836397    17A     -0.788882    18A     -0.713768
      19A     -0.648997    20A     -0.631778    21A     -0.618534
      22A     -0.614828    23A     -0.605859    24A     -0.567380
      25A     -0.541400    26A     -0.534270    27A     -0.521370
      28A     -0.520959    29A     -0.495317    30A     -0.462262
      31A     -0.381582    32A     -0.342603    33A     -0.306567

  @DF-RHF Final Energy:  -363.86285821204342

   => Energetics <=

    Nuclear Repulsion Energy =            429.6788849905290704
    One-Electron Energy =               -1343.4941172322871807
    Two-Electron Energy =                 549.9523740297147469
    Total Energy =                       -363.8628582120434203
  Basis Set: (AUG-CC-PVTZ AUX)
    Blend: AUG-CC-PVTZ-RI
    Molecular point group: c1

    Geometry (in Angstrom), charge = 0, multiplicity = 1:

       Center              X                  Y                   Z               Mass
    ------------   -----------------  -----------------  -----------------  -----------------
         N            1.650853849543    -0.000003982570    -0.255018110126    14.003074004430
         C            0.056146949543    -0.000000582570    -0.086292910126    12.000000000000
         C           -0.474836150457     1.205936017430    -0.056979110126    12.000000000000
         C           -0.474840150457    -1.205936982570    -0.056997110126    12.000000000000
         C            2.348154849543     1.223272017430     0.114942889874    12.000000000000
         C            2.348152849543    -1.223271982570     0.114977889874    12.000000000000
         C           -1.865708150457     1.198789017430     0.037062889874    12.000000000000
         C           -1.865712150457    -1.198785982570     0.037044889874    12.000000000000
         C           -2.576971150457     0.000002017430     0.081980889874    12.000000000000
         H            0.034568849543     2.162366017430    -0.082755110126     1.007825032230
         H            0.034561849543    -2.162367982570    -0.082792110126     1.007825032230
         H            2.052088849543     2.044111017430    -0.541851110126     1.007825032230
         H            3.419259849543     1.066320017430    -0.023727110126     1.007825032230
         H            2.167197849543     1.526035017430     1.158309889874     1.007825032230
         H            3.419259849543    -1.066319982570    -0.023682110126     1.007825032230
         H            2.167182849543    -1.526011982570     1.158348889874     1.007825032230
         H            2.052096849543    -2.044126982570    -0.541802110126     1.007825032230
         H           -2.394463150457     2.148814017430     0.076479889874     1.007825032230
         H           -2.394470150457    -2.148809982570     0.076446889874     1.007825032230
         H           -3.660919150457     0.000004017430     0.158756889874     1.007825032230

  Basis Set: AUG-CC-PVTZ
    Blend: AUG-CC-PVTZ
  Basis Set: (AUG-CC-PVTZ AUX)
    Blend: AUG-CC-PVTZ-JKFIT
	 Reference Energy          =    -363.8628582120434203 [Eh]
	 Singles Energy            =      -0.0000000000000000 [Eh]
	 Same-Spin Energy          =      -0.4023911088014200 [Eh]
	 Opposite-Spin Energy      =      -1.3078330722496903 [Eh]
	 Correlation Energy        =      -1.7102241810511103 [Eh]
	 Total Energy              =    -365.5730823930945235 [Eh]

	 ================> DF-SCS-MP2 Energies <==================
	-----------------------------------------------------------
	 SCS Same-Spin Scale       =       0.3333333333333333 [-]
	 SCS Opposite-Spin Scale   =       1.2000000000000000 [-]
	 SCS Same-Spin Energy      =      -0.1341303696004733 [Eh]
	 SCS Opposite-Spin Energy  =      -1.5693996866996283 [Eh]
	 SCS Correlation Energy    =      -1.7035300563001017 [Eh]
	 SCS Total Energy          =    -365.5663882683435304 [Eh]
	-----------------------------------------------------------

  Dipole Moment: [D]
     X:     0.2423      Y:     0.0000      Z:     0.5180     Total:     0.5719

*** Psi4 exiting successfully. Buy a developer a beer!
