                               Psi4 1.3.2 release

  ==> Input File <==

--------------------------------------------------------------------------
#psi4
#
memory 32 gb

molecule  {
0 1
  N        1.5809750    -0.0000040    -0.2631210
  C        0.1862452     0.0230419    -0.1071953
  C       -0.5447150     1.2059360    -0.0650820
  C       -0.5447190    -1.2059370    -0.0651000
  C        2.2782760     1.2232720     0.1068400
  C        2.2782740    -1.2232720     0.1068750
  C       -1.9355870     1.1987890     0.0289600
  C       -1.9355910    -1.1987860     0.0289420
  C       -2.6468500     0.0000020     0.0738780
  H       -0.0353100     2.1623660    -0.0908580
  H       -0.0353170    -2.1623680    -0.0908950
  H        1.9822100     2.0441110    -0.5499540
  H        3.3493810     1.0663200    -0.0318300
  H        2.0973190     1.5260350     1.1502070
  H        3.3493810    -1.0663200    -0.0317850
  H        2.0973040    -1.5260120     1.1502460
  H        1.9822180    -2.0441270    -0.5499050
  H       -2.4643420     2.1488140     0.0683770
  H       -2.4643490    -2.1488100     0.0683440
  H       -3.7307980     0.0000040     0.1506540
units angstrom
no_reorient  #important for SAPT in psi4, default
symmetry c1  #important for SAPT in psi4, default
}

set PROPERTIES_ORIGIN ["COM"]
properties('MP2/aug-cc-pvtz', properties = ['dipole'])
--------------------------------------------------------------------------

    Molecular point group: c1
  Charge       = 0
  Multiplicity = 1
  Basis Set: AUG-CC-PVTZ
    Blend: AUG-CC-PVTZ
  Basis Set: (AUG-CC-PVTZ AUX)
    Blend: AUG-CC-PVTZ-JKFIT

    Orbital Energies [Eh]
    ---------------------

    Doubly Occupied:

       1A    -15.569289     2A    -11.275808     3A    -11.254940
       4A    -11.253740     5A    -11.233226     6A    -11.232673
       7A    -11.224229     8A    -11.219991     9A    -11.218400
      10A     -1.253200    11A     -1.131138    12A     -1.011887
      13A     -1.003269    14A     -0.963595    15A     -0.887969
      16A     -0.816919    17A     -0.783302    18A     -0.707935
      19A     -0.647866    20A     -0.643428    21A     -0.635612
      22A     -0.617227    23A     -0.583124    24A     -0.574705
      25A     -0.553387    26A     -0.541863    27A     -0.526379
      28A     -0.506741    29A     -0.495553    30A     -0.475908
      31A     -0.408194    32A     -0.332706    33A     -0.286786

  @DF-RHF Final Energy:  -363.90365900971068

   => Energetics <=

    Nuclear Repulsion Energy =            429.2735092970039545
    One-Electron Energy =               -1342.6123607503072890
    Two-Electron Energy =                 549.4351924435925412
    Total Energy =                       -363.9036590097107364
  Basis Set: (AUG-CC-PVTZ AUX)
    Blend: AUG-CC-PVTZ-RI
    Molecular point group: c1

    Geometry (in Angstrom), charge = 0, multiplicity = 1:

       Center              X                  Y                   Z               Mass
    ------------   -----------------  -----------------  -----------------  -----------------
         N            1.631036011093    -0.002287506746    -0.253749672773    14.003074004430
         C            0.236306211093     0.020758393254    -0.097823972773    12.000000000000
         C           -0.494653988907     1.203652493254    -0.055710672773    12.000000000000
         C           -0.494657988907    -1.208220506746    -0.055728672773    12.000000000000
         C            2.328337011093     1.220988493254     0.116211327227    12.000000000000
         C            2.328335011093    -1.225555506746     0.116246327227    12.000000000000
         C           -1.885525988907     1.196505493254     0.038331327227    12.000000000000
         C           -1.885529988907    -1.201069506746     0.038313327227    12.000000000000
         C           -2.596788988907    -0.002281506746     0.083249327227    12.000000000000
         H            0.014751011093     2.160082493254    -0.081486672773     1.007825032230
         H            0.014744011093    -2.164651506746    -0.081523672773     1.007825032230
         H            2.032271011093     2.041827493254    -0.540582672773     1.007825032230
         H            3.399442011093     1.064036493254    -0.022458672773     1.007825032230
         H            2.147380011093     1.523751493254     1.159578327227     1.007825032230
         H            3.399442011093    -1.068603506746    -0.022413672773     1.007825032230
         H            2.147365011093    -1.528295506746     1.159617327227     1.007825032230
         H            2.032279011093    -2.046410506746    -0.540533672773     1.007825032230
         H           -2.414280988907     2.146530493254     0.077748327227     1.007825032230
         H           -2.414287988907    -2.151093506746     0.077715327227     1.007825032230
         H           -3.680736988907    -0.002279506746     0.160025327227     1.007825032230

  Basis Set: AUG-CC-PVTZ
    Blend: AUG-CC-PVTZ
  Basis Set: (AUG-CC-PVTZ AUX)
    Blend: AUG-CC-PVTZ-JKFIT
	 Reference Energy          =    -363.9036590097106796 [Eh]
	 Singles Energy            =      -0.0000000000000000 [Eh]
	 Same-Spin Energy          =      -0.4022023948825351 [Eh]
	 Opposite-Spin Energy      =      -1.3067069281242925 [Eh]
	 Correlation Energy        =      -1.7089093230068275 [Eh]
	 Total Energy              =    -365.6125683327175011 [Eh]

	 ================> DF-SCS-MP2 Energies <==================
	-----------------------------------------------------------
	 SCS Same-Spin Scale       =       0.3333333333333333 [-]
	 SCS Opposite-Spin Scale   =       1.2000000000000000 [-]
	 SCS Same-Spin Energy      =      -0.1340674649608450 [Eh]
	 SCS Opposite-Spin Energy  =      -1.5680483137491510 [Eh]
	 SCS Correlation Energy    =      -1.7021157787099961 [Eh]
	 SCS Total Energy          =    -365.6057747884206606 [Eh]
	-----------------------------------------------------------

  Dipole Moment: [D]
     X:     1.5724      Y:    -0.0141      Z:     0.4366     Total:     1.6319

*** Psi4 exiting successfully. Buy a developer a beer!
