                               Psi4 1.4a3.dev225

  ==> Input File <==

--------------------------------------------------------------------------
#psi4
#
memory 32 gb

molecule  {
0 1
  N        1.5809750    -0.0000040    -0.2631210
  C        0.2348805    -0.0000011    -0.1206998
  C       -0.5447150     1.2059360    -0.0650820
  C       -0.5447190    -1.2059370    -0.0651000
  C        2.2782760     1.2232720     0.1068400
  C        2.2782740    -1.2232720     0.1068750
  C       -1.9355870     1.1987890     0.0289600
  C       -1.9355910    -1.1987860     0.0289420
  C       -2.6468500     0.0000020     0.0738780
  H       -0.0353100     2.1623660    -0.0908580
  H       -0.0353170    -2.1623680    -0.0908950
  H        1.9822100     2.0441110    -0.5499540
  H        3.3493810     1.0663200    -0.0318300
  H        2.0973190     1.5260350     1.1502070
  H        3.3493810    -1.0663200    -0.0317850
  H        2.0973040    -1.5260120     1.1502460
  H        1.9822180    -2.0441270    -0.5499050
  H       -2.4643420     2.1488140     0.0683770
  H       -2.4643490    -2.1488100     0.0683440
  H       -3.7307980     0.0000040     0.1506540
units angstrom
no_reorient  #important for SAPT in psi4, default
symmetry c1  #important for SAPT in psi4, default
}

set PROPERTIES_ORIGIN ["COM"]
properties('MP2/aug-cc-pvtz', properties = ['dipole'])
--------------------------------------------------------------------------

    Molecular point group: c1
  Charge       = 0
  Multiplicity = 1
  Basis Set: AUG-CC-PVTZ
    Blend: AUG-CC-PVTZ
  Basis Set: (AUG-CC-PVTZ AUX)
    Blend: AUG-CC-PVTZ-JKFIT

    Orbital Energies [Eh]
    ---------------------

    Doubly Occupied:

       1A    -15.575142     2A    -11.279526     3A    -11.258436
       4A    -11.258418     5A    -11.231319     6A    -11.231287
       7A    -11.221654     8A    -11.221643     9A    -11.214674
      10A     -1.270038    11A     -1.125068    12A     -1.007265
      13A     -1.002197    14A     -0.967768    15A     -0.897586
      16A     -0.811590    17A     -0.781537    18A     -0.708234
      19A     -0.652169    20A     -0.647017    21A     -0.642343
      22A     -0.615592    23A     -0.577383    24A     -0.575039
      25A     -0.556006    26A     -0.547694    27A     -0.529268
      28A     -0.506791    29A     -0.494407    30A     -0.467831
      31A     -0.416134    32A     -0.330251    33A     -0.279742

  @DF-RHF Final Energy:  -363.90056625804311

   => Energetics <=

    Nuclear Repulsion Energy =            429.2791181504346127
    One-Electron Energy =               -1342.5572703029235981
    Two-Electron Energy =                 549.3775858944458150
    Total Energy =                       -363.9005662580431135
  Basis Set: (AUG-CC-PVTZ AUX)
    Blend: AUG-CC-PVTZ-RI
    Molecular point group: c1

    Geometry (in Angstrom), charge = 0, multiplicity = 1:

       Center              X                  Y                   Z               Mass
    ------------   -----------------  -----------------  -----------------  -----------------
         N            1.626216226636    -0.000003933020    -0.252411369541    14.003074004430
         C            0.280121726636    -0.000001033020    -0.109990169541    12.000000000000
         C           -0.499473773364     1.205936066980    -0.054372369541    12.000000000000
         C           -0.499477773364    -1.205936933020    -0.054390369541    12.000000000000
         C            2.323517226636     1.223272066980     0.117549630459    12.000000000000
         C            2.323515226636    -1.223271933020     0.117584630459    12.000000000000
         C           -1.890345773364     1.198789066980     0.039669630459    12.000000000000
         C           -1.890349773364    -1.198785933020     0.039651630459    12.000000000000
         C           -2.601608773364     0.000002066980     0.084587630459    12.000000000000
         H            0.009931226636     2.162366066980    -0.080148369541     1.007825032230
         H            0.009924226636    -2.162367933020    -0.080185369541     1.007825032230
         H            2.027451226636     2.044111066980    -0.539244369541     1.007825032230
         H            3.394622226636     1.066320066980    -0.021120369541     1.007825032230
         H            2.142560226636     1.526035066980     1.160916630459     1.007825032230
         H            3.394622226636    -1.066319933020    -0.021075369541     1.007825032230
         H            2.142545226636    -1.526011933020     1.160955630459     1.007825032230
         H            2.027459226636    -2.044126933020    -0.539195369541     1.007825032230
         H           -2.419100773364     2.148814066980     0.079086630459     1.007825032230
         H           -2.419107773364    -2.148809933020     0.079053630459     1.007825032230
         H           -3.685556773364     0.000004066980     0.161363630459     1.007825032230

  Basis Set: AUG-CC-PVTZ
    Blend: AUG-CC-PVTZ
  Basis Set: (AUG-CC-PVTZ AUX)
    Blend: AUG-CC-PVTZ-JKFIT
	 Reference Energy          =    -363.9005662580431135 [Eh]
	 Singles Energy            =      -0.0000000000000000 [Eh]
	 Same-Spin Energy          =      -0.4027087452897801 [Eh]
	 Opposite-Spin Energy      =      -1.3073801437920229 [Eh]
	 Correlation Energy        =      -1.7100888890818031 [Eh]
	 Total Energy              =    -365.6106551471249304 [Eh]

	 ================> DF-SCS-MP2 Energies <==================
	-----------------------------------------------------------
	 SCS Same-Spin Scale       =       0.3333333333333333 [-]
	 SCS Opposite-Spin Scale   =       1.2000000000000000 [-]
	 SCS Same-Spin Energy      =      -0.1342362484299267 [Eh]
	 SCS Opposite-Spin Energy  =      -1.5688561725504275 [Eh]
	 SCS Correlation Energy    =      -1.7030924209803542 [Eh]
	 SCS Total Energy          =    -365.6036586790234537 [Eh]
	-----------------------------------------------------------

  Dipole Moment: [D]
     X:     1.9682      Y:     0.0000      Z:     0.4108     Total:     2.0106

*** Psi4 exiting successfully. Buy a developer a beer!
