                               Psi4 1.3.2 release

  ==> Input File <==

--------------------------------------------------------------------------
#psi4
#
memory 32 gb

molecule  {
0 1
  N        1.5809750    -0.0000040    -0.2631210
  C        0.1875659    -0.1380130    -0.1657569
  C       -0.5447150     1.2059360    -0.0650820
  C       -0.5447190    -1.2059370    -0.0651000
  C        2.2782760     1.2232720     0.1068400
  C        2.2782740    -1.2232720     0.1068750
  C       -1.9355870     1.1987890     0.0289600
  C       -1.9355910    -1.1987860     0.0289420
  C       -2.6468500     0.0000020     0.0738780
  H       -0.0353100     2.1623660    -0.0908580
  H       -0.0353170    -2.1623680    -0.0908950
  H        1.9822100     2.0441110    -0.5499540
  H        3.3493810     1.0663200    -0.0318300
  H        2.0973190     1.5260350     1.1502070
  H        3.3493810    -1.0663200    -0.0317850
  H        2.0973040    -1.5260120     1.1502460
  H        1.9822180    -2.0441270    -0.5499050
  H       -2.4643420     2.1488140     0.0683770
  H       -2.4643490    -2.1488100     0.0683440
  H       -3.7307980     0.0000040     0.1506540
units angstrom
no_reorient  #important for SAPT in psi4, default
symmetry c1  #important for SAPT in psi4, default
}

set PROPERTIES_ORIGIN ["COM"]
properties('MP2/aug-cc-pvtz', properties = ['dipole'])
--------------------------------------------------------------------------

    Molecular point group: c1
  Charge       = 0
  Multiplicity = 1
  Basis Set: AUG-CC-PVTZ
    Blend: AUG-CC-PVTZ
  Basis Set: (AUG-CC-PVTZ AUX)
    Blend: AUG-CC-PVTZ-JKFIT

    Orbital Energies [Eh]
    ---------------------

    Doubly Occupied:

       1A    -15.568633     2A    -11.274735     3A    -11.258377
       4A    -11.251067     5A    -11.234270     6A    -11.233072
       7A    -11.230719     8A    -11.219286     9A    -11.208496
      10A     -1.252380    11A     -1.132826    12A     -1.025201
      13A     -0.992423    14A     -0.963789    15A     -0.888822
      16A     -0.822523    17A     -0.776937    18A     -0.708224
      19A     -0.652624    20A     -0.640544    21A     -0.636442
      22A     -0.616952    23A     -0.581418    24A     -0.575850
      25A     -0.554692    26A     -0.539177    27A     -0.526713
      28A     -0.508210    29A     -0.500139    30A     -0.461210
      31A     -0.407989    32A     -0.335629    33A     -0.285683

  @DF-RHF Final Energy:  -363.88014418226834

   => Energetics <=

    Nuclear Repulsion Energy =            429.2462112447406071
    One-Electron Energy =               -1342.5226026783930138
    Two-Electron Energy =                 549.3962472513841249
    Total Energy =                       -363.8801441822682818
  Basis Set: (AUG-CC-PVTZ AUX)
    Blend: AUG-CC-PVTZ-RI
    Molecular point group: c1

    Geometry (in Angstrom), charge = 0, multiplicity = 1:

       Center              X                  Y                   Z               Mass
    ------------   -----------------  -----------------  -----------------  -----------------
         N            1.630905129011     0.013673120694    -0.247946186633    14.003074004430
         C            0.237496029011    -0.124335879306    -0.150582086633    12.000000000000
         C           -0.494784870989     1.219613120694    -0.049907186633    12.000000000000
         C           -0.494788870989    -1.192259879306    -0.049925186633    12.000000000000
         C            2.328206129011     1.236949120694     0.122014813367    12.000000000000
         C            2.328204129011    -1.209594879306     0.122049813367    12.000000000000
         C           -1.885656870989     1.212466120694     0.044134813367    12.000000000000
         C           -1.885660870989    -1.185108879306     0.044116813367    12.000000000000
         C           -2.596919870989     0.013679120694     0.089052813367    12.000000000000
         H            0.014620129011     2.176043120694    -0.075683186633     1.007825032230
         H            0.014613129011    -2.148690879306    -0.075720186633     1.007825032230
         H            2.032140129011     2.057788120694    -0.534779186633     1.007825032230
         H            3.399311129011     1.079997120694    -0.016655186633     1.007825032230
         H            2.147249129011     1.539712120694     1.165381813367     1.007825032230
         H            3.399311129011    -1.052642879306    -0.016610186633     1.007825032230
         H            2.147234129011    -1.512334879306     1.165420813367     1.007825032230
         H            2.032148129011    -2.030449879306    -0.534730186633     1.007825032230
         H           -2.414411870989     2.162491120694     0.083551813367     1.007825032230
         H           -2.414418870989    -2.135132879306     0.083518813367     1.007825032230
         H           -3.680867870989     0.013681120694     0.165828813367     1.007825032230

  Basis Set: AUG-CC-PVTZ
    Blend: AUG-CC-PVTZ
  Basis Set: (AUG-CC-PVTZ AUX)
    Blend: AUG-CC-PVTZ-JKFIT
	 Reference Energy          =    -363.8801441822683387 [Eh]
	 Singles Energy            =      -0.0000000000000000 [Eh]
	 Same-Spin Energy          =      -0.4018372576364720 [Eh]
	 Opposite-Spin Energy      =      -1.3078242294011844 [Eh]
	 Correlation Energy        =      -1.7096614870376565 [Eh]
	 Total Energy              =    -365.5898056693059743 [Eh]

	 ================> DF-SCS-MP2 Energies <==================
	-----------------------------------------------------------
	 SCS Same-Spin Scale       =       0.3333333333333333 [-]
	 SCS Opposite-Spin Scale   =       1.2000000000000000 [-]
	 SCS Same-Spin Energy      =      -0.1339457525454907 [Eh]
	 SCS Opposite-Spin Energy  =      -1.5693890752814212 [Eh]
	 SCS Correlation Energy    =      -1.7033348278269118 [Eh]
	 SCS Total Energy          =    -365.5834790100952318 [Eh]
	-----------------------------------------------------------

  Dipole Moment: [D]
     X:     1.5783      Y:     0.0797      Z:     0.4298     Total:     1.6377

*** Psi4 exiting successfully. Buy a developer a beer!
