                               Psi4 1.4a3.dev225

  ==> Input File <==

--------------------------------------------------------------------------
#psi4
#
memory 32 gb

molecule  {
0 1
  N        1.5809750    -0.0000040    -0.2631210
  C        0.1354355    -0.0000009    -0.1101782
  C       -0.5447150     1.2059360    -0.0650820
  C       -0.5447190    -1.2059370    -0.0651000
  C        2.2782760     1.2232720     0.1068400
  C        2.2782740    -1.2232720     0.1068750
  C       -1.9355870     1.1987890     0.0289600
  C       -1.9355910    -1.1987860     0.0289420
  C       -2.6468500     0.0000020     0.0738780
  H       -0.0353100     2.1623660    -0.0908580
  H       -0.0353170    -2.1623680    -0.0908950
  H        1.9822100     2.0441110    -0.5499540
  H        3.3493810     1.0663200    -0.0318300
  H        2.0973190     1.5260350     1.1502070
  H        3.3493810    -1.0663200    -0.0317850
  H        2.0973040    -1.5260120     1.1502460
  H        1.9822180    -2.0441270    -0.5499050
  H       -2.4643420     2.1488140     0.0683770
  H       -2.4643490    -2.1488100     0.0683440
  H       -3.7307980     0.0000040     0.1506540
units angstrom
no_reorient  #important for SAPT in psi4, default
symmetry c1  #important for SAPT in psi4, default
}

set PROPERTIES_ORIGIN ["COM"]
properties('MP2/aug-cc-pvtz', properties = ['dipole'])
--------------------------------------------------------------------------

    Molecular point group: c1
  Charge       = 0
  Multiplicity = 1
  Basis Set: AUG-CC-PVTZ
    Blend: AUG-CC-PVTZ
  Basis Set: (AUG-CC-PVTZ AUX)
    Blend: AUG-CC-PVTZ-JKFIT

    Orbital Energies [Eh]
    ---------------------

    Doubly Occupied:

       1A    -15.563700     2A    -11.272683     3A    -11.250760
       4A    -11.250742     5A    -11.234590     6A    -11.234545
       7A    -11.222347     8A    -11.222328     9A    -11.221331
      10A     -1.238886    11A     -1.136960    12A     -1.015077
      13A     -1.006827    14A     -0.959513    15A     -0.878528
      16A     -0.821812    17A     -0.785251    18A     -0.708597
      19A     -0.642510    20A     -0.641946    21A     -0.629673
      22A     -0.618688    23A     -0.589935    24A     -0.573378
      25A     -0.550299    26A     -0.537839    27A     -0.524015
      28A     -0.507448    29A     -0.493439    30A     -0.483618
      31A     -0.400398    32A     -0.334976    33A     -0.292990

  @DF-RHF Final Energy:  -363.90196240384608

   => Energetics <=

    Nuclear Repulsion Energy =            429.3047658484700264
    One-Electron Energy =               -1342.7221963520055397
    Two-Electron Energy =                 549.5154680996894285
    Total Energy =                       -363.9019624038461416
  Basis Set: (AUG-CC-PVTZ AUX)
    Blend: AUG-CC-PVTZ-RI
    Molecular point group: c1

    Geometry (in Angstrom), charge = 0, multiplicity = 1:

       Center              X                  Y                   Z               Mass
    ------------   -----------------  -----------------  -----------------  -----------------
         N            1.636071279763    -0.000003952840    -0.253454065775    14.003074004430
         C            0.190531779763    -0.000000852840    -0.100511265775    12.000000000000
         C           -0.489618720237     1.205936047160    -0.055415065775    12.000000000000
         C           -0.489622720237    -1.205936952840    -0.055433065775    12.000000000000
         C            2.333372279763     1.223272047160     0.116506934225    12.000000000000
         C            2.333370279763    -1.223271952840     0.116541934225    12.000000000000
         C           -1.880490720237     1.198789047160     0.038626934225    12.000000000000
         C           -1.880494720237    -1.198785952840     0.038608934225    12.000000000000
         C           -2.591753720237     0.000002047160     0.083544934225    12.000000000000
         H            0.019786279763     2.162366047160    -0.081191065775     1.007825032230
         H            0.019779279763    -2.162367952840    -0.081228065775     1.007825032230
         H            2.037306279763     2.044111047160    -0.540287065775     1.007825032230
         H            3.404477279763     1.066320047160    -0.022163065775     1.007825032230
         H            2.152415279763     1.526035047160     1.159873934225     1.007825032230
         H            3.404477279763    -1.066319952840    -0.022118065775     1.007825032230
         H            2.152400279763    -1.526011952840     1.159912934225     1.007825032230
         H            2.037314279763    -2.044126952840    -0.540238065775     1.007825032230
         H           -2.409245720237     2.148814047160     0.078043934225     1.007825032230
         H           -2.409252720237    -2.148809952840     0.078010934225     1.007825032230
         H           -3.675701720237     0.000004047160     0.160320934225     1.007825032230

  Basis Set: AUG-CC-PVTZ
    Blend: AUG-CC-PVTZ
  Basis Set: (AUG-CC-PVTZ AUX)
    Blend: AUG-CC-PVTZ-JKFIT
	 Reference Energy          =    -363.9019624038460847 [Eh]
	 Singles Energy            =      -0.0000000000000000 [Eh]
	 Same-Spin Energy          =      -0.4018958405109460 [Eh]
	 Opposite-Spin Energy      =      -1.3063082007317508 [Eh]
	 Correlation Energy        =      -1.7082040412426969 [Eh]
	 Total Energy              =    -365.6101664450887938 [Eh]

	 ================> DF-SCS-MP2 Energies <==================
	-----------------------------------------------------------
	 SCS Same-Spin Scale       =       0.3333333333333333 [-]
	 SCS Opposite-Spin Scale   =       1.2000000000000000 [-]
	 SCS Same-Spin Energy      =      -0.1339652801703153 [Eh]
	 SCS Opposite-Spin Energy  =      -1.5675698408781009 [Eh]
	 SCS Correlation Energy    =      -1.7015351210484162 [Eh]
	 SCS Total Energy          =    -365.6034975248945216 [Eh]
	-----------------------------------------------------------

  Dipole Moment: [D]
     X:     1.2102      Y:     0.0000      Z:     0.4577     Total:     1.2939

*** Psi4 exiting successfully. Buy a developer a beer!
