                               Psi4 1.3.2 release

  ==> Input File <==

--------------------------------------------------------------------------
#psi4
#
memory 32 gb

molecule  {
0 1
  N        1.5809750    -0.0000040    -0.2631210
  C        0.0857131    -0.0000008    -0.1049174
  C       -0.5447150     1.2059360    -0.0650820
  C       -0.5447190    -1.2059370    -0.0651000
  C        2.2782760     1.2232720     0.1068400
  C        2.2782740    -1.2232720     0.1068750
  C       -1.9355870     1.1987890     0.0289600
  C       -1.9355910    -1.1987860     0.0289420
  C       -2.6468500     0.0000020     0.0738780
  H       -0.0353100     2.1623660    -0.0908580
  H       -0.0353170    -2.1623680    -0.0908950
  H        1.9822100     2.0441110    -0.5499540
  H        3.3493810     1.0663200    -0.0318300
  H        2.0973190     1.5260350     1.1502070
  H        3.3493810    -1.0663200    -0.0317850
  H        2.0973040    -1.5260120     1.1502460
  H        1.9822180    -2.0441270    -0.5499050
  H       -2.4643420     2.1488140     0.0683770
  H       -2.4643490    -2.1488100     0.0683440
  H       -3.7307980     0.0000040     0.1506540
units angstrom
no_reorient  #important for SAPT in psi4, default
symmetry c1  #important for SAPT in psi4, default
}

set PROPERTIES_ORIGIN ["COM"]
properties('MP2/aug-cc-pvtz', properties = ['dipole'])
--------------------------------------------------------------------------

    Molecular point group: c1
  Charge       = 0
  Multiplicity = 1
  Basis Set: AUG-CC-PVTZ
    Blend: AUG-CC-PVTZ
  Basis Set: (AUG-CC-PVTZ AUX)
    Blend: AUG-CC-PVTZ-JKFIT

    Orbital Energies [Eh]
    ---------------------

    Doubly Occupied:

       1A    -15.558341     2A    -11.269900     3A    -11.247425
       4A    -11.247407     5A    -11.236215     6A    -11.236166
       7A    -11.223882     8A    -11.222506     9A    -11.222475
      10A     -1.227311    11A     -1.142502    12A     -1.019798
      13A     -1.009494    14A     -0.955681    15A     -0.869624
      16A     -0.826790    17A     -0.786728    18A     -0.709898
      19A     -0.642173    20A     -0.637777    21A     -0.624332
      22A     -0.619576    23A     -0.596354    24A     -0.571719
      25A     -0.547279    26A     -0.535393    27A     -0.522289
      28A     -0.510773    29A     -0.489167    30A     -0.486167
      31A     -0.393387    32A     -0.337386    33A     -0.298501

  @DF-RHF Final Energy:  -363.89384718715240

   => Energetics <=

    Nuclear Repulsion Energy =            429.3914665980277618
    One-Electron Energy =               -1342.9217961645817923
    Two-Electron Energy =                 549.6364823794015138
    Total Energy =                       -363.8938471871524598
  Basis Set: (AUG-CC-PVTZ AUX)
    Blend: AUG-CC-PVTZ-RI
    Molecular point group: c1

    Geometry (in Angstrom), charge = 0, multiplicity = 1:

       Center              X                  Y                   Z               Mass
    ------------   -----------------  -----------------  -----------------  -----------------
         N            1.640998796416    -0.000003962750    -0.253975413892    14.003074004430
         C            0.145736896416    -0.000000762750    -0.095771813892    12.000000000000
         C           -0.484691203584     1.205936037250    -0.055936413892    12.000000000000
         C           -0.484695203584    -1.205936962750    -0.055954413892    12.000000000000
         C            2.338299796416     1.223272037250     0.115985586108    12.000000000000
         C            2.338297796416    -1.223271962750     0.116020586108    12.000000000000
         C           -1.875563203584     1.198789037250     0.038105586108    12.000000000000
         C           -1.875567203584    -1.198785962750     0.038087586108    12.000000000000
         C           -2.586826203584     0.000002037250     0.083023586108    12.000000000000
         H            0.024713796416     2.162366037250    -0.081712413892     1.007825032230
         H            0.024706796416    -2.162367962750    -0.081749413892     1.007825032230
         H            2.042233796416     2.044111037250    -0.540808413892     1.007825032230
         H            3.409404796416     1.066320037250    -0.022684413892     1.007825032230
         H            2.157342796416     1.526035037250     1.159352586108     1.007825032230
         H            3.409404796416    -1.066319962750    -0.022639413892     1.007825032230
         H            2.157327796416    -1.526011962750     1.159391586108     1.007825032230
         H            2.042241796416    -2.044126962750    -0.540759413892     1.007825032230
         H           -2.404318203584     2.148814037250     0.077522586108     1.007825032230
         H           -2.404325203584    -2.148809962750     0.077489586108     1.007825032230
         H           -3.670774203584     0.000004037250     0.159799586108     1.007825032230

  Basis Set: AUG-CC-PVTZ
    Blend: AUG-CC-PVTZ
  Basis Set: (AUG-CC-PVTZ AUX)
    Blend: AUG-CC-PVTZ-JKFIT
	 Reference Energy          =    -363.8938471871524030 [Eh]
	 Singles Energy            =      -0.0000000000000000 [Eh]
	 Same-Spin Energy          =      -0.4018095582994889 [Eh]
	 Opposite-Spin Energy      =      -1.3063805022420663 [Eh]
	 Correlation Energy        =      -1.7081900605415552 [Eh]
	 Total Energy              =    -365.6020372476939428 [Eh]

	 ================> DF-SCS-MP2 Energies <==================
	-----------------------------------------------------------
	 SCS Same-Spin Scale       =       0.3333333333333333 [-]
	 SCS Opposite-Spin Scale   =       1.2000000000000000 [-]
	 SCS Same-Spin Energy      =      -0.1339365194331630 [Eh]
	 SCS Opposite-Spin Energy  =      -1.5676566026904795 [Eh]
	 SCS Correlation Energy    =      -1.7015931221236424 [Eh]
	 SCS Total Energy          =    -365.5954403092760572 [Eh]
	-----------------------------------------------------------

  Dipole Moment: [D]
     X:     0.8675      Y:     0.0000      Z:     0.4792     Total:     0.9910

*** Psi4 exiting successfully. Buy a developer a beer!
