                               Psi4 1.3.2 release

  ==> Input File <==

--------------------------------------------------------------------------
#psi4
#
memory 32 gb

molecule  {
0 1
  N        1.5809750    -0.0000040    -0.2631210
  C        0.1844960    -0.0230439    -0.1237277
  C       -0.5447150     1.2059360    -0.0650820
  C       -0.5447190    -1.2059370    -0.0651000
  C        2.2782760     1.2232720     0.1068400
  C        2.2782740    -1.2232720     0.1068750
  C       -1.9355870     1.1987890     0.0289600
  C       -1.9355910    -1.1987860     0.0289420
  C       -2.6468500     0.0000020     0.0738780
  H       -0.0353100     2.1623660    -0.0908580
  H       -0.0353170    -2.1623680    -0.0908950
  H        1.9822100     2.0441110    -0.5499540
  H        3.3493810     1.0663200    -0.0318300
  H        2.0973190     1.5260350     1.1502070
  H        3.3493810    -1.0663200    -0.0317850
  H        2.0973040    -1.5260120     1.1502460
  H        1.9822180    -2.0441270    -0.5499050
  H       -2.4643420     2.1488140     0.0683770
  H       -2.4643490    -2.1488100     0.0683440
  H       -3.7307980     0.0000040     0.1506540
units angstrom
no_reorient  #important for SAPT in psi4, default
symmetry c1  #important for SAPT in psi4, default
}

set PROPERTIES_ORIGIN ["COM"]
properties('MP2/aug-cc-pvtz', properties = ['dipole'])
--------------------------------------------------------------------------

    Molecular point group: c1
  Charge       = 0
  Multiplicity = 1
  Basis Set: AUG-CC-PVTZ
    Blend: AUG-CC-PVTZ
  Basis Set: (AUG-CC-PVTZ AUX)
    Blend: AUG-CC-PVTZ-JKFIT

    Orbital Energies [Eh]
    ---------------------

    Doubly Occupied:

       1A    -15.569177     2A    -11.276000     3A    -11.255049
       4A    -11.253837     5A    -11.233228     6A    -11.232674
       7A    -11.224139     8A    -11.219891     9A    -11.218278
      10A     -1.252954    11A     -1.131160    12A     -1.011896
      13A     -1.003349    14A     -0.963558    15A     -0.888073
      16A     -0.816959    17A     -0.783268    18A     -0.707986
      19A     -0.647639    20A     -0.643410    21A     -0.635761
      22A     -0.617299    23A     -0.583169    24A     -0.574642
      25A     -0.553366    26A     -0.542023    27A     -0.526402
      28A     -0.506517    29A     -0.496001    30A     -0.476013
      31A     -0.407928    32A     -0.332711    33A     -0.286575

  @DF-RHF Final Energy:  -363.90379853068890

   => Energetics <=

    Nuclear Repulsion Energy =            429.2581955843330093
    One-Electron Energy =               -1342.5821247190388021
    Two-Electron Energy =                 549.4201306040168902
    Total Energy =                       -363.9037985306889595
  Basis Set: (AUG-CC-PVTZ AUX)
    Blend: AUG-CC-PVTZ-RI
    Molecular point group: c1

    Geometry (in Angstrom), charge = 0, multiplicity = 1:

       Center              X                  Y                   Z               Mass
    ------------   -----------------  -----------------  -----------------  -----------------
         N            1.631209357756     0.002279620886    -0.252111303018    14.003074004430
         C            0.234730357756    -0.020760279114    -0.112718003018    12.000000000000
         C           -0.494480642244     1.208219620886    -0.054072303018    12.000000000000
         C           -0.494484642244    -1.203653379114    -0.054090303018    12.000000000000
         C            2.328510357756     1.225555620886     0.117849696982    12.000000000000
         C            2.328508357756    -1.220988379114     0.117884696982    12.000000000000
         C           -1.885352642244     1.201072620886     0.039969696982    12.000000000000
         C           -1.885356642244    -1.196502379114     0.039951696982    12.000000000000
         C           -2.596615642244     0.002285620886     0.084887696982    12.000000000000
         H            0.014924357756     2.164649620886    -0.079848303018     1.007825032230
         H            0.014917357756    -2.160084379114    -0.079885303018     1.007825032230
         H            2.032444357756     2.046394620886    -0.538944303018     1.007825032230
         H            3.399615357756     1.068603620886    -0.020820303018     1.007825032230
         H            2.147553357756     1.528318620886     1.161216696982     1.007825032230
         H            3.399615357756    -1.064036379114    -0.020775303018     1.007825032230
         H            2.147538357756    -1.523728379114     1.161255696982     1.007825032230
         H            2.032452357756    -2.041843379114    -0.538895303018     1.007825032230
         H           -2.414107642244     2.151097620886     0.079386696982     1.007825032230
         H           -2.414114642244    -2.146526379114     0.079353696982     1.007825032230
         H           -3.680563642244     0.002287620886     0.161663696982     1.007825032230

  Basis Set: AUG-CC-PVTZ
    Blend: AUG-CC-PVTZ
  Basis Set: (AUG-CC-PVTZ AUX)
    Blend: AUG-CC-PVTZ-JKFIT
	 Reference Energy          =    -363.9037985306889027 [Eh]
	 Singles Energy            =      -0.0000000000000000 [Eh]
	 Same-Spin Energy          =      -0.4021907785138389 [Eh]
	 Opposite-Spin Energy      =      -1.3066807535574605 [Eh]
	 Correlation Energy        =      -1.7088715320712993 [Eh]
	 Total Energy              =    -365.6126700627602304 [Eh]

	 ================> DF-SCS-MP2 Energies <==================
	-----------------------------------------------------------
	 SCS Same-Spin Scale       =       0.3333333333333333 [-]
	 SCS Opposite-Spin Scale   =       1.2000000000000000 [-]
	 SCS Same-Spin Energy      =      -0.1340635928379463 [Eh]
	 SCS Opposite-Spin Energy  =      -1.5680169042689525 [Eh]
	 SCS Correlation Energy    =      -1.7020804971068988 [Eh]
	 SCS Total Energy          =    -365.6058790277958224 [Eh]
	-----------------------------------------------------------

  Dipole Moment: [D]
     X:     1.5804      Y:     0.0143      Z:     0.4334     Total:     1.6388

*** Psi4 exiting successfully. Buy a developer a beer!
