                               Psi4 1.4a3.dev225

  ==> Input File <==

--------------------------------------------------------------------------
#psi4
#
memory 32 gb

molecule  {
0 1
  O       -2.0737200     1.2628680    -0.4915300
  O        2.0737210    -1.2628680    -0.4915300
  N       -2.9762380    -0.6534170     0.3462040
  N        3.0342545     0.5819282     0.3200728
  C       -0.5555480    -0.5175680     0.1381390
  C        0.5555480     0.5175670     0.1381410
  C       -1.9182850     0.1263550    -0.0446340
  C        1.9182850    -0.1263550    -0.0446340
  H       -0.3806750    -1.2252780    -0.6804370
  H       -0.5383610    -1.1077740     1.0609210
  H        0.3806750     1.2252800    -0.6804340
  H        0.5383600     1.1077700     1.0609240
  H       -2.8543230    -1.6451260     0.4957240
  H       -3.8970040    -0.3356840     0.0715640
  H        2.8543220     1.6451260     0.4957230
  H        3.8970030     0.3356850     0.0715640
units angstrom
no_reorient  #important for SAPT in psi4, default
symmetry c1  #important for SAPT in psi4, default
}

set PROPERTIES_ORIGIN ["COM"]
properties('MP2/aug-cc-pvtz', properties = ['dipole'])
--------------------------------------------------------------------------

    Molecular point group: c1
  Charge       = 0
  Multiplicity = 1
  Basis Set: AUG-CC-PVTZ
    Blend: AUG-CC-PVTZ
  Basis Set: (AUG-CC-PVTZ AUX)
    Blend: AUG-CC-PVTZ-JKFIT

    Orbital Energies [Eh]
    ---------------------

    Doubly Occupied:

       1A    -20.528108     2A    -20.522241     3A    -15.591411
       4A    -15.588193     5A    -11.361394     6A    -11.359123
       7A    -11.251705     8A    -11.249298     9A     -1.381911
      10A     -1.379401    11A     -1.215168    12A     -1.210007
      13A     -1.078750    14A     -0.942065    15A     -0.813400
      16A     -0.777090    17A     -0.725236    18A     -0.709977
      19A     -0.690526    20A     -0.671418    21A     -0.637042
      22A     -0.605475    23A     -0.581520    24A     -0.563369
      25A     -0.555384    26A     -0.521899    27A     -0.501063
      28A     -0.435068    29A     -0.431305    30A     -0.422370
      31A     -0.416977

  @DF-RHF Final Energy:  -414.94600164618640

   => Energetics <=

    Nuclear Repulsion Energy =            365.6419797881179647
    One-Electron Energy =               -1291.7401795201576533
    Two-Electron Energy =                 511.1521980858532856
    Total Energy =                       -414.9460016461864029
  Basis Set: (AUG-CC-PVTZ AUX)
    Blend: AUG-CC-PVTZ-RI
    Molecular point group: c1

    Geometry (in Angstrom), charge = 0, multiplicity = 1:

       Center              X                  Y                   Z               Mass
    ------------   -----------------  -----------------  -----------------  -----------------
         O           -2.080720105739     1.271493609466    -0.472233608952    15.994914619570
         O            2.066720894261    -1.254242390534    -0.472233608952    15.994914619570
         N           -2.983238105739    -0.644791390534     0.365500391048    14.003074004430
         N            3.027254394261     0.590553809466     0.339369191048    14.003074004430
         C           -0.562548105739    -0.508942390534     0.157435391048    12.000000000000
         C            0.548547894261     0.526192609466     0.157437391048    12.000000000000
         C           -1.925285105739     0.134980609466    -0.025337608952    12.000000000000
         C            1.911284894261    -0.117729390534    -0.025337608952    12.000000000000
         H           -0.387675105739    -1.216652390534    -0.661140608952     1.007825032230
         H           -0.545361105739    -1.099148390534     1.080217391048     1.007825032230
         H            0.373674894261     1.233905609466    -0.661137608952     1.007825032230
         H            0.531359894261     1.116395609466     1.080220391048     1.007825032230
         H           -2.861323105739    -1.636500390534     0.515020391048     1.007825032230
         H           -3.904004105739    -0.327058390534     0.090860391048     1.007825032230
         H            2.847321894261     1.653751609466     0.515019391048     1.007825032230
         H            3.890002894261     0.344310609466     0.090860391048     1.007825032230

  Basis Set: AUG-CC-PVTZ
    Blend: AUG-CC-PVTZ
  Basis Set: (AUG-CC-PVTZ AUX)
    Blend: AUG-CC-PVTZ-JKFIT
	 Reference Energy          =    -414.9460016461864029 [Eh]
	 Singles Energy            =      -0.0000000000000000 [Eh]
	 Same-Spin Energy          =      -0.4144894486931144 [Eh]
	 Opposite-Spin Energy      =      -1.2906048527750587 [Eh]
	 Correlation Energy        =      -1.7050943014681730 [Eh]
	 Total Energy              =    -416.6510959476545963 [Eh]

	 ================> DF-SCS-MP2 Energies <==================
	-----------------------------------------------------------
	 SCS Same-Spin Scale       =       0.3333333333333333 [-]
	 SCS Opposite-Spin Scale   =       1.2000000000000000 [-]
	 SCS Same-Spin Energy      =      -0.1381631495643715 [Eh]
	 SCS Opposite-Spin Energy  =      -1.5487258233300703 [Eh]
	 SCS Correlation Energy    =      -1.6868889728944416 [Eh]
	 SCS Total Energy          =    -416.6328906190808539 [Eh]
	-----------------------------------------------------------

  Dipole Moment: [D]
     X:    -0.1668      Y:     0.0460      Z:     1.5846     Total:     1.5940

*** Psi4 exiting successfully. Buy a developer a beer!
