                               Psi4 1.4a3.dev225

  ==> Input File <==

--------------------------------------------------------------------------
#psi4
#
memory 32 gb

molecule  {
0 1
  O       -2.0737200     1.2628680    -0.4915300
  O        2.0737210    -1.2628680    -0.4915300
  N       -2.9762380    -0.6534170     0.3462040
  N        2.9762380     0.6534180     0.3462030
  C       -0.5555480    -0.5175680     0.1381390
  C        0.5555480     0.5175670     0.1381410
  C       -1.9182850     0.1263550    -0.0446340
  C        1.9182850    -0.1263550    -0.0446340
  H       -0.3806750    -1.2252780    -0.6804370
  H       -0.5383610    -1.1077740     1.0609210
  H        0.3806750     1.2252800    -0.6804340
  H        0.5383600     1.1077700     1.0609240
  H       -2.8543230    -1.6451260     0.4957240
  H       -3.8970040    -0.3356840     0.0715640
  H        2.8603557     1.5960461     0.4883232
  H        3.8970030     0.3356850     0.0715640
units angstrom
no_reorient  #important for SAPT in psi4, default
symmetry c1  #important for SAPT in psi4, default
}

set PROPERTIES_ORIGIN ["COM"]
properties('MP2/aug-cc-pvtz', properties = ['dipole'])
--------------------------------------------------------------------------

    Molecular point group: c1
  Charge       = 0
  Multiplicity = 1
  Basis Set: AUG-CC-PVTZ
    Blend: AUG-CC-PVTZ
  Basis Set: (AUG-CC-PVTZ AUX)
    Blend: AUG-CC-PVTZ-JKFIT

    Orbital Energies [Eh]
    ---------------------

    Doubly Occupied:

       1A    -20.527016     2A    -20.526959     3A    -15.590406
       4A    -15.585548     5A    -11.360114     6A    -11.360037
       7A    -11.247806     8A    -11.247164     9A     -1.381438
      10A     -1.379302    11A     -1.221444    12A     -1.214130
      13A     -1.076038    14A     -0.938519    15A     -0.810035
      16A     -0.779602    17A     -0.731850    18A     -0.724014
      19A     -0.681655    20A     -0.670842    21A     -0.638313
      22A     -0.610680    23A     -0.582452    24A     -0.564327
      25A     -0.551636    26A     -0.520529    27A     -0.499385
      28A     -0.433960    29A     -0.433622    30A     -0.423091
      31A     -0.419899

  @DF-RHF Final Energy:  -414.95910127698136

   => Energetics <=

    Nuclear Repulsion Energy =            366.0685627740103314
    One-Electron Energy =               -1292.5917059908028932
    Two-Electron Energy =                 511.5640419398111476
    Total Energy =                       -414.9591012769813574
  Basis Set: (AUG-CC-PVTZ AUX)
    Blend: AUG-CC-PVTZ-RI
    Molecular point group: c1

    Geometry (in Angstrom), charge = 0, multiplicity = 1:

       Center              X                  Y                   Z               Mass
    ------------   -----------------  -----------------  -----------------  -----------------
         O           -2.073772506979     1.263294189581    -0.475322096062    15.994914619570
         O            2.073668493021    -1.262441810419    -0.475322096062    15.994914619570
         N           -2.976290506979    -0.652990810419     0.362411903938    14.003074004430
         N            2.976185493021     0.653844189581     0.362410903938    14.003074004430
         C           -0.555600506979    -0.517141810419     0.154346903938    12.000000000000
         C            0.555495493021     0.517993189581     0.154348903938    12.000000000000
         C           -1.918337506979     0.126781189581    -0.028426096062    12.000000000000
         C            1.918232493021    -0.125928810419    -0.028426096062    12.000000000000
         H           -0.380727506979    -1.224851810419    -0.664229096062     1.007825032230
         H           -0.538413506979    -1.107347810419     1.077128903938     1.007825032230
         H            0.380622493021     1.225706189581    -0.664226096062     1.007825032230
         H            0.538307493021     1.108196189581     1.077131903938     1.007825032230
         H           -2.854375506979    -1.644699810419     0.511931903938     1.007825032230
         H           -3.897056506979    -0.335257810419     0.087771903938     1.007825032230
         H            2.860303193021     1.596472289581     0.504531103938     1.007825032230
         H            3.896950493021     0.336111189581     0.087771903938     1.007825032230

  Basis Set: AUG-CC-PVTZ
    Blend: AUG-CC-PVTZ
  Basis Set: (AUG-CC-PVTZ AUX)
    Blend: AUG-CC-PVTZ-JKFIT
	 Reference Energy          =    -414.9591012769813574 [Eh]
	 Singles Energy            =      -0.0000000000000000 [Eh]
	 Same-Spin Energy          =      -0.4142897559945936 [Eh]
	 Opposite-Spin Energy      =      -1.2896211820120185 [Eh]
	 Correlation Energy        =      -1.7039109380066120 [Eh]
	 Total Energy              =    -416.6630122149879867 [Eh]

	 ================> DF-SCS-MP2 Energies <==================
	-----------------------------------------------------------
	 SCS Same-Spin Scale       =       0.3333333333333333 [-]
	 SCS Opposite-Spin Scale   =       1.2000000000000000 [-]
	 SCS Same-Spin Energy      =      -0.1380965853315312 [Eh]
	 SCS Opposite-Spin Energy  =      -1.5475454184144222 [Eh]
	 SCS Correlation Energy    =      -1.6856420037459534 [Eh]
	 SCS Total Energy          =    -416.6447432807273117 [Eh]
	-----------------------------------------------------------

  Dipole Moment: [D]
     X:    -0.0023      Y:    -0.0425      Z:     1.5541     Total:     1.5546

*** Psi4 exiting successfully. Buy a developer a beer!
