                               Psi4 1.4a3.dev225

  ==> Input File <==

--------------------------------------------------------------------------
#psi4
#
memory 32 gb

molecule  {
0 1
  O       -2.0737200     1.2628680    -0.4915300
  O        2.0737210    -1.2628680    -0.4915300
  N       -2.9762380    -0.6534170     0.3462040
  N        2.9762380     0.6534180     0.3462030
  C       -0.5555480    -0.5175680     0.1381390
  C        0.5555480     0.5175670     0.1381410
  C       -1.9182850     0.1263550    -0.0446340
  C        1.9182850    -0.1263550    -0.0446340
  H       -0.3806750    -1.2252780    -0.6804370
  H       -0.5383610    -1.1077740     1.0609210
  H        0.3806750     1.2252800    -0.6804340
  H        0.5367911     1.1616442     1.1451564
  H       -2.8543230    -1.6451260     0.4957240
  H       -3.8970040    -0.3356840     0.0715640
  H        2.8543220     1.6451260     0.4957230
  H        3.8970030     0.3356850     0.0715640
units angstrom
no_reorient  #important for SAPT in psi4, default
symmetry c1  #important for SAPT in psi4, default
}

set PROPERTIES_ORIGIN ["COM"]
properties('MP2/aug-cc-pvtz', properties = ['dipole'])
--------------------------------------------------------------------------

    Molecular point group: c1
  Charge       = 0
  Multiplicity = 1
  Basis Set: AUG-CC-PVTZ
    Blend: AUG-CC-PVTZ
  Basis Set: (AUG-CC-PVTZ AUX)
    Blend: AUG-CC-PVTZ-JKFIT

    Orbital Energies [Eh]
    ---------------------

    Doubly Occupied:

       1A    -20.527748     2A    -20.526982     3A    -15.590543
       4A    -15.590057     5A    -11.360934     6A    -11.360185
       7A    -11.258710     8A    -11.248282     9A     -1.381573
      10A     -1.379410    11A     -1.214250    12A     -1.213814
      13A     -1.072974    14A     -0.934920    15A     -0.806783
      16A     -0.773888    17A     -0.724000    18A     -0.721919
      19A     -0.681273    20A     -0.664377    21A     -0.637890
      22A     -0.609817    23A     -0.580185    24A     -0.562949
      25A     -0.548517    26A     -0.520675    27A     -0.492566
      28A     -0.433946    29A     -0.433629    30A     -0.422709
      31A     -0.419559

  @DF-RHF Final Energy:  -414.95296728536277

   => Energetics <=

    Nuclear Repulsion Energy =            365.3349239827012980
    One-Electron Energy =               -1291.1856568132891425
    Two-Electron Energy =                 510.8977655452250701
    Total Energy =                       -414.9529672853627744
  Basis Set: (AUG-CC-PVTZ AUX)
    Blend: AUG-CC-PVTZ-RI
    Molecular point group: c1

    Geometry (in Angstrom), charge = 0, multiplicity = 1:

       Center              X                  Y                   Z               Mass
    ------------   -----------------  -----------------  -----------------  -----------------
         O           -2.073706487813     1.262400160709    -0.476117808252    15.994914619570
         O            2.073734512187    -1.263335839291    -0.476117808252    15.994914619570
         N           -2.976224487813    -0.653884839291     0.361616191748    14.003074004430
         N            2.976251512187     0.652950160709     0.361615191748    14.003074004430
         C           -0.555534487813    -0.518035839291     0.153551191748    12.000000000000
         C            0.555561512187     0.517099160709     0.153553191748    12.000000000000
         C           -1.918271487813     0.125887160709    -0.029221808252    12.000000000000
         C            1.918298512187    -0.126822839291    -0.029221808252    12.000000000000
         H           -0.380661487813    -1.225745839291    -0.665024808252     1.007825032230
         H           -0.538347487813    -1.108241839291     1.076333191748     1.007825032230
         H            0.380688512187     1.224812160709    -0.665021808252     1.007825032230
         H            0.536804612187     1.161176360709     1.160568591748     1.007825032230
         H           -2.854309487813    -1.645593839291     0.511136191748     1.007825032230
         H           -3.896990487813    -0.336151839291     0.086976191748     1.007825032230
         H            2.854335512187     1.644658160709     0.511135191748     1.007825032230
         H            3.897016512187     0.335217160709     0.086976191748     1.007825032230

  Basis Set: AUG-CC-PVTZ
    Blend: AUG-CC-PVTZ
  Basis Set: (AUG-CC-PVTZ AUX)
    Blend: AUG-CC-PVTZ-JKFIT
	 Reference Energy          =    -414.9529672853627744 [Eh]
	 Singles Energy            =      -0.0000000000000000 [Eh]
	 Same-Spin Energy          =      -0.4146653605921536 [Eh]
	 Opposite-Spin Energy      =      -1.2911988219027988 [Eh]
	 Correlation Energy        =      -1.7058641824949525 [Eh]
	 Total Energy              =    -416.6588314678577376 [Eh]

	 ================> DF-SCS-MP2 Energies <==================
	-----------------------------------------------------------
	 SCS Same-Spin Scale       =       0.3333333333333333 [-]
	 SCS Opposite-Spin Scale   =       1.2000000000000000 [-]
	 SCS Same-Spin Energy      =      -0.1382217868640512 [Eh]
	 SCS Opposite-Spin Energy  =      -1.5494385862833584 [Eh]
	 SCS Correlation Energy    =      -1.6876603731474096 [Eh]
	 SCS Total Energy          =    -416.6406276585101978 [Eh]
	-----------------------------------------------------------

  Dipole Moment: [D]
     X:    -0.0089      Y:    -0.0391      Z:     1.5307     Total:     1.5313

*** Psi4 exiting successfully. Buy a developer a beer!
