                               Psi4 1.4a3.dev225

  ==> Input File <==

--------------------------------------------------------------------------
#psi4
#
memory 32 gb

molecule  {
0 1
  O       -2.0737200     1.2628680    -0.4915300
  O        2.0737210    -1.2628680    -0.4915300
  N       -2.9762380    -0.6534170     0.3462040
  N        2.9762380     0.6534180     0.3462030
  C       -0.5555480    -0.5175680     0.1381390
  C        0.5555480     0.5175670     0.1381410
  C       -1.9182850     0.1263550    -0.0446340
  C        1.9182850    -0.1263550    -0.0446340
  H       -0.3806750    -1.2252780    -0.6804370
  H       -0.5383610    -1.1077740     1.0609210
  H        0.3806750     1.2252800    -0.6804340
  H        0.5383600     1.1077700     1.0609240
  H       -2.8543230    -1.6451260     0.4957240
  H       -3.8970040    -0.3356840     0.0715640
  H        2.8543220     1.6451260     0.4957230
  H        3.8970030     0.3356850     0.0715640
units angstrom
no_reorient  #important for SAPT in psi4, default
symmetry c1  #important for SAPT in psi4, default
}

set PROPERTIES_ORIGIN ["COM"]
properties('MP2/aug-cc-pvtz', properties = ['dipole'])
--------------------------------------------------------------------------

    Molecular point group: c1
  Charge       = 0
  Multiplicity = 1
  Basis Set: AUG-CC-PVTZ
    Blend: AUG-CC-PVTZ
  Basis Set: (AUG-CC-PVTZ AUX)
    Blend: AUG-CC-PVTZ-JKFIT

    Orbital Energies [Eh]
    ---------------------

    Doubly Occupied:

       1A    -20.526861     2A    -20.526861     3A    -15.590313
       4A    -15.590313     5A    -11.359923     6A    -11.359921
       7A    -11.247564     8A    -11.246924     9A     -1.381121
      10A     -1.379024    11A     -1.214056    12A     -1.214013
      13A     -1.075619    14A     -0.937778    15A     -0.806768
      16A     -0.775881    17A     -0.723925    18A     -0.723839
      19A     -0.681052    20A     -0.670518    21A     -0.637770
      22A     -0.609523    23A     -0.582109    24A     -0.563670
      25A     -0.551221    26A     -0.520266    27A     -0.499167
      28A     -0.433575    29A     -0.433395    30A     -0.422561
      31A     -0.419512

  @DF-RHF Final Energy:  -414.95965425167606

   => Energetics <=

    Nuclear Repulsion Energy =            365.8028783222268316
    One-Electron Energy =               -1292.1149818807120937
    Two-Electron Energy =                 511.3524493068091488
    Total Energy =                       -414.9596542516760564
  Basis Set: (AUG-CC-PVTZ AUX)
    Blend: AUG-CC-PVTZ-RI
    Molecular point group: c1

    Geometry (in Angstrom), charge = 0, multiplicity = 1:

       Center              X                  Y                   Z               Mass
    ------------   -----------------  -----------------  -----------------  -----------------
         O           -2.073720111766     1.262867991425    -0.475386354162    15.994914619570
         O            2.073720888234    -1.262868008575    -0.475386354162    15.994914619570
         N           -2.976238111766    -0.653417008575     0.362347645838    14.003074004430
         N            2.976237888234     0.653417991425     0.362346645838    14.003074004430
         C           -0.555548111766    -0.517568008575     0.154282645838    12.000000000000
         C            0.555547888234     0.517566991425     0.154284645838    12.000000000000
         C           -1.918285111766     0.126354991425    -0.028490354162    12.000000000000
         C            1.918284888234    -0.126355008575    -0.028490354162    12.000000000000
         H           -0.380675111766    -1.225278008575    -0.664293354162     1.007825032230
         H           -0.538361111766    -1.107774008575     1.077064645838     1.007825032230
         H            0.380674888234     1.225279991425    -0.664290354162     1.007825032230
         H            0.538359888234     1.107769991425     1.077067645838     1.007825032230
         H           -2.854323111766    -1.645126008575     0.511867645838     1.007825032230
         H           -3.897004111766    -0.335684008575     0.087707645838     1.007825032230
         H            2.854321888234     1.645125991425     0.511866645838     1.007825032230
         H            3.897002888234     0.335684991425     0.087707645838     1.007825032230

  Basis Set: AUG-CC-PVTZ
    Blend: AUG-CC-PVTZ
  Basis Set: (AUG-CC-PVTZ AUX)
    Blend: AUG-CC-PVTZ-JKFIT
	 Reference Energy          =    -414.9596542516760564 [Eh]
	 Singles Energy            =      -0.0000000000000000 [Eh]
	 Same-Spin Energy          =      -0.4145896062387568 [Eh]
	 Opposite-Spin Energy      =      -1.2904041707106326 [Eh]
	 Correlation Energy        =      -1.7049937769493895 [Eh]
	 Total Energy              =    -416.6646480286254359 [Eh]

	 ================> DF-SCS-MP2 Energies <==================
	-----------------------------------------------------------
	 SCS Same-Spin Scale       =       0.3333333333333333 [-]
	 SCS Opposite-Spin Scale   =       1.2000000000000000 [-]
	 SCS Same-Spin Energy      =      -0.1381965354129189 [Eh]
	 SCS Opposite-Spin Energy  =      -1.5484850048527592 [Eh]
	 SCS Correlation Energy    =      -1.6866815402656781 [Eh]
	 SCS Total Energy          =    -416.6463357919417376 [Eh]
	-----------------------------------------------------------

  Dipole Moment: [D]
     X:    -0.0000      Y:    -0.0000      Z:     1.5619     Total:     1.5619

*** Psi4 exiting successfully. Buy a developer a beer!
