                               Psi4 1.4a3.dev225

  ==> Input File <==

--------------------------------------------------------------------------
#psi4
#
memory 32 gb

molecule  {
0 1
  O       -2.0524317     1.2646833    -0.4938012
  O        2.0737210    -1.2628680    -0.4915300
  N       -2.9762380    -0.6534170     0.3462040
  N        2.9762380     0.6534180     0.3462030
  C       -0.5555480    -0.5175680     0.1381390
  C        0.5555480     0.5175670     0.1381410
  C       -1.9182850     0.1263550    -0.0446340
  C        1.9182850    -0.1263550    -0.0446340
  H       -0.3806750    -1.2252780    -0.6804370
  H       -0.5383610    -1.1077740     1.0609210
  H        0.3806750     1.2252800    -0.6804340
  H        0.5383600     1.1077700     1.0609240
  H       -2.8543230    -1.6451260     0.4957240
  H       -3.8970040    -0.3356840     0.0715640
  H        2.8543220     1.6451260     0.4957230
  H        3.8970030     0.3356850     0.0715640
units angstrom
no_reorient  #important for SAPT in psi4, default
symmetry c1  #important for SAPT in psi4, default
}

set PROPERTIES_ORIGIN ["COM"]
properties('MP2/aug-cc-pvtz', properties = ['dipole'])
--------------------------------------------------------------------------

    Molecular point group: c1
  Charge       = 0
  Multiplicity = 1
  Basis Set: AUG-CC-PVTZ
    Blend: AUG-CC-PVTZ
  Basis Set: (AUG-CC-PVTZ AUX)
    Blend: AUG-CC-PVTZ-JKFIT

    Orbital Energies [Eh]
    ---------------------

    Doubly Occupied:

       1A    -20.527179     2A    -20.526349     3A    -15.591571
       4A    -15.589890     5A    -11.360099     6A    -11.359383
       7A    -11.246673     8A    -11.245987     9A     -1.380917
      10A     -1.378725    11A     -1.215478    12A     -1.213594
      13A     -1.074723    14A     -0.937189    15A     -0.806919
      16A     -0.775775    17A     -0.724342    18A     -0.723384
      19A     -0.681200    20A     -0.670133    21A     -0.637737
      22A     -0.609541    23A     -0.581862    24A     -0.563226
      25A     -0.550699    26A     -0.519635    27A     -0.498546
      28A     -0.433424    29A     -0.432943    30A     -0.423022
      31A     -0.419474

  @DF-RHF Final Energy:  -414.95950618271434

   => Energetics <=

    Nuclear Repulsion Energy =            365.9482928339496652
    One-Electron Energy =               -1292.4163652169052057
    Two-Electron Energy =                 511.5085662002412619
    Total Energy =                       -414.9595061827143354
  Basis Set: (AUG-CC-PVTZ AUX)
    Blend: AUG-CC-PVTZ-RI
    Molecular point group: c1

    Geometry (in Angstrom), charge = 0, multiplicity = 1:

       Center              X                  Y                   Z               Mass
    ------------   -----------------  -----------------  -----------------  -----------------
         O           -2.055365714182     1.264433111135    -0.477344542829    15.994914619570
         O            2.070786985818    -1.263118188865    -0.475073342829    15.994914619570
         N           -2.979172014182    -0.653667188865     0.362660657171    14.003074004430
         N            2.973303985818     0.653167811135     0.362659657171    14.003074004430
         C           -0.558482014182    -0.517818188865     0.154595657171    12.000000000000
         C            0.552613985818     0.517316811135     0.154597657171    12.000000000000
         C           -1.921219014182     0.126104811135    -0.028177342829    12.000000000000
         C            1.915350985818    -0.126605188865    -0.028177342829    12.000000000000
         H           -0.383609014182    -1.225528188865    -0.663980342829     1.007825032230
         H           -0.541295014182    -1.108024188865     1.077377657171     1.007825032230
         H            0.377740985818     1.225029811135    -0.663977342829     1.007825032230
         H            0.535425985818     1.107519811135     1.077380657171     1.007825032230
         H           -2.857257014182    -1.645376188865     0.512180657171     1.007825032230
         H           -3.899938014182    -0.335934188865     0.088020657171     1.007825032230
         H            2.851387985818     1.644875811135     0.512179657171     1.007825032230
         H            3.894068985818     0.335434811135     0.088020657171     1.007825032230

  Basis Set: AUG-CC-PVTZ
    Blend: AUG-CC-PVTZ
  Basis Set: (AUG-CC-PVTZ AUX)
    Blend: AUG-CC-PVTZ-JKFIT
	 Reference Energy          =    -414.9595061827143354 [Eh]
	 Singles Energy            =      -0.0000000000000000 [Eh]
	 Same-Spin Energy          =      -0.4146198722141349 [Eh]
	 Opposite-Spin Energy      =      -1.2904362709483690 [Eh]
	 Correlation Energy        =      -1.7050561431625040 [Eh]
	 Total Energy              =    -416.6645623258768296 [Eh]

	 ================> DF-SCS-MP2 Energies <==================
	-----------------------------------------------------------
	 SCS Same-Spin Scale       =       0.3333333333333333 [-]
	 SCS Opposite-Spin Scale   =       1.2000000000000000 [-]
	 SCS Same-Spin Energy      =      -0.1382066240713783 [Eh]
	 SCS Opposite-Spin Energy  =      -1.5485235251380427 [Eh]
	 SCS Correlation Energy    =      -1.6867301492094209 [Eh]
	 SCS Total Energy          =    -416.6462363319237738 [Eh]
	-----------------------------------------------------------

  Dipole Moment: [D]
     X:    -0.0759      Y:    -0.0002      Z:     1.5644     Total:     1.5662

*** Psi4 exiting successfully. Buy a developer a beer!
