                               Psi4 1.4a3.dev225

  ==> Input File <==

--------------------------------------------------------------------------
#psi4
#
memory 32 gb

molecule  {
0 1
  O       -2.0737200     1.2628680    -0.4915300
  O        2.0737210    -1.2628680    -0.4915300
  N       -2.9762380    -0.6534170     0.3462040
  N        2.9762380     0.6534180     0.3462030
  C       -0.5555480    -0.5175680     0.1381390
  C        0.5555480     0.5175670     0.1381410
  C       -1.9182850     0.1263550    -0.0446340
  C        1.9182850    -0.1263550    -0.0446340
  H       -0.3744568    -1.3071426    -0.6002908
  H       -0.5383610    -1.1077740     1.0609210
  H        0.3806750     1.2252800    -0.6804340
  H        0.5383600     1.1077700     1.0609240
  H       -2.8543230    -1.6451260     0.4957240
  H       -3.8970040    -0.3356840     0.0715640
  H        2.8543220     1.6451260     0.4957230
  H        3.8970030     0.3356850     0.0715640
units angstrom
no_reorient  #important for SAPT in psi4, default
symmetry c1  #important for SAPT in psi4, default
}

set PROPERTIES_ORIGIN ["COM"]
properties('MP2/aug-cc-pvtz', properties = ['dipole'])
--------------------------------------------------------------------------

    Molecular point group: c1
  Charge       = 0
  Multiplicity = 1
  Basis Set: AUG-CC-PVTZ
    Blend: AUG-CC-PVTZ
  Basis Set: (AUG-CC-PVTZ AUX)
    Blend: AUG-CC-PVTZ-JKFIT

    Orbital Energies [Eh]
    ---------------------

    Doubly Occupied:

       1A    -20.527383     2A    -20.526946     3A    -15.590400
       4A    -15.590133     5A    -11.360632     6A    -11.360068
       7A    -11.247799     8A    -11.246725     9A     -1.381305
      10A     -1.379222    11A     -1.214131    12A     -1.214005
      13A     -1.075000    14A     -0.938144    15A     -0.806874
      16A     -0.777155    17A     -0.726088    18A     -0.723815
      19A     -0.681361    20A     -0.668257    21A     -0.636453
      22A     -0.609972    23A     -0.581253    24A     -0.564929
      25A     -0.550140    26A     -0.524052    27A     -0.493956
      28A     -0.434637    29A     -0.433506    30A     -0.422663
      31A     -0.419625

  @DF-RHF Final Energy:  -414.95817653836815

   => Energetics <=

    Nuclear Repulsion Energy =            365.7317610411508326
    One-Electron Energy =               -1291.9666271760302152
    Two-Electron Energy =                 511.2766895965112894
    Total Energy =                       -414.9581765383681500
  Basis Set: (AUG-CC-PVTZ AUX)
    Blend: AUG-CC-PVTZ-RI
    Molecular point group: c1

    Geometry (in Angstrom), charge = 0, multiplicity = 1:

       Center              X                  Y                   Z               Mass
    ------------   -----------------  -----------------  -----------------  -----------------
         O           -2.073774109133     1.263578884104    -0.476082324665    15.994914619570
         O            2.073666890867    -1.262157115896    -0.476082324665    15.994914619570
         N           -2.976292109133    -0.652706115896     0.361651675335    14.003074004430
         N            2.976183890867     0.654128884104     0.361650675335    14.003074004430
         C           -0.555602109133    -0.516857115896     0.153586675335    12.000000000000
         C            0.555493890867     0.518277884104     0.153588675335    12.000000000000
         C           -1.918339109133     0.127065884104    -0.029186324665    12.000000000000
         C            1.918230890867    -0.125644115896    -0.029186324665    12.000000000000
         H           -0.374510909133    -1.306431715896    -0.584843124665     1.007825032230
         H           -0.538415109133    -1.107063115896     1.076368675335     1.007825032230
         H            0.380620890867     1.225990884104    -0.664986324665     1.007825032230
         H            0.538305890867     1.108480884104     1.076371675335     1.007825032230
         H           -2.854377109133    -1.644415115896     0.511171675335     1.007825032230
         H           -3.897058109133    -0.334973115896     0.087011675335     1.007825032230
         H            2.854267890867     1.645836884104     0.511170675335     1.007825032230
         H            3.896948890867     0.336395884104     0.087011675335     1.007825032230

  Basis Set: AUG-CC-PVTZ
    Blend: AUG-CC-PVTZ
  Basis Set: (AUG-CC-PVTZ AUX)
    Blend: AUG-CC-PVTZ-JKFIT
	 Reference Energy          =    -414.9581765383681500 [Eh]
	 Singles Energy            =      -0.0000000000000000 [Eh]
	 Same-Spin Energy          =      -0.4146707072761068 [Eh]
	 Opposite-Spin Energy      =      -1.2904753689866102 [Eh]
	 Correlation Energy        =      -1.7051460762627171 [Eh]
	 Total Energy              =    -416.6633226146308857 [Eh]

	 ================> DF-SCS-MP2 Energies <==================
	-----------------------------------------------------------
	 SCS Same-Spin Scale       =       0.3333333333333333 [-]
	 SCS Opposite-Spin Scale   =       1.2000000000000000 [-]
	 SCS Same-Spin Energy      =      -0.1382235690920356 [Eh]
	 SCS Opposite-Spin Energy  =      -1.5485704427839322 [Eh]
	 SCS Correlation Energy    =      -1.6867940118759677 [Eh]
	 SCS Total Energy          =    -416.6449705502441248 [Eh]
	-----------------------------------------------------------

  Dipole Moment: [D]
     X:     0.0138      Y:    -0.0283      Z:     1.5826     Total:     1.5829

*** Psi4 exiting successfully. Buy a developer a beer!
