                               Psi4 1.4a3.dev225

  ==> Input File <==

--------------------------------------------------------------------------
#psi4
#
memory 32 gb

molecule  {
0 1
  O       -2.0737200     1.2628680    -0.4915300
  O        2.0737210    -1.2628680    -0.4915300
  N       -2.9762380    -0.6534170     0.3462040
  N        2.9762380     0.6534180     0.3462030
  C       -0.5555480    -0.5175680     0.1381390
  C        0.5555480     0.5175670     0.1381410
  C       -1.9182850     0.1263550    -0.0446340
  C        1.9182850    -0.1263550    -0.0446340
  H       -0.3806750    -1.2252780    -0.6804370
  H       -0.5383610    -1.1077740     1.0609210
  H        0.3806750     1.2252800    -0.6804340
  H        0.5352221     1.2155185     1.2293889
  H       -2.8543230    -1.6451260     0.4957240
  H       -3.8970040    -0.3356840     0.0715640
  H        2.8543220     1.6451260     0.4957230
  H        3.8970030     0.3356850     0.0715640
units angstrom
no_reorient  #important for SAPT in psi4, default
symmetry c1  #important for SAPT in psi4, default
}

set PROPERTIES_ORIGIN ["COM"]
properties('MP2/aug-cc-pvtz', properties = ['dipole'])
--------------------------------------------------------------------------

    Molecular point group: c1
  Charge       = 0
  Multiplicity = 1
  Basis Set: AUG-CC-PVTZ
    Blend: AUG-CC-PVTZ
  Basis Set: (AUG-CC-PVTZ AUX)
    Blend: AUG-CC-PVTZ-JKFIT

    Orbital Energies [Eh]
    ---------------------

    Doubly Occupied:

       1A    -20.528844     2A    -20.527165     3A    -15.590840
       4A    -15.589894     5A    -11.362182     6A    -11.360541
       7A    -11.269331     8A    -11.249571     9A     -1.382273
      10A     -1.379811    11A     -1.214533    12A     -1.213729
      13A     -1.071673    14A     -0.933240    15A     -0.807020
      16A     -0.772765    17A     -0.724242    18A     -0.720958
      19A     -0.681679    20A     -0.659618    21A     -0.638044
      22A     -0.610281    23A     -0.579163    24A     -0.563016
      25A     -0.545572    26A     -0.521503    27A     -0.483617
      28A     -0.434436    29A     -0.433809    30A     -0.422932
      31A     -0.419607

  @DF-RHF Final Energy:  -414.93933413659323

   => Energetics <=

    Nuclear Repulsion Energy =            364.9081994579619277
    One-Electron Energy =               -1290.3112875869851450
    Two-Electron Energy =                 510.4637539924299858
    Total Energy =                       -414.9393341365932315
  Basis Set: (AUG-CC-PVTZ AUX)
    Blend: AUG-CC-PVTZ-RI
    Molecular point group: c1

    Geometry (in Angstrom), charge = 0, multiplicity = 1:

       Center              X                  Y                   Z               Mass
    ------------   -----------------  -----------------  -----------------  -----------------
         O           -2.073692862990     1.261932329125    -0.476849263211    15.994914619570
         O            2.073748137010    -1.263803670875    -0.476849263211    15.994914619570
         N           -2.976210862990    -0.654352670875     0.360884736789    14.003074004430
         N            2.976265137010     0.652482329125     0.360883736789    14.003074004430
         C           -0.555520862990    -0.518503670875     0.152819736789    12.000000000000
         C            0.555575137010     0.516631329125     0.152821736789    12.000000000000
         C           -1.918257862990     0.125419329125    -0.029953263211    12.000000000000
         C            1.918312137010    -0.127290670875    -0.029953263211    12.000000000000
         H           -0.380647862990    -1.226213670875    -0.665756263211     1.007825032230
         H           -0.538333862990    -1.108709670875     1.075601736789     1.007825032230
         H            0.380702137010     1.224344329125    -0.665753263211     1.007825032230
         H            0.535249237010     1.214582829125     1.244069636789     1.007825032230
         H           -2.854295862990    -1.646061670875     0.510404736789     1.007825032230
         H           -3.896976862990    -0.336619670875     0.086244736789     1.007825032230
         H            2.854349137010     1.644190329125     0.510403736789     1.007825032230
         H            3.897030137010     0.334749329125     0.086244736789     1.007825032230

  Basis Set: AUG-CC-PVTZ
    Blend: AUG-CC-PVTZ
  Basis Set: (AUG-CC-PVTZ AUX)
    Blend: AUG-CC-PVTZ-JKFIT
	 Reference Energy          =    -414.9393341365932315 [Eh]
	 Singles Energy            =      -0.0000000000000000 [Eh]
	 Same-Spin Energy          =      -0.4147547319188413 [Eh]
	 Opposite-Spin Energy      =      -1.2921761969556760 [Eh]
	 Correlation Energy        =      -1.7069309288745171 [Eh]
	 Total Energy              =    -416.6462650654677304 [Eh]

	 ================> DF-SCS-MP2 Energies <==================
	-----------------------------------------------------------
	 SCS Same-Spin Scale       =       0.3333333333333333 [-]
	 SCS Opposite-Spin Scale   =       1.2000000000000000 [-]
	 SCS Same-Spin Energy      =      -0.1382515773062804 [Eh]
	 SCS Opposite-Spin Energy  =      -1.5506114363468111 [Eh]
	 SCS Correlation Energy    =      -1.6888630136530915 [Eh]
	 SCS Total Energy          =    -416.6281971502463080 [Eh]
	-----------------------------------------------------------

  Dipole Moment: [D]
     X:    -0.0169      Y:    -0.0877      Z:     1.4891     Total:     1.4918

*** Psi4 exiting successfully. Buy a developer a beer!
