                               Psi4 1.4a3.dev225

  ==> Input File <==

--------------------------------------------------------------------------
#psi4
#
memory 32 gb

molecule  {
0 1
  O       -2.0737200     1.2628680    -0.4915300
  O        2.0737210    -1.2628680    -0.4915300
  N       -2.9762380    -0.6534170     0.3462040
  N        2.9762380     0.6534180     0.3462030
  C       -0.5555480    -0.5175680     0.1381390
  C        0.5555480     0.5175670     0.1381410
  C       -1.9435370     0.3109930    -0.1172367
  C        1.9182850    -0.1263550    -0.0446340
  H       -0.3806750    -1.2252780    -0.6804370
  H       -0.5383610    -1.1077740     1.0609210
  H        0.3806750     1.2252800    -0.6804340
  H        0.5383600     1.1077700     1.0609240
  H       -2.8543230    -1.6451260     0.4957240
  H       -3.8970040    -0.3356840     0.0715640
  H        2.8543220     1.6451260     0.4957230
  H        3.8970030     0.3356850     0.0715640
units angstrom
no_reorient  #important for SAPT in psi4, default
symmetry c1  #important for SAPT in psi4, default
}

set PROPERTIES_ORIGIN ["COM"]
properties('MP2/aug-cc-pvtz', properties = ['dipole'])
--------------------------------------------------------------------------

    Molecular point group: c1
  Charge       = 0
  Multiplicity = 1
  Basis Set: AUG-CC-PVTZ
    Blend: AUG-CC-PVTZ
  Basis Set: (AUG-CC-PVTZ AUX)
    Blend: AUG-CC-PVTZ-JKFIT

    Orbital Energies [Eh]
    ---------------------

    Doubly Occupied:

       1A    -20.566307     2A    -20.524231     3A    -15.588354
       4A    -15.557495     5A    -11.356694     6A    -11.350730
       7A    -11.243538     8A    -11.236258     9A     -1.545543
      10A     -1.377206    11A     -1.211976    12A     -1.167730
      13A     -1.063235    14A     -0.911539    15A     -0.791888
      16A     -0.767230    17A     -0.734152    18A     -0.716177
      19A     -0.699244    20A     -0.672361    21A     -0.659846
      22A     -0.644965    23A     -0.616355    24A     -0.583356
      25A     -0.555134    26A     -0.521438    27A     -0.500524
      28A     -0.432724    29A     -0.422236    30A     -0.418781
      31A     -0.399977

  @DF-RHF Final Energy:  -414.88205937083677

   => Energetics <=

    Nuclear Repulsion Energy =            367.1432181058823403
    One-Electron Energy =               -1294.3761086075548974
    Two-Electron Energy =                 512.3508311308357861
    Total Energy =                       -414.8820593708367142
  Basis Set: (AUG-CC-PVTZ AUX)
    Blend: AUG-CC-PVTZ-RI
    Molecular point group: c1

    Geometry (in Angstrom), charge = 0, multiplicity = 1:

       Center              X                  Y                   Z               Mass
    ------------   -----------------  -----------------  -----------------  -----------------
         O           -2.071109154382     1.243777149131    -0.467879520814    15.994914619570
         O            2.076331845618    -1.281958850869    -0.467879520814    15.994914619570
         N           -2.973627154382    -0.672507850869     0.369854479186    14.003074004430
         N            2.978848845618     0.634327149131     0.369853479186    14.003074004430
         C           -0.552937154382    -0.536658850869     0.161789479186    12.000000000000
         C            0.558158845618     0.498476149131     0.161791479186    12.000000000000
         C           -1.940926154382     0.291902149131    -0.093586220814    12.000000000000
         C            1.920895845618    -0.145445850869    -0.020983520814    12.000000000000
         H           -0.378064154382    -1.244368850869    -0.656786520814     1.007825032230
         H           -0.535750154382    -1.126864850869     1.084571479186     1.007825032230
         H            0.383285845618     1.206189149131    -0.656783520814     1.007825032230
         H            0.540970845618     1.088679149131     1.084574479186     1.007825032230
         H           -2.851712154382    -1.664216850869     0.519374479186     1.007825032230
         H           -3.894393154382    -0.354774850869     0.095214479186     1.007825032230
         H            2.856932845618     1.626035149131     0.519373479186     1.007825032230
         H            3.899613845618     0.316594149131     0.095214479186     1.007825032230

  Basis Set: AUG-CC-PVTZ
    Blend: AUG-CC-PVTZ
  Basis Set: (AUG-CC-PVTZ AUX)
    Blend: AUG-CC-PVTZ-JKFIT
	 Reference Energy          =    -414.8820593708367710 [Eh]
	 Singles Energy            =      -0.0000000000000000 [Eh]
	 Same-Spin Energy          =      -0.4111185980671623 [Eh]
	 Opposite-Spin Energy      =      -1.2839416583775662 [Eh]
	 Correlation Energy        =      -1.6950602564447286 [Eh]
	 Total Energy              =    -416.5771196272814905 [Eh]

	 ================> DF-SCS-MP2 Energies <==================
	-----------------------------------------------------------
	 SCS Same-Spin Scale       =       0.3333333333333333 [-]
	 SCS Opposite-Spin Scale   =       1.2000000000000000 [-]
	 SCS Same-Spin Energy      =      -0.1370395326890541 [Eh]
	 SCS Opposite-Spin Energy  =      -1.5407299900530795 [Eh]
	 SCS Correlation Energy    =      -1.6777695227421336 [Eh]
	 SCS Total Energy          =    -416.5598288935789242 [Eh]
	-----------------------------------------------------------

  Dipole Moment: [D]
     X:     0.1708      Y:     1.4842      Z:     0.9272     Total:     1.7584

*** Psi4 exiting successfully. Buy a developer a beer!
