                               Psi4 1.4a3.dev225

  ==> Input File <==

--------------------------------------------------------------------------
#psi4
#
memory 32 gb

molecule  {
0 1
  O       -2.0737200     1.2628680    -0.4915300
  O        2.0737210    -1.2628680    -0.4915300
  N       -2.9762380    -0.6534170     0.3462040
  N        2.9762380     0.6534180     0.3462030
  C       -0.5555480    -0.5175680     0.1381390
  C        0.5555480     0.5175670     0.1381410
  C       -1.9245980     0.1725145    -0.0627847
  C        1.9182850    -0.1263550    -0.0446340
  H       -0.3806750    -1.2252780    -0.6804370
  H       -0.5383610    -1.1077740     1.0609210
  H        0.3806750     1.2252800    -0.6804340
  H        0.5383600     1.1077700     1.0609240
  H       -2.8543230    -1.6451260     0.4957240
  H       -3.8970040    -0.3356840     0.0715640
  H        2.8543220     1.6451260     0.4957230
  H        3.8970030     0.3356850     0.0715640
units angstrom
no_reorient  #important for SAPT in psi4, default
symmetry c1  #important for SAPT in psi4, default
}

set PROPERTIES_ORIGIN ["COM"]
properties('MP2/aug-cc-pvtz', properties = ['dipole'])
--------------------------------------------------------------------------

    Molecular point group: c1
  Charge       = 0
  Multiplicity = 1
  Basis Set: AUG-CC-PVTZ
    Blend: AUG-CC-PVTZ
  Basis Set: (AUG-CC-PVTZ AUX)
    Blend: AUG-CC-PVTZ-JKFIT

    Orbital Energies [Eh]
    ---------------------

    Doubly Occupied:

       1A    -20.536434     2A    -20.526272     3A    -15.589866
       4A    -15.582457     5A    -11.359198     6A    -11.357832
       7A    -11.246357     8A    -11.244878     9A     -1.414800
      10A     -1.379409    11A     -1.213571    12A     -1.204548
      13A     -1.072289    14A     -0.930974    15A     -0.802087
      16A     -0.772629    17A     -0.724169    18A     -0.719262
      19A     -0.678551    20A     -0.671878    21A     -0.643606
      22A     -0.616775    23A     -0.586899    24A     -0.569563
      25A     -0.550675    26A     -0.521663    27A     -0.500337
      28A     -0.435877    29A     -0.432045    30A     -0.423664
      31A     -0.420010

  @DF-RHF Final Energy:  -414.95904742378269

   => Energetics <=

    Nuclear Repulsion Energy =            366.0178788424915410
    One-Electron Energy =               -1292.4967092205292829
    Two-Electron Energy =                 511.5197829542550494
    Total Energy =                       -414.9590474237826925
  Basis Set: (AUG-CC-PVTZ AUX)
    Blend: AUG-CC-PVTZ-RI
    Molecular point group: c1

    Geometry (in Angstrom), charge = 0, multiplicity = 1:

       Center              X                  Y                   Z               Mass
    ------------   -----------------  -----------------  -----------------  -----------------
         O           -2.073067372420     1.258095280851    -0.473509643240    15.994914619570
         O            2.074373627580    -1.267640719149    -0.473509643240    15.994914619570
         N           -2.975585372420    -0.658189719149     0.364224356760    14.003074004430
         N            2.976890627580     0.648645280851     0.364223356760    14.003074004430
         C           -0.554895372420    -0.522340719149     0.156159356760    12.000000000000
         C            0.556200627580     0.512794280851     0.156161356760    12.000000000000
         C           -1.923945372420     0.167741780851    -0.044764343240    12.000000000000
         C            1.918937627580    -0.131127719149    -0.026613643240    12.000000000000
         H           -0.380022372420    -1.230050719149    -0.662416643240     1.007825032230
         H           -0.537708372420    -1.112546719149     1.078941356760     1.007825032230
         H            0.381327627580     1.220507280851    -0.662413643240     1.007825032230
         H            0.539012627580     1.102997280851     1.078944356760     1.007825032230
         H           -2.853670372420    -1.649898719149     0.513744356760     1.007825032230
         H           -3.896351372420    -0.340456719149     0.089584356760     1.007825032230
         H            2.854974627580     1.640353280851     0.513743356760     1.007825032230
         H            3.897655627580     0.330912280851     0.089584356760     1.007825032230

  Basis Set: AUG-CC-PVTZ
    Blend: AUG-CC-PVTZ
  Basis Set: (AUG-CC-PVTZ AUX)
    Blend: AUG-CC-PVTZ-JKFIT
	 Reference Energy          =    -414.9590474237826925 [Eh]
	 Singles Energy            =      -0.0000000000000000 [Eh]
	 Same-Spin Energy          =      -0.4135609893330470 [Eh]
	 Opposite-Spin Energy      =      -1.2885115940900520 [Eh]
	 Correlation Energy        =      -1.7020725834230990 [Eh]
	 Total Energy              =    -416.6611200072057954 [Eh]

	 ================> DF-SCS-MP2 Energies <==================
	-----------------------------------------------------------
	 SCS Same-Spin Scale       =       0.3333333333333333 [-]
	 SCS Opposite-Spin Scale   =       1.2000000000000000 [-]
	 SCS Same-Spin Energy      =      -0.1378536631110157 [Eh]
	 SCS Opposite-Spin Energy  =      -1.5462139129080623 [Eh]
	 SCS Correlation Energy    =      -1.6840675760190780 [Eh]
	 SCS Total Energy          =    -416.6431149998017531 [Eh]
	-----------------------------------------------------------

  Dipole Moment: [D]
     X:     0.0415      Y:     0.3312      Z:     1.4192     Total:     1.4580

*** Psi4 exiting successfully. Buy a developer a beer!
