                               Psi4 1.4a3.dev225

  ==> Input File <==

--------------------------------------------------------------------------
#psi4
#
memory 32 gb

molecule  {
0 1
  O       -2.0737200     1.2628680    -0.4915300
  O        2.0737210    -1.2628680    -0.4915300
  N       -2.9762380    -0.6534170     0.3462040
  N        2.9762380     0.6534180     0.3462030
  C       -0.5555480    -0.5175680     0.1381390
  C        0.5555480     0.5175670     0.1381410
  C       -1.9182850     0.1263550    -0.0446340
  C        1.9182850    -0.1263550    -0.0446340
  H       -0.3806750    -1.2252780    -0.6804370
  H       -0.5383610    -1.1077740     1.0609210
  H        0.3806750     1.2252800    -0.6804340
  H        0.5383600     1.1077700     1.0609240
  H       -2.8543230    -1.6451260     0.4957240
  H       -3.8970040    -0.3356840     0.0715640
  H        2.8482883     1.6942059     0.5031228
  H        3.8970030     0.3356850     0.0715640
units angstrom
no_reorient  #important for SAPT in psi4, default
symmetry c1  #important for SAPT in psi4, default
}

set PROPERTIES_ORIGIN ["COM"]
properties('MP2/aug-cc-pvtz', properties = ['dipole'])
--------------------------------------------------------------------------

    Molecular point group: c1
  Charge       = 0
  Multiplicity = 1
  Basis Set: AUG-CC-PVTZ
    Blend: AUG-CC-PVTZ
  Basis Set: (AUG-CC-PVTZ AUX)
    Blend: AUG-CC-PVTZ-JKFIT

    Orbital Energies [Eh]
    ---------------------

    Doubly Occupied:

       1A    -20.526763     2A    -20.526757     3A    -15.594686
       4A    -15.590221     5A    -11.359808     6A    -11.359764
       7A    -11.247323     8A    -11.246680     9A     -1.380884
      10A     -1.378769    11A     -1.213940    12A     -1.207712
      13A     -1.075222    14A     -0.937133    15A     -0.804632
      16A     -0.772779    17A     -0.723767    18A     -0.715112
      19A     -0.680292    20A     -0.670154    21A     -0.637178
      22A     -0.608168    23A     -0.581772    24A     -0.562933
      25A     -0.550772    26A     -0.520009    27A     -0.498954
      28A     -0.433402    29A     -0.432971    30A     -0.422139
      31A     -0.419085

  @DF-RHF Final Energy:  -414.95594076597877

   => Energetics <=

    Nuclear Repulsion Energy =            365.5562451320182049
    One-Electron Energy =               -1291.6648067080664077
    Two-Electron Energy =                 511.1526208100694930
    Total Energy =                       -414.9559407659787666
  Basis Set: (AUG-CC-PVTZ AUX)
    Blend: AUG-CC-PVTZ-RI
    Molecular point group: c1

    Geometry (in Angstrom), charge = 0, multiplicity = 1:

       Center              X                  Y                   Z               Mass
    ------------   -----------------  -----------------  -----------------  -----------------
         O           -2.073667716553     1.262441793268    -0.475450612262    15.994914619570
         O            2.073773283447    -1.263294206732    -0.475450612262    15.994914619570
         N           -2.976185716553    -0.653843206732     0.362283387738    14.003074004430
         N            2.976290283447     0.652991793268     0.362282387738    14.003074004430
         C           -0.555495716553    -0.517994206732     0.154218387738    12.000000000000
         C            0.555600283447     0.517140793268     0.154220387738    12.000000000000
         C           -1.918232716553     0.125928793268    -0.028554612262    12.000000000000
         C            1.918337283447    -0.126781206732    -0.028554612262    12.000000000000
         H           -0.380622716553    -1.225704206732    -0.664357612262     1.007825032230
         H           -0.538308716553    -1.108200206732     1.077000387738     1.007825032230
         H            0.380727283447     1.224853793268    -0.664354612262     1.007825032230
         H            0.538412283447     1.107343793268     1.077003387738     1.007825032230
         H           -2.854270716553    -1.645552206732     0.511803387738     1.007825032230
         H           -3.896951716553    -0.336110206732     0.087643387738     1.007825032230
         H            2.848340583447     1.693779693268     0.519202187738     1.007825032230
         H            3.897055283447     0.335258793268     0.087643387738     1.007825032230

  Basis Set: AUG-CC-PVTZ
    Blend: AUG-CC-PVTZ
  Basis Set: (AUG-CC-PVTZ AUX)
    Blend: AUG-CC-PVTZ-JKFIT
	 Reference Energy          =    -414.9559407659787666 [Eh]
	 Singles Energy            =      -0.0000000000000000 [Eh]
	 Same-Spin Energy          =      -0.4149042434721418 [Eh]
	 Opposite-Spin Energy      =      -1.2912702144221364 [Eh]
	 Correlation Energy        =      -1.7061744578942784 [Eh]
	 Total Energy              =    -416.6621152238730588 [Eh]

	 ================> DF-SCS-MP2 Energies <==================
	-----------------------------------------------------------
	 SCS Same-Spin Scale       =       0.3333333333333333 [-]
	 SCS Opposite-Spin Scale   =       1.2000000000000000 [-]
	 SCS Same-Spin Energy      =      -0.1383014144907139 [Eh]
	 SCS Opposite-Spin Energy  =      -1.5495242573065637 [Eh]
	 SCS Correlation Energy    =      -1.6878256717972777 [Eh]
	 SCS Total Energy          =    -416.6437664377760370 [Eh]
	-----------------------------------------------------------

  Dipole Moment: [D]
     X:     0.0014      Y:     0.0419      Z:     1.5691     Total:     1.5696

*** Psi4 exiting successfully. Buy a developer a beer!
