                               Psi4 1.4a3.dev225

  ==> Input File <==

--------------------------------------------------------------------------
#psi4
#
memory 32 gb

molecule  {
0 1
  O       -2.0737200     1.2628680    -0.4915300
  O        2.0737210    -1.2628680    -0.4915300
  N       -2.9762380    -0.6534170     0.3462040
  N        2.9762380     0.6534180     0.3462030
  C       -0.5555480    -0.5175680     0.1381390
  C        0.5555480     0.5175670     0.1381410
  C       -1.9182850     0.1263550    -0.0446340
  C        1.9182850    -0.1263550    -0.0446340
  H       -0.3783856    -1.2534739    -0.6546767
  H       -0.5383610    -1.1077740     1.0609210
  H        0.3806750     1.2252800    -0.6804340
  H        0.5383600     1.1077700     1.0609240
  H       -2.8543230    -1.6451260     0.4957240
  H       -3.8970040    -0.3356840     0.0715640
  H        2.8543220     1.6451260     0.4957230
  H        3.8970030     0.3356850     0.0715640
units angstrom
no_reorient  #important for SAPT in psi4, default
symmetry c1  #important for SAPT in psi4, default
}

set PROPERTIES_ORIGIN ["COM"]
properties('MP2/aug-cc-pvtz', properties = ['dipole'])
--------------------------------------------------------------------------

    Molecular point group: c1
  Charge       = 0
  Multiplicity = 1
  Basis Set: AUG-CC-PVTZ
    Blend: AUG-CC-PVTZ
  Basis Set: (AUG-CC-PVTZ AUX)
    Blend: AUG-CC-PVTZ-JKFIT

    Orbital Energies [Eh]
    ---------------------

    Doubly Occupied:

       1A    -20.527047     2A    -20.526891     3A    -15.590342
       4A    -15.590256     5A    -11.360149     6A    -11.359970
       7A    -11.247586     8A    -11.246884     9A     -1.381183
      10A     -1.379094    11A     -1.214075    12A     -1.214018
      13A     -1.075376    14A     -0.937875    15A     -0.806799
      16A     -0.776278    17A     -0.724633    18A     -0.723829
      19A     -0.681153    20A     -0.669649    21A     -0.637386
      22A     -0.609681    23A     -0.581809    24A     -0.564060
      25A     -0.550810    26A     -0.521619    27A     -0.497603
      28A     -0.433904    29A     -0.433478    30A     -0.422596
      31A     -0.419552

  @DF-RHF Final Energy:  -414.95944396274956

   => Energetics <=

    Nuclear Repulsion Energy =            365.7781112069106371
    One-Electron Energy =               -1292.0639383644950158
    Two-Electron Energy =                 511.3263831948348752
    Total Energy =                       -414.9594439627495603
  Basis Set: (AUG-CC-PVTZ AUX)
    Blend: AUG-CC-PVTZ-RI
    Molecular point group: c1

    Geometry (in Angstrom), charge = 0, multiplicity = 1:

       Center              X                  Y                   Z               Mass
    ------------   -----------------  -----------------  -----------------  -----------------
         O           -2.073739992370     1.263112837902    -0.475610050469    15.994914619570
         O            2.073701007630    -1.262623162098    -0.475610050469    15.994914619570
         N           -2.976257992370    -0.653172162098     0.362123949531    14.003074004430
         N            2.976218007630     0.653662837902     0.362122949531    14.003074004430
         C           -0.555567992370    -0.517323162098     0.154058949531    12.000000000000
         C            0.555528007630     0.517811837902     0.154060949531    12.000000000000
         C           -1.918304992370     0.126599837902    -0.028714050469    12.000000000000
         C            1.918265007630    -0.126110162098    -0.028714050469    12.000000000000
         H           -0.378405592370    -1.253229062098    -0.638756750469     1.007825032230
         H           -0.538380992370    -1.107529162098     1.076840949531     1.007825032230
         H            0.380655007630     1.225524837902    -0.664514050469     1.007825032230
         H            0.538340007630     1.108014837902     1.076843949531     1.007825032230
         H           -2.854342992370    -1.644881162098     0.511643949531     1.007825032230
         H           -3.897023992370    -0.335439162098     0.087483949531     1.007825032230
         H            2.854302007630     1.645370837902     0.511642949531     1.007825032230
         H            3.896983007630     0.335929837902     0.087483949531     1.007825032230

  Basis Set: AUG-CC-PVTZ
    Blend: AUG-CC-PVTZ
  Basis Set: (AUG-CC-PVTZ AUX)
    Blend: AUG-CC-PVTZ-JKFIT
	 Reference Energy          =    -414.9594439627495603 [Eh]
	 Singles Energy            =      -0.0000000000000000 [Eh]
	 Same-Spin Energy          =      -0.4146027226357001 [Eh]
	 Opposite-Spin Energy      =      -1.2904086602992135 [Eh]
	 Correlation Energy        =      -1.7050113829349136 [Eh]
	 Total Energy              =    -416.6644553456844733 [Eh]

	 ================> DF-SCS-MP2 Energies <==================
	-----------------------------------------------------------
	 SCS Same-Spin Scale       =       0.3333333333333333 [-]
	 SCS Opposite-Spin Scale   =       1.2000000000000000 [-]
	 SCS Same-Spin Energy      =      -0.1382009075452333 [Eh]
	 SCS Opposite-Spin Energy  =      -1.5484903923590563 [Eh]
	 SCS Correlation Energy    =      -1.6866912999042896 [Eh]
	 SCS Total Energy          =    -416.6461352626538428 [Eh]
	-----------------------------------------------------------

  Dipole Moment: [D]
     X:     0.0043      Y:    -0.0091      Z:     1.5679     Total:     1.5679

*** Psi4 exiting successfully. Buy a developer a beer!
