                               Psi4 1.4a3.dev225

  ==> Input File <==

--------------------------------------------------------------------------
#psi4
#
memory 32 gb

molecule  {
0 1
  O       -2.0737200     1.2628680    -0.4915300
  O        2.0737210    -1.2628680    -0.4915300
  N       -2.9762380    -0.6534170     0.3462040
  N        2.9762380     0.6534180     0.3462030
  C       -0.5555480    -0.5175680     0.1381390
  C        0.5555480     0.5175670     0.1381410
  C       -1.9182850     0.1263550    -0.0446340
  C        1.9182850    -0.1263550    -0.0446340
  H       -0.3806750    -1.2252780    -0.6804370
  H       -0.5383610    -1.1077740     1.0609210
  H        0.3806750     1.2252800    -0.6804340
  H        0.5383600     1.1077700     1.0609240
  H       -2.8603566    -1.5960461     0.4883242
  H       -3.8970040    -0.3356840     0.0715640
  H        2.8543220     1.6451260     0.4957230
  H        3.8970030     0.3356850     0.0715640
units angstrom
no_reorient  #important for SAPT in psi4, default
symmetry c1  #important for SAPT in psi4, default
}

set PROPERTIES_ORIGIN ["COM"]
properties('MP2/aug-cc-pvtz', properties = ['dipole'])
--------------------------------------------------------------------------

    Molecular point group: c1
  Charge       = 0
  Multiplicity = 1
  Basis Set: AUG-CC-PVTZ
    Blend: AUG-CC-PVTZ
  Basis Set: (AUG-CC-PVTZ AUX)
    Blend: AUG-CC-PVTZ-JKFIT

    Orbital Energies [Eh]
    ---------------------

    Doubly Occupied:

       1A    -20.527016     2A    -20.526959     3A    -15.590406
       4A    -15.585548     5A    -11.360114     6A    -11.360037
       7A    -11.247806     8A    -11.247164     9A     -1.381438
      10A     -1.379302    11A     -1.221443    12A     -1.214130
      13A     -1.076038    14A     -0.938519    15A     -0.810035
      16A     -0.779602    17A     -0.731850    18A     -0.724014
      19A     -0.681655    20A     -0.670842    21A     -0.638313
      22A     -0.610680    23A     -0.582452    24A     -0.564327
      25A     -0.551636    26A     -0.520529    27A     -0.499385
      28A     -0.433960    29A     -0.433622    30A     -0.423091
      31A     -0.419899

  @DF-RHF Final Energy:  -414.95910136123933

   => Energetics <=

    Nuclear Repulsion Energy =            366.0685624667254956
    One-Electron Energy =               -1292.5917055933916799
    Two-Electron Energy =                 511.5640417654267935
    Total Energy =                       -414.9591013612393340
  Basis Set: (AUG-CC-PVTZ AUX)
    Blend: AUG-CC-PVTZ-RI
    Molecular point group: c1

    Geometry (in Angstrom), charge = 0, multiplicity = 1:

       Center              X                  Y                   Z               Mass
    ------------   -----------------  -----------------  -----------------  -----------------
         O           -2.073667717422     1.262441793268    -0.475322096062    15.994914619570
         O            2.073773282578    -1.263294206732    -0.475322096062    15.994914619570
         N           -2.976185717422    -0.653843206732     0.362411903938    14.003074004430
         N            2.976290282578     0.652991793268     0.362410903938    14.003074004430
         C           -0.555495717422    -0.517994206732     0.154346903938    12.000000000000
         C            0.555600282578     0.517140793268     0.154348903938    12.000000000000
         C           -1.918232717422     0.125928793268    -0.028426096062    12.000000000000
         C            1.918337282578    -0.126781206732    -0.028426096062    12.000000000000
         H           -0.380622717422    -1.225704206732    -0.664229096062     1.007825032230
         H           -0.538308717422    -1.108200206732     1.077128903938     1.007825032230
         H            0.380727282578     1.224853793268    -0.664226096062     1.007825032230
         H            0.538412282578     1.107343793268     1.077131903938     1.007825032230
         H           -2.860304317422    -1.596472306732     0.504532103938     1.007825032230
         H           -3.896951717422    -0.336110206732     0.087771903938     1.007825032230
         H            2.854374282578     1.644699793268     0.511930903938     1.007825032230
         H            3.897055282578     0.335258793268     0.087771903938     1.007825032230

  Basis Set: AUG-CC-PVTZ
    Blend: AUG-CC-PVTZ
  Basis Set: (AUG-CC-PVTZ AUX)
    Blend: AUG-CC-PVTZ-JKFIT
	 Reference Energy          =    -414.9591013612393340 [Eh]
	 Singles Energy            =      -0.0000000000000000 [Eh]
	 Same-Spin Energy          =      -0.4142897555704338 [Eh]
	 Opposite-Spin Energy      =      -1.2896211806061901 [Eh]
	 Correlation Energy        =      -1.7039109361766240 [Eh]
	 Total Energy              =    -416.6630122974159463 [Eh]

	 ================> DF-SCS-MP2 Energies <==================
	-----------------------------------------------------------
	 SCS Same-Spin Scale       =       0.3333333333333333 [-]
	 SCS Opposite-Spin Scale   =       1.2000000000000000 [-]
	 SCS Same-Spin Energy      =      -0.1380965851901446 [Eh]
	 SCS Opposite-Spin Energy  =      -1.5475454167274281 [Eh]
	 SCS Correlation Energy    =      -1.6856420019175726 [Eh]
	 SCS Total Energy          =    -416.6447433631569197 [Eh]
	-----------------------------------------------------------

  Dipole Moment: [D]
     X:     0.0023      Y:     0.0424      Z:     1.5541     Total:     1.5546

*** Psi4 exiting successfully. Buy a developer a beer!
