                               Psi4 1.4a3.dev225

  ==> Input File <==

--------------------------------------------------------------------------
#psi4
#
memory 32 gb

molecule  {
0 1
  O       -2.0737200     1.2628680    -0.4915300
  O        2.0737210    -1.2628680    -0.4915300
  N       -2.9762380    -0.6534170     0.3462040
  N        3.0059088     0.6181266     0.3333682
  C       -0.5555480    -0.5175680     0.1381390
  C        0.5555480     0.5175670     0.1381410
  C       -1.9182850     0.1263550    -0.0446340
  C        1.9182850    -0.1263550    -0.0446340
  H       -0.3806750    -1.2252780    -0.6804370
  H       -0.5383610    -1.1077740     1.0609210
  H        0.3806750     1.2252800    -0.6804340
  H        0.5383600     1.1077700     1.0609240
  H       -2.8543230    -1.6451260     0.4957240
  H       -3.8970040    -0.3356840     0.0715640
  H        2.8543220     1.6451260     0.4957230
  H        3.8970030     0.3356850     0.0715640
units angstrom
no_reorient  #important for SAPT in psi4, default
symmetry c1  #important for SAPT in psi4, default
}

set PROPERTIES_ORIGIN ["COM"]
properties('MP2/aug-cc-pvtz', properties = ['dipole'])
--------------------------------------------------------------------------

    Molecular point group: c1
  Charge       = 0
  Multiplicity = 1
  Basis Set: AUG-CC-PVTZ
    Blend: AUG-CC-PVTZ
  Basis Set: (AUG-CC-PVTZ AUX)
    Blend: AUG-CC-PVTZ-JKFIT

    Orbital Energies [Eh]
    ---------------------

    Doubly Occupied:

       1A    -20.527460     2A    -20.524411     3A    -15.590841
       4A    -15.589245     5A    -11.360632     6A    -11.359221
       7A    -11.249474     8A    -11.248177     9A     -1.381386
      10A     -1.379117    11A     -1.214579    12A     -1.211497
      13A     -1.077116    14A     -0.939690    15A     -0.808428
      16A     -0.774743    17A     -0.724547    18A     -0.719313
      19A     -0.686216    20A     -0.670947    21A     -0.637226
      22A     -0.607808    23A     -0.581794    24A     -0.563660
      25A     -0.553471    26A     -0.521057    27A     -0.500064
      28A     -0.434283    29A     -0.432386    30A     -0.422196
      31A     -0.418419

  @DF-RHF Final Energy:  -414.95651810409936

   => Energetics <=

    Nuclear Repulsion Energy =            365.7060128545121529
    One-Electron Energy =               -1291.9062493462372458
    Two-Electron Energy =                 511.2437183876256768
    Total Energy =                       -414.9565181040993593
  Basis Set: (AUG-CC-PVTZ AUX)
    Blend: AUG-CC-PVTZ-RI
    Molecular point group: c1

    Geometry (in Angstrom), charge = 0, multiplicity = 1:

       Center              X                  Y                   Z               Mass
    ------------   -----------------  -----------------  -----------------  -----------------
         O           -2.077300048873     1.267126083300    -0.473837768456    15.994914619570
         O            2.070140951127    -1.258609916700    -0.473837768456    15.994914619570
         N           -2.979818048873    -0.649158916700     0.363896231544    14.003074004430
         N            3.002328751127     0.622384683300     0.351060431544    14.003074004430
         C           -0.559128048873    -0.513309916700     0.155831231544    12.000000000000
         C            0.551967951127     0.521825083300     0.155833231544    12.000000000000
         C           -1.921865048873     0.130613083300    -0.026941768456    12.000000000000
         C            1.914704951127    -0.122096916700    -0.026941768456    12.000000000000
         H           -0.384255048873    -1.221019916700    -0.662744768456     1.007825032230
         H           -0.541941048873    -1.103515916700     1.078613231544     1.007825032230
         H            0.377094951127     1.229538083300    -0.662741768456     1.007825032230
         H            0.534779951127     1.112028083300     1.078616231544     1.007825032230
         H           -2.857903048873    -1.640867916700     0.513416231544     1.007825032230
         H           -3.900584048873    -0.331425916700     0.089256231544     1.007825032230
         H            2.850741951127     1.649384083300     0.513415231544     1.007825032230
         H            3.893422951127     0.339943083300     0.089256231544     1.007825032230

  Basis Set: AUG-CC-PVTZ
    Blend: AUG-CC-PVTZ
  Basis Set: (AUG-CC-PVTZ AUX)
    Blend: AUG-CC-PVTZ-JKFIT
	 Reference Energy          =    -414.9565181040993593 [Eh]
	 Singles Energy            =      -0.0000000000000000 [Eh]
	 Same-Spin Energy          =      -0.4144912741627505 [Eh]
	 Opposite-Spin Energy      =      -1.2903370557299296 [Eh]
	 Correlation Energy        =      -1.7048283298926801 [Eh]
	 Total Energy              =    -416.6613464339920370 [Eh]

	 ================> DF-SCS-MP2 Energies <==================
	-----------------------------------------------------------
	 SCS Same-Spin Scale       =       0.3333333333333333 [-]
	 SCS Opposite-Spin Scale   =       1.2000000000000000 [-]
	 SCS Same-Spin Energy      =      -0.1381637580542502 [Eh]
	 SCS Opposite-Spin Energy  =      -1.5484044668759156 [Eh]
	 SCS Correlation Energy    =      -1.6865682249301657 [Eh]
	 SCS Total Energy          =    -416.6430863290295292 [Eh]
	-----------------------------------------------------------

  Dipole Moment: [D]
     X:    -0.0787      Y:     0.0275      Z:     1.5751     Total:     1.5773

*** Psi4 exiting successfully. Buy a developer a beer!
