                               Psi4 1.4a3.dev225

  ==> Input File <==

--------------------------------------------------------------------------
#psi4
#
memory 32 gb

molecule  {
0 1
  O       -2.0737200     1.2628680    -0.4915300
  O        2.0737210    -1.2628680    -0.4915300
  N       -2.9762380    -0.6534170     0.3462040
  N        2.9762380     0.6534180     0.3462030
  C       -0.5555480    -0.5175680     0.1381390
  C        0.5555480     0.5175670     0.1381410
  C       -1.9182850     0.1263550    -0.0446340
  C        1.9182850    -0.1263550    -0.0446340
  H       -0.3806750    -1.2252780    -0.6804370
  H       -0.5383610    -1.1077740     1.0609210
  H        0.3806750     1.2252800    -0.6804340
  H        0.5399289     1.0538958     0.9766916
  H       -2.8543230    -1.6451260     0.4957240
  H       -3.8970040    -0.3356840     0.0715640
  H        2.8543220     1.6451260     0.4957230
  H        3.8970030     0.3356850     0.0715640
units angstrom
no_reorient  #important for SAPT in psi4, default
symmetry c1  #important for SAPT in psi4, default
}

set PROPERTIES_ORIGIN ["COM"]
properties('MP2/aug-cc-pvtz', properties = ['dipole'])
--------------------------------------------------------------------------

    Molecular point group: c1
  Charge       = 0
  Multiplicity = 1
  Basis Set: AUG-CC-PVTZ
    Blend: AUG-CC-PVTZ
  Basis Set: (AUG-CC-PVTZ AUX)
    Blend: AUG-CC-PVTZ-JKFIT

    Orbital Energies [Eh]
    ---------------------

    Doubly Occupied:

       1A    -20.526787     2A    -20.526186     3A    -15.590637
       4A    -15.590144     5A    -11.359740     6A    -11.359161
       7A    -11.246447     8A    -11.235143     9A     -1.380866
      10A     -1.378690    11A     -1.214387    12A     -1.213878
      13A     -1.080083    14A     -0.942051    15A     -0.807059
      16A     -0.779083    17A     -0.727240    18A     -0.723756
      19A     -0.681363    20A     -0.676951    21A     -0.637693
      22A     -0.609395    23A     -0.584931    24A     -0.565019
      25A     -0.552997    26A     -0.520258    27A     -0.503595
      28A     -0.433428    29A     -0.433095    30A     -0.422475
      31A     -0.419496

  @DF-RHF Final Energy:  -414.95391241226679

   => Energetics <=

    Nuclear Repulsion Energy =            366.3228039005693972
    One-Electron Energy =               -1293.1093643269168751
    Two-Electron Energy =                 511.8326480140806893
    Total Energy =                       -414.9539124122667886
  Basis Set: (AUG-CC-PVTZ AUX)
    Blend: AUG-CC-PVTZ-RI
    Molecular point group: c1

    Geometry (in Angstrom), charge = 0, multiplicity = 1:

       Center              X                  Y                   Z               Mass
    ------------   -----------------  -----------------  -----------------  -----------------
         O           -2.073733735720     1.263335822140    -0.474654900072    15.994914619570
         O            2.073707264280    -1.262400177860    -0.474654900072    15.994914619570
         N           -2.976251735720    -0.652949177860     0.363079099928    14.003074004430
         N            2.976224264280     0.653885822140     0.363078099928    14.003074004430
         C           -0.555561735720    -0.517100177860     0.155014099928    12.000000000000
         C            0.555534264280     0.518034822140     0.155016099928    12.000000000000
         C           -1.918298735720     0.126822822140    -0.027758900072    12.000000000000
         C            1.918271264280    -0.125887177860    -0.027758900072    12.000000000000
         H           -0.380688735720    -1.224810177860    -0.663561900072     1.007825032230
         H           -0.538374735720    -1.107306177860     1.077796099928     1.007825032230
         H            0.380661264280     1.225747822140    -0.663558900072     1.007825032230
         H            0.539915164280     1.054363622140     0.993566699928     1.007825032230
         H           -2.854336735720    -1.644658177860     0.512599099928     1.007825032230
         H           -3.897017735720    -0.335216177860     0.088439099928     1.007825032230
         H            2.854308264280     1.645593822140     0.512598099928     1.007825032230
         H            3.896989264280     0.336152822140     0.088439099928     1.007825032230

  Basis Set: AUG-CC-PVTZ
    Blend: AUG-CC-PVTZ
  Basis Set: (AUG-CC-PVTZ AUX)
    Blend: AUG-CC-PVTZ-JKFIT
	 Reference Energy          =    -414.9539124122667886 [Eh]
	 Singles Energy            =      -0.0000000000000000 [Eh]
	 Same-Spin Energy          =      -0.4145521024883935 [Eh]
	 Opposite-Spin Energy      =      -1.2898849121890170 [Eh]
	 Correlation Energy        =      -1.7044370146774104 [Eh]
	 Total Energy              =    -416.6583494269441985 [Eh]

	 ================> DF-SCS-MP2 Energies <==================
	-----------------------------------------------------------
	 SCS Same-Spin Scale       =       0.3333333333333333 [-]
	 SCS Opposite-Spin Scale   =       1.2000000000000000 [-]
	 SCS Same-Spin Energy      =      -0.1381840341627978 [Eh]
	 SCS Opposite-Spin Energy  =      -1.5478618946268203 [Eh]
	 SCS Correlation Energy    =      -1.6860459287896181 [Eh]
	 SCS Total Energy          =    -416.6399583410563991 [Eh]
	-----------------------------------------------------------

  Dipole Moment: [D]
     X:     0.0098      Y:     0.0292      Z:     1.5823     Total:     1.5826

*** Psi4 exiting successfully. Buy a developer a beer!
