                               Psi4 1.4a3.dev225

  ==> Input File <==

--------------------------------------------------------------------------
#psi4
#
memory 32 gb

molecule  {
0 1
  O       -2.0737200     1.2628680    -0.4915300
  O        2.0737210    -1.2628680    -0.4915300
  N       -2.9130673    -0.7211078     0.3704300
  N        2.9762380     0.6534180     0.3462030
  C       -0.5555480    -0.5175680     0.1381390
  C        0.5555480     0.5175670     0.1381410
  C       -1.9182850     0.1263550    -0.0446340
  C        1.9182850    -0.1263550    -0.0446340
  H       -0.3806750    -1.2252780    -0.6804370
  H       -0.5383610    -1.1077740     1.0609210
  H        0.3806750     1.2252800    -0.6804340
  H        0.5383600     1.1077700     1.0609240
  H       -2.8543230    -1.6451260     0.4957240
  H       -3.8970040    -0.3356840     0.0715640
  H        2.8543220     1.6451260     0.4957230
  H        3.8970030     0.3356850     0.0715640
units angstrom
no_reorient  #important for SAPT in psi4, default
symmetry c1  #important for SAPT in psi4, default
}

set PROPERTIES_ORIGIN ["COM"]
properties('MP2/aug-cc-pvtz', properties = ['dipole'])
--------------------------------------------------------------------------

    Molecular point group: c1
  Charge       = 0
  Multiplicity = 1
  Basis Set: AUG-CC-PVTZ
    Blend: AUG-CC-PVTZ
  Basis Set: (AUG-CC-PVTZ AUX)
    Blend: AUG-CC-PVTZ-JKFIT

    Orbital Energies [Eh]
    ---------------------

    Doubly Occupied:

       1A    -20.532507     2A    -20.525826     3A    -15.592430
       4A    -15.589396     5A    -11.363068     6A    -11.358678
       7A    -11.245465     8A    -11.243352     9A     -1.382028
      10A     -1.378648    11A     -1.221938    12A     -1.213090
      13A     -1.073172    14A     -0.935830    15A     -0.817093
      16A     -0.783277    17A     -0.723174    18A     -0.719592
      19A     -0.671196    20A     -0.666792    21A     -0.639911
      22A     -0.610530    23A     -0.582934    24A     -0.563453
      25A     -0.545544    26A     -0.518730    27A     -0.497701
      28A     -0.435518    29A     -0.432101    30A     -0.425700
      31A     -0.419724

  @DF-RHF Final Energy:  -414.94435343908719

   => Energetics <=

    Nuclear Repulsion Energy =            366.0943749566946508
    One-Electron Energy =               -1292.6606601283995133
    Two-Electron Energy =                 511.6219317326176679
    Total Energy =                       -414.9443534390871946
  Basis Set: (AUG-CC-PVTZ AUX)
    Blend: AUG-CC-PVTZ-RI
    Molecular point group: c1

    Geometry (in Angstrom), charge = 0, multiplicity = 1:

       Center              X                  Y                   Z               Mass
    ------------   -----------------  -----------------  -----------------  -----------------
         O           -2.081341986909     1.271035240259    -0.478309347689    15.994914619570
         O            2.066099013091    -1.254700759741    -0.478309347689    15.994914619570
         N           -2.920689286909    -0.712940559741     0.383650652311    14.003074004430
         N            2.968616013091     0.661585240259     0.359423652311    14.003074004430
         C           -0.563169986909    -0.509400759741     0.151359652311    12.000000000000
         C            0.547926013091     0.525734240259     0.151361652311    12.000000000000
         C           -1.925906986909     0.134522240259    -0.031413347689    12.000000000000
         C            1.910663013091    -0.118187759741    -0.031413347689    12.000000000000
         H           -0.388296986909    -1.217110759741    -0.667216347689     1.007825032230
         H           -0.545982986909    -1.099606759741     1.074141652311     1.007825032230
         H            0.373053013091     1.233447240259    -0.667213347689     1.007825032230
         H            0.530738013091     1.115937240259     1.074144652311     1.007825032230
         H           -2.861944986909    -1.636958759741     0.508944652311     1.007825032230
         H           -3.904625986909    -0.327516759741     0.084784652311     1.007825032230
         H            2.846700013091     1.653293240259     0.508943652311     1.007825032230
         H            3.889381013091     0.343852240259     0.084784652311     1.007825032230

  Basis Set: AUG-CC-PVTZ
    Blend: AUG-CC-PVTZ
  Basis Set: (AUG-CC-PVTZ AUX)
    Blend: AUG-CC-PVTZ-JKFIT
	 Reference Energy          =    -414.9443534390871946 [Eh]
	 Singles Energy            =      -0.0000000000000000 [Eh]
	 Same-Spin Energy          =      -0.4150806955095059 [Eh]
	 Opposite-Spin Energy      =      -1.2915427807851594 [Eh]
	 Correlation Energy        =      -1.7066234762946653 [Eh]
	 Total Energy              =    -416.6509769153818752 [Eh]

	 ================> DF-SCS-MP2 Energies <==================
	-----------------------------------------------------------
	 SCS Same-Spin Scale       =       0.3333333333333333 [-]
	 SCS Opposite-Spin Scale   =       1.2000000000000000 [-]
	 SCS Same-Spin Energy      =      -0.1383602318365020 [Eh]
	 SCS Opposite-Spin Energy  =      -1.5498513369421911 [Eh]
	 SCS Correlation Energy    =      -1.6882115687786932 [Eh]
	 SCS Total Energy          =    -416.6325650078658782 [Eh]
	-----------------------------------------------------------

  Dipole Moment: [D]
     X:    -0.1258      Y:     0.0773      Z:     1.5264     Total:     1.5336

*** Psi4 exiting successfully. Buy a developer a beer!
