                               Psi4 1.4a3.dev225

  ==> Input File <==

--------------------------------------------------------------------------
#psi4
#
memory 32 gb

molecule  {
0 1
  O       -2.0737200     1.2628680    -0.4915300
  O        2.0737210    -1.2628680    -0.4915300
  N       -2.9762380    -0.6534170     0.3462040
  N        2.9762380     0.6534180     0.3462030
  C       -0.5555480    -0.5175680     0.1381390
  C        0.5555480     0.5175670     0.1381410
  C       -1.9182850     0.1263550    -0.0446340
  C        1.9182850    -0.1263550    -0.0446340
  H       -0.3806750    -1.2252780    -0.6804370
  H       -0.5383610    -1.1077740     1.0609210
  H        0.3818998     1.2108566    -0.6929421
  H        0.5383600     1.1077700     1.0609240
  H       -2.8543230    -1.6451260     0.4957240
  H       -3.8970040    -0.3356840     0.0715640
  H        2.8543220     1.6451260     0.4957230
  H        3.8970030     0.3356850     0.0715640
units angstrom
no_reorient  #important for SAPT in psi4, default
symmetry c1  #important for SAPT in psi4, default
}

set PROPERTIES_ORIGIN ["COM"]
properties('MP2/aug-cc-pvtz', properties = ['dipole'])
--------------------------------------------------------------------------

    Molecular point group: c1
  Charge       = 0
  Multiplicity = 1
  Basis Set: AUG-CC-PVTZ
    Blend: AUG-CC-PVTZ
  Basis Set: (AUG-CC-PVTZ AUX)
    Blend: AUG-CC-PVTZ-JKFIT

    Orbital Energies [Eh]
    ---------------------

    Doubly Occupied:

       1A    -20.526846     2A    -20.526764     3A    -15.590340
       4A    -15.590298     5A    -11.359898     6A    -11.359812
       7A    -11.247582     8A    -11.246926     9A     -1.381089
      10A     -1.378988    11A     -1.214053    12A     -1.214005
      13A     -1.075755    14A     -0.937739    15A     -0.806755
      16A     -0.775692    17A     -0.723845    18A     -0.723575
      19A     -0.681004    20A     -0.670996    21A     -0.637939
      22A     -0.609440    23A     -0.582264    24A     -0.563486
      25A     -0.551443    26A     -0.519562    27A     -0.499883
      28A     -0.433509    29A     -0.433247    30A     -0.422542
      31A     -0.419491

  @DF-RHF Final Energy:  -414.95965339646517

   => Energetics <=

    Nuclear Repulsion Energy =            365.8156681348515917
    One-Electron Energy =               -1292.1411085392610403
    Two-Electron Energy =                 511.3657870079442205
    Total Energy =                       -414.9596533964651712
  Basis Set: (AUG-CC-PVTZ AUX)
    Blend: AUG-CC-PVTZ-RI
    Molecular point group: c1

    Geometry (in Angstrom), charge = 0, multiplicity = 1:

       Center              X                  Y                   Z               Mass
    ------------   -----------------  -----------------  -----------------  -----------------
         O           -2.073730747638     1.262993240793    -0.475277736802    15.994914619570
         O            2.073710252362    -1.262742759207    -0.475277736802    15.994914619570
         N           -2.976248747638    -0.653291759207     0.362456263198    14.003074004430
         N            2.976227252362     0.653543240793     0.362455263198    14.003074004430
         C           -0.555558747638    -0.517442759207     0.154391263198    12.000000000000
         C            0.555537252362     0.517692240793     0.154393263198    12.000000000000
         C           -1.918295747638     0.126480240793    -0.028381736802    12.000000000000
         C            1.918274252362    -0.126229759207    -0.028381736802    12.000000000000
         H           -0.380685747638    -1.225152759207    -0.664184736802     1.007825032230
         H           -0.538371747638    -1.107648759207     1.077173263198     1.007825032230
         H            0.381889052362     1.210981840793    -0.676689836802     1.007825032230
         H            0.538349252362     1.107895240793     1.077176263198     1.007825032230
         H           -2.854333747638    -1.645000759207     0.511976263198     1.007825032230
         H           -3.897014747638    -0.335558759207     0.087816263198     1.007825032230
         H            2.854311252362     1.645251240793     0.511975263198     1.007825032230
         H            3.896992252362     0.335810240793     0.087816263198     1.007825032230

  Basis Set: AUG-CC-PVTZ
    Blend: AUG-CC-PVTZ
  Basis Set: (AUG-CC-PVTZ AUX)
    Blend: AUG-CC-PVTZ-JKFIT
	 Reference Energy          =    -414.9596533964651712 [Eh]
	 Singles Energy            =      -0.0000000000000000 [Eh]
	 Same-Spin Energy          =      -0.4145882143437150 [Eh]
	 Opposite-Spin Energy      =      -1.2904088653664691 [Eh]
	 Correlation Energy        =      -1.7049970797101841 [Eh]
	 Total Energy              =    -416.6646504761753818 [Eh]

	 ================> DF-SCS-MP2 Energies <==================
	-----------------------------------------------------------
	 SCS Same-Spin Scale       =       0.3333333333333333 [-]
	 SCS Opposite-Spin Scale   =       1.2000000000000000 [-]
	 SCS Same-Spin Energy      =      -0.1381960714479050 [Eh]
	 SCS Opposite-Spin Energy  =      -1.5484906384397630 [Eh]
	 SCS Correlation Energy    =      -1.6866867098876679 [Eh]
	 SCS Total Energy          =    -416.6463401063528522 [Eh]
	-----------------------------------------------------------

  Dipole Moment: [D]
     X:     0.0021      Y:    -0.0045      Z:     1.5592     Total:     1.5592

*** Psi4 exiting successfully. Buy a developer a beer!
