                               Psi4 1.4a3.dev225

  ==> Input File <==

--------------------------------------------------------------------------
#psi4
#
memory 32 gb

molecule  {
0 1
  O       -2.0737200     1.2628680    -0.4915300
  O        2.0737210    -1.2628680    -0.4915300
  N       -2.9762380    -0.6534170     0.3462040
  N        2.9762380     0.6534180     0.3462030
  C       -0.5555480    -0.5175680     0.1381390
  C        0.5555480     0.5175670     0.1381410
  C       -1.9182850     0.1263550    -0.0446340
  C        1.9182850    -0.1263550    -0.0446340
  H       -0.3806750    -1.2252780    -0.6804370
  H       -0.5383610    -1.1077740     1.0609210
  H        0.3806750     1.2252800    -0.6804340
  H        0.5391445     1.0808329     1.0188078
  H       -2.8543230    -1.6451260     0.4957240
  H       -3.8970040    -0.3356840     0.0715640
  H        2.8543220     1.6451260     0.4957230
  H        3.8970030     0.3356850     0.0715640
units angstrom
no_reorient  #important for SAPT in psi4, default
symmetry c1  #important for SAPT in psi4, default
}

set PROPERTIES_ORIGIN ["COM"]
properties('MP2/aug-cc-pvtz', properties = ['dipole'])
--------------------------------------------------------------------------

    Molecular point group: c1
  Charge       = 0
  Multiplicity = 1
  Basis Set: AUG-CC-PVTZ
    Blend: AUG-CC-PVTZ
  Basis Set: (AUG-CC-PVTZ AUX)
    Blend: AUG-CC-PVTZ-JKFIT

    Orbital Energies [Eh]
    ---------------------

    Doubly Occupied:

       1A    -20.526819     2A    -20.526497     3A    -15.590468
       4A    -15.590221     5A    -11.359822     6A    -11.359509
       7A    -11.246829     8A    -11.241234     9A     -1.380973
      10A     -1.378847    11A     -1.214197    12A     -1.213948
      13A     -1.077588    14A     -0.939725    15A     -0.806867
      16A     -0.777308    17A     -0.725405    18A     -0.723792
      19A     -0.681073    20A     -0.673837    21A     -0.637725
      22A     -0.609438    23A     -0.583424    24A     -0.564298
      25A     -0.552235    26A     -0.520216    27A     -0.501619
      28A     -0.433486    29A     -0.433238    30A     -0.422511
      31A     -0.419499

  @DF-RHF Final Energy:  -414.95880192868299

   => Energetics <=

    Nuclear Repulsion Energy =            366.0555103412721678
    One-Electron Energy =               -1292.6033302479806935
    Two-Electron Energy =                 511.5890179780255949
    Total Energy =                       -414.9588019286829876
  Basis Set: (AUG-CC-PVTZ AUX)
    Blend: AUG-CC-PVTZ-RI
    Molecular point group: c1

    Geometry (in Angstrom), charge = 0, multiplicity = 1:

       Center              X                  Y                   Z               Mass
    ------------   -----------------  -----------------  -----------------  -----------------
         O           -2.073726924177     1.263101906782    -0.475020627117    15.994914619570
         O            2.073714075823    -1.262634093218    -0.475020627117    15.994914619570
         N           -2.976244924177    -0.653183093218     0.362713372883    14.003074004430
         N            2.976231075823     0.653651906782     0.362712372883    14.003074004430
         C           -0.555554924177    -0.517334093218     0.154648372883    12.000000000000
         C            0.555541075823     0.517800906782     0.154650372883    12.000000000000
         C           -1.918291924177     0.126588906782    -0.028124627117    12.000000000000
         C            1.918278075823    -0.126121093218    -0.028124627117    12.000000000000
         H           -0.380681924177    -1.225044093218    -0.663927627117     1.007825032230
         H           -0.538367924177    -1.107540093218     1.077430372883     1.007825032230
         H            0.380668075823     1.225513906782    -0.663924627117     1.007825032230
         H            0.539137575823     1.081066806782     1.035317172883     1.007825032230
         H           -2.854329924177    -1.644892093218     0.512233372883     1.007825032230
         H           -3.897010924177    -0.335450093218     0.088073372883     1.007825032230
         H            2.854315075823     1.645359906782     0.512232372883     1.007825032230
         H            3.896996075823     0.335918906782     0.088073372883     1.007825032230

  Basis Set: AUG-CC-PVTZ
    Blend: AUG-CC-PVTZ
  Basis Set: (AUG-CC-PVTZ AUX)
    Blend: AUG-CC-PVTZ-JKFIT
	 Reference Energy          =    -414.9588019286829876 [Eh]
	 Singles Energy            =      -0.0000000000000000 [Eh]
	 Same-Spin Energy          =      -0.4145639889184146 [Eh]
	 Opposite-Spin Energy      =      -1.2901023081341041 [Eh]
	 Correlation Energy        =      -1.7046662970525186 [Eh]
	 Total Energy              =    -416.6634682257355280 [Eh]

	 ================> DF-SCS-MP2 Energies <==================
	-----------------------------------------------------------
	 SCS Same-Spin Scale       =       0.3333333333333333 [-]
	 SCS Opposite-Spin Scale   =       1.2000000000000000 [-]
	 SCS Same-Spin Energy      =      -0.1381879963061382 [Eh]
	 SCS Opposite-Spin Energy  =      -1.5481227697609248 [Eh]
	 SCS Correlation Energy    =      -1.6863107660670629 [Eh]
	 SCS Total Energy          =    -416.6451126947500256 [Eh]
	-----------------------------------------------------------

  Dipole Moment: [D]
     X:     0.0048      Y:     0.0158      Z:     1.5734     Total:     1.5735

*** Psi4 exiting successfully. Buy a developer a beer!
