                               Psi4 1.4a3.dev225

  ==> Input File <==

--------------------------------------------------------------------------
#psi4
#
memory 32 gb

molecule  {
0 1
  O       -2.0311024     1.2661519    -0.4959357
  O        2.0737210    -1.2628680    -0.4915300
  N       -2.9762380    -0.6534170     0.3462040
  N        2.9762380     0.6534180     0.3462030
  C       -0.5555480    -0.5175680     0.1381390
  C        0.5555480     0.5175670     0.1381410
  C       -1.9182850     0.1263550    -0.0446340
  C        1.9182850    -0.1263550    -0.0446340
  H       -0.3806750    -1.2252780    -0.6804370
  H       -0.5383610    -1.1077740     1.0609210
  H        0.3806750     1.2252800    -0.6804340
  H        0.5383600     1.1077700     1.0609240
  H       -2.8543230    -1.6451260     0.4957240
  H       -3.8970040    -0.3356840     0.0715640
  H        2.8543220     1.6451260     0.4957230
  H        3.8970030     0.3356850     0.0715640
units angstrom
no_reorient  #important for SAPT in psi4, default
symmetry c1  #important for SAPT in psi4, default
}

set PROPERTIES_ORIGIN ["COM"]
properties('MP2/aug-cc-pvtz', properties = ['dipole'])
--------------------------------------------------------------------------

    Molecular point group: c1
  Charge       = 0
  Multiplicity = 1
  Basis Set: AUG-CC-PVTZ
    Blend: AUG-CC-PVTZ
  Basis Set: (AUG-CC-PVTZ AUX)
    Blend: AUG-CC-PVTZ-JKFIT

    Orbital Energies [Eh]
    ---------------------

    Doubly Occupied:

       1A    -20.527480     2A    -20.525830     3A    -15.592818
       4A    -15.589462     5A    -11.360283     6A    -11.358836
       7A    -11.245813     8A    -11.245008     9A     -1.380787
      10A     -1.378382    11A     -1.216895    12A     -1.213149
      13A     -1.073814    14A     -0.936598    15A     -0.807086
      16A     -0.775652    17A     -0.724817    18A     -0.722869
      19A     -0.681344    20A     -0.669739    21A     -0.637717
      22A     -0.609566    23A     -0.581615    24A     -0.562774
      25A     -0.550161    26A     -0.518995    27A     -0.497916
      28A     -0.433259    29A     -0.432502    30A     -0.423601
      31A     -0.419220

  @DF-RHF Final Energy:  -414.95917328109937

   => Energetics <=

    Nuclear Repulsion Energy =            366.1000411433055319
    One-Electron Energy =               -1292.7304516831100045
    Two-Electron Energy =                 511.6712372587050481
    Total Energy =                       -414.9591732810993676
  Basis Set: (AUG-CC-PVTZ AUX)
    Blend: AUG-CC-PVTZ-RI
    Molecular point group: c1

    Geometry (in Angstrom), charge = 0, multiplicity = 1:

       Center              X                  Y                   Z               Mass
    ------------   -----------------  -----------------  -----------------  -----------------
         O           -2.036975967119     1.265699312208    -0.479184871161    15.994914619570
         O            2.067847432881    -1.263320587792    -0.474779171161    15.994914619570
         N           -2.982111567119    -0.653869587792     0.362954828839    14.003074004430
         N            2.970364432881     0.652965412208     0.362953828839    14.003074004430
         C           -0.561421567119    -0.518020587792     0.154889828839    12.000000000000
         C            0.549674432881     0.517114412208     0.154891828839    12.000000000000
         C           -1.924158567119     0.125902412208    -0.027883171161    12.000000000000
         C            1.912411432881    -0.126807587792    -0.027883171161    12.000000000000
         H           -0.386548567119    -1.225730587792    -0.663686171161     1.007825032230
         H           -0.544234567119    -1.108226587792     1.077671828839     1.007825032230
         H            0.374801432881     1.224827412208    -0.663683171161     1.007825032230
         H            0.532486432881     1.107317412208     1.077674828839     1.007825032230
         H           -2.860196567119    -1.645578587792     0.512474828839     1.007825032230
         H           -3.902877567119    -0.336136587792     0.088314828839     1.007825032230
         H            2.848448432881     1.644673412208     0.512473828839     1.007825032230
         H            3.891129432881     0.335232412208     0.088314828839     1.007825032230

  Basis Set: AUG-CC-PVTZ
    Blend: AUG-CC-PVTZ
  Basis Set: (AUG-CC-PVTZ AUX)
    Blend: AUG-CC-PVTZ-JKFIT
	 Reference Energy          =    -414.9591732810993676 [Eh]
	 Singles Energy            =      -0.0000000000000000 [Eh]
	 Same-Spin Energy          =      -0.4146572460302528 [Eh]
	 Opposite-Spin Energy      =      -1.2904824730417919 [Eh]
	 Correlation Energy        =      -1.7051397190720448 [Eh]
	 Total Energy              =    -416.6643130001714326 [Eh]

	 ================> DF-SCS-MP2 Energies <==================
	-----------------------------------------------------------
	 SCS Same-Spin Scale       =       0.3333333333333333 [-]
	 SCS Opposite-Spin Scale   =       1.2000000000000000 [-]
	 SCS Same-Spin Energy      =      -0.1382190820100843 [Eh]
	 SCS Opposite-Spin Energy  =      -1.5485789676501502 [Eh]
	 SCS Correlation Energy    =      -1.6867980496602346 [Eh]
	 SCS Total Energy          =    -416.6459713307596076 [Eh]
	-----------------------------------------------------------

  Dipole Moment: [D]
     X:    -0.1519      Y:     0.0007      Z:     1.5663     Total:     1.5737

*** Psi4 exiting successfully. Buy a developer a beer!
