                               Psi4 1.4a3.dev225

  ==> Input File <==

--------------------------------------------------------------------------
#psi4
#
memory 32 gb

molecule  {
0 1
  O       -2.0737200     1.2628680    -0.4915300
  O        2.0737210    -1.2628680    -0.4915300
  N       -2.9609169    -0.6707091     0.3524438
  N        2.9762380     0.6534180     0.3462030
  C       -0.5555480    -0.5175680     0.1381390
  C        0.5555480     0.5175670     0.1381410
  C       -1.9182850     0.1263550    -0.0446340
  C        1.9182850    -0.1263550    -0.0446340
  H       -0.3806750    -1.2252780    -0.6804370
  H       -0.5383610    -1.1077740     1.0609210
  H        0.3806750     1.2252800    -0.6804340
  H        0.5383600     1.1077700     1.0609240
  H       -2.8543230    -1.6451260     0.4957240
  H       -3.8970040    -0.3356840     0.0715640
  H        2.8543220     1.6451260     0.4957230
  H        3.8970030     0.3356850     0.0715640
units angstrom
no_reorient  #important for SAPT in psi4, default
symmetry c1  #important for SAPT in psi4, default
}

set PROPERTIES_ORIGIN ["COM"]
properties('MP2/aug-cc-pvtz', properties = ['dipole'])
--------------------------------------------------------------------------

    Molecular point group: c1
  Charge       = 0
  Multiplicity = 1
  Basis Set: AUG-CC-PVTZ
    Blend: AUG-CC-PVTZ
  Basis Set: (AUG-CC-PVTZ AUX)
    Blend: AUG-CC-PVTZ-JKFIT

    Orbital Energies [Eh]
    ---------------------

    Doubly Occupied:

       1A    -20.528184     2A    -20.526581     3A    -15.590843
       4A    -15.590066     5A    -11.360493     6A    -11.359588
       7A    -11.246910     8A    -11.246075     9A     -1.381147
      10A     -1.378979    11A     -1.215675    12A     -1.213779
      13A     -1.074933    14A     -0.937029    15A     -0.807449
      16A     -0.777780    17A     -0.724189    18A     -0.723460
      19A     -0.678141    20A     -0.670303    21A     -0.638182
      22A     -0.610099    23A     -0.582287    24A     -0.563627
      25A     -0.549959    26A     -0.519883    27A     -0.498759
      28A     -0.433971    29A     -0.433152    30A     -0.423102
      31A     -0.419761

  @DF-RHF Final Energy:  -414.95849143005006

   => Energetics <=

    Nuclear Repulsion Energy =            365.8636489352236367
    One-Electron Energy =               -1292.2355061199650663
    Two-Electron Energy =                 511.4133657546913696
    Total Energy =                       -414.9584914300500600
  Basis Set: (AUG-CC-PVTZ AUX)
    Blend: AUG-CC-PVTZ-RI
    Molecular point group: c1

    Geometry (in Angstrom), charge = 0, multiplicity = 1:

       Center              X                  Y                   Z               Mass
    ------------   -----------------  -----------------  -----------------  -----------------
         O           -2.075568682563     1.264954373674    -0.476139218647    15.994914619570
         O            2.071872317437    -1.260781626326    -0.476139218647    15.994914619570
         N           -2.962765582563    -0.668622726326     0.367834581353    14.003074004430
         N            2.974389317437     0.655504373674     0.361593781353    14.003074004430
         C           -0.557396682563    -0.515481626326     0.153529781353    12.000000000000
         C            0.553699317437     0.519653373674     0.153531781353    12.000000000000
         C           -1.920133682563     0.128441373674    -0.029243218647    12.000000000000
         C            1.916436317437    -0.124268626326    -0.029243218647    12.000000000000
         H           -0.382523682563    -1.223191626326    -0.665046218647     1.007825032230
         H           -0.540209682563    -1.105687626326     1.076311781353     1.007825032230
         H            0.378826317437     1.227366373674    -0.665043218647     1.007825032230
         H            0.536511317437     1.109856373674     1.076314781353     1.007825032230
         H           -2.856171682563    -1.643039626326     0.511114781353     1.007825032230
         H           -3.898852682563    -0.333597626326     0.086954781353     1.007825032230
         H            2.852473317437     1.647212373674     0.511113781353     1.007825032230
         H            3.895154317437     0.337771373674     0.086954781353     1.007825032230

  Basis Set: AUG-CC-PVTZ
    Blend: AUG-CC-PVTZ
  Basis Set: (AUG-CC-PVTZ AUX)
    Blend: AUG-CC-PVTZ-JKFIT
	 Reference Energy          =    -414.9584914300500600 [Eh]
	 Singles Energy            =      -0.0000000000000000 [Eh]
	 Same-Spin Energy          =      -0.4146753679757611 [Eh]
	 Opposite-Spin Energy      =      -1.2905629366556290 [Eh]
	 Correlation Energy        =      -1.7052383046313901 [Eh]
	 Total Energy              =    -416.6637297346814535 [Eh]

	 ================> DF-SCS-MP2 Energies <==================
	-----------------------------------------------------------
	 SCS Same-Spin Scale       =       0.3333333333333333 [-]
	 SCS Opposite-Spin Scale   =       1.2000000000000000 [-]
	 SCS Same-Spin Energy      =      -0.1382251226585870 [Eh]
	 SCS Opposite-Spin Energy  =      -1.5486755239867549 [Eh]
	 SCS Correlation Energy    =      -1.6869006466453420 [Eh]
	 SCS Total Energy          =    -416.6453920766954298 [Eh]
	-----------------------------------------------------------

  Dipole Moment: [D]
     X:    -0.0356      Y:     0.0168      Z:     1.5541     Total:     1.5546

*** Psi4 exiting successfully. Buy a developer a beer!
