                               Psi4 1.4a3.dev225

  ==> Input File <==

--------------------------------------------------------------------------
#psi4
#
memory 32 gb

molecule  {
0 1
  O       -2.0737200     1.2628680    -0.4915300
  O        2.0737210    -1.2628680    -0.4915300
  N       -3.0612404    -0.5448659     0.3063342
  N        2.9762380     0.6534180     0.3462030
  C       -0.5555480    -0.5175680     0.1381390
  C        0.5555480     0.5175670     0.1381410
  C       -1.9182850     0.1263550    -0.0446340
  C        1.9182850    -0.1263550    -0.0446340
  H       -0.3806750    -1.2252780    -0.6804370
  H       -0.5383610    -1.1077740     1.0609210
  H        0.3806750     1.2252800    -0.6804340
  H        0.5383600     1.1077700     1.0609240
  H       -2.8543230    -1.6451260     0.4957240
  H       -3.8970040    -0.3356840     0.0715640
  H        2.8543220     1.6451260     0.4957230
  H        3.8970030     0.3356850     0.0715640
units angstrom
no_reorient  #important for SAPT in psi4, default
symmetry c1  #important for SAPT in psi4, default
}

set PROPERTIES_ORIGIN ["COM"]
properties('MP2/aug-cc-pvtz', properties = ['dipole'])
--------------------------------------------------------------------------

    Molecular point group: c1
  Charge       = 0
  Multiplicity = 1
  Basis Set: AUG-CC-PVTZ
    Blend: AUG-CC-PVTZ
  Basis Set: (AUG-CC-PVTZ AUX)
    Blend: AUG-CC-PVTZ-JKFIT

    Orbital Energies [Eh]
    ---------------------

    Doubly Occupied:

       1A    -20.528800     2A    -20.520378     3A    -15.592018
       4A    -15.587221     5A    -11.362204     6A    -11.359647
       7A    -11.254071     8A    -11.250450     9A     -1.382586
      10A     -1.380008    11A     -1.215797    12A     -1.209609
      13A     -1.080486    14A     -0.944814    15A     -0.821207
      16A     -0.780594    17A     -0.725981    18A     -0.699009
      19A     -0.693835    20A     -0.671833    21A     -0.637168
      22A     -0.602757    23A     -0.581293    24A     -0.562527
      25A     -0.556916    26A     -0.522804    27A     -0.502158
      28A     -0.435886    29A     -0.430192    30A     -0.422701
      31A     -0.415577

  @DF-RHF Final Energy:  -414.92805731132614

   => Energetics <=

    Nuclear Repulsion Energy =            365.6100544356071964
    One-Electron Energy =               -1291.6151732159755738
    Two-Electron Energy =                 511.0770614690421780
    Total Energy =                       -414.9280573113261426
  Basis Set: (AUG-CC-PVTZ AUX)
    Blend: AUG-CC-PVTZ-RI
    Molecular point group: c1

    Geometry (in Angstrom), charge = 0, multiplicity = 1:

       Center              X                  Y                   Z               Mass
    ------------   -----------------  -----------------  -----------------  -----------------
         O           -2.063464127906     1.249770733822    -0.470575854396    15.994914619570
         O            2.083976872094    -1.275965266178    -0.470575854396    15.994914619570
         N           -3.050984527906    -0.557963166178     0.327288345604    14.003074004430
         N            2.986493872094     0.640320733822     0.367157145604    14.003074004430
         C           -0.545292127906    -0.530665266178     0.159093145604    12.000000000000
         C            0.565803872094     0.504469733822     0.159095145604    12.000000000000
         C           -1.908029127906     0.113257733822    -0.023679854396    12.000000000000
         C            1.928540872094    -0.139452266178    -0.023679854396    12.000000000000
         H           -0.370419127906    -1.238375266178    -0.659482854396     1.007825032230
         H           -0.528105127906    -1.120871266178     1.081875145604     1.007825032230
         H            0.390930872094     1.212182733822    -0.659479854396     1.007825032230
         H            0.548615872094     1.094672733822     1.081878145604     1.007825032230
         H           -2.844067127906    -1.658223266178     0.516678145604     1.007825032230
         H           -3.886748127906    -0.348781266178     0.092518145604     1.007825032230
         H            2.864577872094     1.632028733822     0.516677145604     1.007825032230
         H            3.907258872094     0.322587733822     0.092518145604     1.007825032230

  Basis Set: AUG-CC-PVTZ
    Blend: AUG-CC-PVTZ
  Basis Set: (AUG-CC-PVTZ AUX)
    Blend: AUG-CC-PVTZ-JKFIT
	 Reference Energy          =    -414.9280573113261426 [Eh]
	 Singles Energy            =      -0.0000000000000000 [Eh]
	 Same-Spin Energy          =      -0.4145825597423414 [Eh]
	 Opposite-Spin Energy      =      -1.2912104077947242 [Eh]
	 Correlation Energy        =      -1.7057929675370656 [Eh]
	 Total Energy              =    -416.6338502788632354 [Eh]

	 ================> DF-SCS-MP2 Energies <==================
	-----------------------------------------------------------
	 SCS Same-Spin Scale       =       0.3333333333333333 [-]
	 SCS Opposite-Spin Scale   =       1.2000000000000000 [-]
	 SCS Same-Spin Energy      =      -0.1381941865807804 [Eh]
	 SCS Opposite-Spin Energy  =      -1.5494524893536690 [Eh]
	 SCS Correlation Energy    =      -1.6876466759344495 [Eh]
	 SCS Total Energy          =    -416.6157039872605878 [Eh]
	-----------------------------------------------------------

  Dipole Moment: [D]
     X:     0.2631      Y:    -0.0541      Z:     1.5900     Total:     1.6125

*** Psi4 exiting successfully. Buy a developer a beer!
