                               Psi4 1.4a3.dev225

  ==> Input File <==

--------------------------------------------------------------------------
#psi4
#
memory 32 gb

molecule  {
0 1
  O       -2.0737200     1.2628680    -0.4915300
  O        2.0737210    -1.2628680    -0.4915300
  N       -2.9762380    -0.6534170     0.3462040
  N        2.9762380     0.6534180     0.3462030
  C       -0.5555480    -0.5175680     0.1381390
  C        0.5555480     0.5175670     0.1381410
  C       -1.9182850     0.1263550    -0.0446340
  C        1.9182850    -0.1263550    -0.0446340
  H       -0.3806750    -1.2252780    -0.6804370
  H       -0.5383610    -1.1077740     1.0609210
  H        0.3806750     1.2252800    -0.6804340
  H        0.5383600     1.1077700     1.0609240
  H       -2.8543230    -1.6451260     0.4957240
  H       -3.8970040    -0.3356840     0.0715640
  H        2.8663893     1.5469662     0.4809234
  H        3.8970030     0.3356850     0.0715640
units angstrom
no_reorient  #important for SAPT in psi4, default
symmetry c1  #important for SAPT in psi4, default
}

set PROPERTIES_ORIGIN ["COM"]
properties('MP2/aug-cc-pvtz', properties = ['dipole'])
--------------------------------------------------------------------------

    Molecular point group: c1
  Charge       = 0
  Multiplicity = 1
  Basis Set: AUG-CC-PVTZ
    Blend: AUG-CC-PVTZ
  Basis Set: (AUG-CC-PVTZ AUX)
    Blend: AUG-CC-PVTZ-JKFIT

    Orbital Energies [Eh]
    ---------------------

    Doubly Occupied:

       1A    -20.527219     2A    -20.527057     3A    -15.590499
       4A    -15.580420     5A    -11.360341     6A    -11.360151
       7A    -11.248046     8A    -11.247398     9A     -1.381876
      10A     -1.379583    11A     -1.230092    12A     -1.214226
      13A     -1.076477    14A     -0.939379    15A     -0.815044
      16A     -0.783545    17A     -0.738488    18A     -0.724137
      19A     -0.682169    20A     -0.671144    21A     -0.638818
      22A     -0.611680    23A     -0.582804    24A     -0.564923
      25A     -0.552028    26A     -0.520797    27A     -0.499606
      28A     -0.434443    29A     -0.433773    30A     -0.423738
      31A     -0.420232

  @DF-RHF Final Energy:  -414.95273366404859

   => Energetics <=

    Nuclear Repulsion Energy =            366.3562838350325137
    One-Electron Energy =               -1293.0977702285131272
    Two-Electron Energy =                 511.7887527294320194
    Total Energy =                       -414.9527336640485942
  Basis Set: (AUG-CC-PVTZ AUX)
    Blend: AUG-CC-PVTZ-RI
    Molecular point group: c1

    Geometry (in Angstrom), charge = 0, multiplicity = 1:

       Center              X                  Y                   Z               Mass
    ------------   -----------------  -----------------  -----------------  -----------------
         O           -2.073824901324     1.263720387738    -0.475257837962    15.994914619570
         O            2.073616098676    -1.262015612262    -0.475257837962    15.994914619570
         N           -2.976342901324    -0.652564612262     0.362476162038    14.003074004430
         N            2.976133098676     0.654270387738     0.362475162038    14.003074004430
         C           -0.555652901324    -0.516715612262     0.154411162038    12.000000000000
         C            0.555443098676     0.518419387738     0.154413162038    12.000000000000
         C           -1.918389901324     0.127207387738    -0.028361837962    12.000000000000
         C            1.918180098676    -0.125502612262    -0.028361837962    12.000000000000
         H           -0.380779901324    -1.224425612262    -0.664164837962     1.007825032230
         H           -0.538465901324    -1.106921612262     1.077193162038     1.007825032230
         H            0.380570098676     1.226132387738    -0.664161837962     1.007825032230
         H            0.538255098676     1.108622387738     1.077196162038     1.007825032230
         H           -2.854427901324    -1.644273612262     0.511996162038     1.007825032230
         H           -3.897108901324    -0.334831612262     0.087836162038     1.007825032230
         H            2.866284398676     1.547818587738     0.497195562038     1.007825032230
         H            3.896898098676     0.336537387738     0.087836162038     1.007825032230

  Basis Set: AUG-CC-PVTZ
    Blend: AUG-CC-PVTZ
  Basis Set: (AUG-CC-PVTZ AUX)
    Blend: AUG-CC-PVTZ-JKFIT
	 Reference Energy          =    -414.9527336640485942 [Eh]
	 Singles Energy            =      -0.0000000000000000 [Eh]
	 Same-Spin Energy          =      -0.4140129057736082 [Eh]
	 Opposite-Spin Energy      =      -1.2889337802065497 [Eh]
	 Correlation Energy        =      -1.7029466859801579 [Eh]
	 Total Energy              =    -416.6556803500287742 [Eh]

	 ================> DF-SCS-MP2 Energies <==================
	-----------------------------------------------------------
	 SCS Same-Spin Scale       =       0.3333333333333333 [-]
	 SCS Opposite-Spin Scale   =       1.2000000000000000 [-]
	 SCS Same-Spin Energy      =      -0.1380043019245361 [Eh]
	 SCS Opposite-Spin Energy  =      -1.5467205362478595 [Eh]
	 SCS Correlation Energy    =      -1.6847248381723956 [Eh]
	 SCS Total Energy          =    -416.6374585022209658 [Eh]
	-----------------------------------------------------------

  Dipole Moment: [D]
     X:    -0.0053      Y:    -0.0851      Z:     1.5456     Total:     1.5480

*** Psi4 exiting successfully. Buy a developer a beer!
