                               Psi4 1.4a3.dev225

  ==> Input File <==

--------------------------------------------------------------------------
#psi4
#
memory 32 gb

molecule  {
0 1
  O       -2.0737200     1.2628680    -0.4915300
  O        2.0737210    -1.2628680    -0.4915300
  N       -2.9762380    -0.6534170     0.3462040
  N        2.9762380     0.6534180     0.3462030
  C       -0.5555480    -0.5175680     0.1381390
  C        0.5555480     0.5175670     0.1381410
  C       -1.9182850     0.1263550    -0.0446340
  C        1.9182850    -0.1263550    -0.0446340
  H       -0.3806750    -1.2252780    -0.6804370
  H       -0.5383610    -1.1077740     1.0609210
  H        0.3806750     1.2252800    -0.6804340
  H        0.5375755     1.1347071     1.1030402
  H       -2.8543230    -1.6451260     0.4957240
  H       -3.8970040    -0.3356840     0.0715640
  H        2.8543220     1.6451260     0.4957230
  H        3.8970030     0.3356850     0.0715640
units angstrom
no_reorient  #important for SAPT in psi4, default
symmetry c1  #important for SAPT in psi4, default
}

set PROPERTIES_ORIGIN ["COM"]
properties('MP2/aug-cc-pvtz', properties = ['dipole'])
--------------------------------------------------------------------------

    Molecular point group: c1
  Charge       = 0
  Multiplicity = 1
  Basis Set: AUG-CC-PVTZ
    Blend: AUG-CC-PVTZ
  Basis Set: (AUG-CC-PVTZ AUX)
    Blend: AUG-CC-PVTZ-JKFIT

    Orbital Energies [Eh]
    ---------------------

    Doubly Occupied:

       1A    -20.527278     2A    -20.526915     3A    -15.590420
       4A    -15.590175     5A    -11.360397     6A    -11.360042
       7A    -11.253089     8A    -11.247719     9A     -1.381318
      10A     -1.379214    11A     -1.214135    12A     -1.213907
      13A     -1.074103    14A     -0.936186    15A     -0.806744
      16A     -0.774757    17A     -0.723912    18A     -0.722770
      19A     -0.681133    20A     -0.667312    21A     -0.637825
      22A     -0.609648    23A     -0.581026    24A     -0.563207
      25A     -0.549958    26A     -0.520418    27A     -0.496166
      28A     -0.433729    29A     -0.433527    30A     -0.422626
      31A     -0.419532

  @DF-RHF Final Energy:  -414.95745620365847

   => Energetics <=

    Nuclear Repulsion Energy =            365.5631652054042320
    One-Electron Energy =               -1291.6428667156822030
    Two-Electron Energy =                 511.1222453066195612
    Total Energy =                       -414.9574562036584666
  Basis Set: (AUG-CC-PVTZ AUX)
    Blend: AUG-CC-PVTZ-RI
    Molecular point group: c1

    Geometry (in Angstrom), charge = 0, multiplicity = 1:

       Center              X                  Y                   Z               Mass
    ------------   -----------------  -----------------  -----------------  -----------------
         O           -2.073713299355     1.262634076067    -0.475752081207    15.994914619570
         O            2.073727700645    -1.263101923933    -0.475752081207    15.994914619570
         N           -2.976231299355    -0.653650923933     0.361981918793    14.003074004430
         N            2.976244700645     0.653184076067     0.361980918793    14.003074004430
         C           -0.555541299355    -0.517801923933     0.153916918793    12.000000000000
         C            0.555554700645     0.517333076067     0.153918918793    12.000000000000
         C           -1.918278299355     0.126121076067    -0.028856081207    12.000000000000
         C            1.918291700645    -0.126588923933    -0.028856081207    12.000000000000
         H           -0.380668299355    -1.225511923933    -0.664659081207     1.007825032230
         H           -0.538354299355    -1.108007923933     1.076698918793     1.007825032230
         H            0.380681700645     1.225046076067    -0.664656081207     1.007825032230
         H            0.537582200645     1.134473176067     1.118818118793     1.007825032230
         H           -2.854316299355    -1.645359923933     0.511501918793     1.007825032230
         H           -3.896997299355    -0.335917923933     0.087341918793     1.007825032230
         H            2.854328700645     1.644892076067     0.511500918793     1.007825032230
         H            3.897009700645     0.335451076067     0.087341918793     1.007825032230

  Basis Set: AUG-CC-PVTZ
    Blend: AUG-CC-PVTZ
  Basis Set: (AUG-CC-PVTZ AUX)
    Blend: AUG-CC-PVTZ-JKFIT
	 Reference Energy          =    -414.9574562036584666 [Eh]
	 Singles Energy            =      -0.0000000000000000 [Eh]
	 Same-Spin Energy          =      -0.4146246552725817 [Eh]
	 Opposite-Spin Energy      =      -1.2907743990302811 [Eh]
	 Correlation Energy        =      -1.7053990543028628 [Eh]
	 Total Energy              =    -416.6628552579613256 [Eh]

	 ================> DF-SCS-MP2 Energies <==================
	-----------------------------------------------------------
	 SCS Same-Spin Scale       =       0.3333333333333333 [-]
	 SCS Opposite-Spin Scale   =       1.2000000000000000 [-]
	 SCS Same-Spin Energy      =      -0.1382082184241939 [Eh]
	 SCS Opposite-Spin Energy  =      -1.5489292788363374 [Eh]
	 SCS Correlation Energy    =      -1.6871374972605313 [Eh]
	 SCS Total Energy          =    -416.6445937009190175 [Eh]
	-----------------------------------------------------------

  Dipole Moment: [D]
     X:    -0.0046      Y:    -0.0183      Z:     1.5477     Total:     1.5478

*** Psi4 exiting successfully. Buy a developer a beer!
