                               Psi4 1.4a3.dev225

  ==> Input File <==

--------------------------------------------------------------------------
#psi4
#
memory 32 gb

molecule  {
0 1
  O       -2.0737200     1.2628680    -0.4915300
  O        2.0737210    -1.2628680    -0.4915300
  N       -2.9762380    -0.6534170     0.3462040
  N        2.9762380     0.6534180     0.3462030
  C       -0.5555480    -0.5175680     0.1381390
  C        0.5555480     0.5175670     0.1381410
  C       -1.9182850     0.1263550    -0.0446340
  C        1.9182850    -0.1263550    -0.0446340
  H       -0.3806750    -1.2252780    -0.6804370
  H       -0.5383610    -1.1077740     1.0609210
  H        0.3888093     1.1356617    -0.7516120
  H        0.5383600     1.1077700     1.0609240
  H       -2.8543230    -1.6451260     0.4957240
  H       -3.8970040    -0.3356840     0.0715640
  H        2.8543220     1.6451260     0.4957230
  H        3.8970030     0.3356850     0.0715640
units angstrom
no_reorient  #important for SAPT in psi4, default
symmetry c1  #important for SAPT in psi4, default
}

set PROPERTIES_ORIGIN ["COM"]
properties('MP2/aug-cc-pvtz', properties = ['dipole'])
--------------------------------------------------------------------------

    Molecular point group: c1
  Charge       = 0
  Multiplicity = 1
  Basis Set: AUG-CC-PVTZ
    Blend: AUG-CC-PVTZ
  Basis Set: (AUG-CC-PVTZ AUX)
    Blend: AUG-CC-PVTZ-JKFIT

    Orbital Energies [Eh]
    ---------------------

    Doubly Occupied:

       1A    -20.526770     2A    -20.526239     3A    -15.590469
       4A    -15.590230     5A    -11.359788     6A    -11.359306
       7A    -11.247910     8A    -11.246819     9A     -1.380935
      10A     -1.378799    11A     -1.214061    12A     -1.213939
      13A     -1.076574    14A     -0.937627    15A     -0.806705
      16A     -0.774833    17A     -0.723889    18A     -0.721876
      19A     -0.680811    20A     -0.673800    21A     -0.638548
      22A     -0.609004    23A     -0.583075    24A     -0.562672
      25A     -0.552686    26A     -0.515881    27A     -0.502744
      28A     -0.433421    29A     -0.432199    30A     -0.422444
      31A     -0.419374

  @DF-RHF Final Energy:  -414.95858784226033

   => Energetics <=

    Nuclear Repulsion Energy =            365.8838010311410471
    One-Electron Energy =               -1292.2779254159781885
    Two-Electron Energy =                 511.4355365425768127
    Total Energy =                       -414.9585878422603287
  Basis Set: (AUG-CC-PVTZ AUX)
    Blend: AUG-CC-PVTZ-RI
    Molecular point group: c1

    Geometry (in Angstrom), charge = 0, multiplicity = 1:

       Center              X                  Y                   Z               Mass
    ------------   -----------------  -----------------  -----------------  -----------------
         O           -2.073790748089     1.263646215387    -0.474768261371    15.994914619570
         O            2.073650251911    -1.262089784613    -0.474768261371    15.994914619570
         N           -2.976308748089    -0.652638784613     0.362965738629    14.003074004430
         N            2.976167251911     0.654196215387     0.362964738629    14.003074004430
         C           -0.555618748089    -0.516789784613     0.154900738629    12.000000000000
         C            0.555477251911     0.518345215387     0.154902738629    12.000000000000
         C           -1.918355748089     0.127133215387    -0.027872261371    12.000000000000
         C            1.918214251911    -0.125576784613    -0.027872261371    12.000000000000
         H           -0.380745748089    -1.224499784613    -0.663675261371     1.007825032230
         H           -0.538431748089    -1.106995784613     1.077682738629     1.007825032230
         H            0.388738551911     1.136439915387    -0.734850261371     1.007825032230
         H            0.538289251911     1.108548215387     1.077685738629     1.007825032230
         H           -2.854393748089    -1.644347784613     0.512485738629     1.007825032230
         H           -3.897074748089    -0.334905784613     0.088325738629     1.007825032230
         H            2.854251251911     1.645904215387     0.512484738629     1.007825032230
         H            3.896932251911     0.336463215387     0.088325738629     1.007825032230

  Basis Set: AUG-CC-PVTZ
    Blend: AUG-CC-PVTZ
  Basis Set: (AUG-CC-PVTZ AUX)
    Blend: AUG-CC-PVTZ-JKFIT
	 Reference Energy          =    -414.9585878422603287 [Eh]
	 Singles Energy            =      -0.0000000000000000 [Eh]
	 Same-Spin Energy          =      -0.4146325805379313 [Eh]
	 Opposite-Spin Energy      =      -1.2904988863869371 [Eh]
	 Correlation Energy        =      -1.7051314669248683 [Eh]
	 Total Energy              =    -416.6637193091851827 [Eh]

	 ================> DF-SCS-MP2 Energies <==================
	-----------------------------------------------------------
	 SCS Same-Spin Scale       =       0.3333333333333333 [-]
	 SCS Opposite-Spin Scale   =       1.2000000000000000 [-]
	 SCS Same-Spin Energy      =      -0.1382108601793104 [Eh]
	 SCS Opposite-Spin Energy  =      -1.5485986636643245 [Eh]
	 SCS Correlation Energy    =      -1.6868095238436349 [Eh]
	 SCS Total Energy          =    -416.6453973661039640 [Eh]
	-----------------------------------------------------------

  Dipole Moment: [D]
     X:     0.0113      Y:    -0.0260      Z:     1.5488     Total:     1.5491

*** Psi4 exiting successfully. Buy a developer a beer!
