                               Psi4 1.4a3.dev225

  ==> Input File <==

--------------------------------------------------------------------------
#psi4
#
memory 32 gb

molecule  {
0 1
  O       -2.0737200     1.2628680    -0.4915300
  O        2.0737210    -1.2628680    -0.4915300
  N       -2.9762380    -0.6534170     0.3462040
  N        2.9762380     0.6534180     0.3462030
  C       -0.5555480    -0.5175680     0.1381390
  C        0.5555480     0.5175670     0.1381410
  C       -1.8930330    -0.0582830     0.0279687
  C        1.9182850    -0.1263550    -0.0446340
  H       -0.3806750    -1.2252780    -0.6804370
  H       -0.5383610    -1.1077740     1.0609210
  H        0.3806750     1.2252800    -0.6804340
  H        0.5383600     1.1077700     1.0609240
  H       -2.8543230    -1.6451260     0.4957240
  H       -3.8970040    -0.3356840     0.0715640
  H        2.8543220     1.6451260     0.4957230
  H        3.8970030     0.3356850     0.0715640
units angstrom
no_reorient  #important for SAPT in psi4, default
symmetry c1  #important for SAPT in psi4, default
}

set PROPERTIES_ORIGIN ["COM"]
properties('MP2/aug-cc-pvtz', properties = ['dipole'])
--------------------------------------------------------------------------

    Molecular point group: c1
  Charge       = 0
  Multiplicity = 1
  Basis Set: AUG-CC-PVTZ
    Blend: AUG-CC-PVTZ
  Basis Set: (AUG-CC-PVTZ AUX)
    Blend: AUG-CC-PVTZ-JKFIT

    Orbital Energies [Eh]
    ---------------------

    Doubly Occupied:

       1A    -20.528811     2A    -20.488751     3A    -15.620581
       4A    -15.591824     5A    -11.363444     6A    -11.362320
       7A    -11.254548     8A    -11.250991     9A     -1.382246
      10A     -1.327400    11A     -1.215626    12A     -1.197600
      13A     -1.089549    14A     -0.963937    15A     -0.830905
      16A     -0.787538    17A     -0.747121    18A     -0.724069
      19A     -0.696510    20A     -0.673916    21A     -0.638497
      22A     -0.595701    23A     -0.580030    24A     -0.566800
      25A     -0.535468    26A     -0.503141    27A     -0.488144
      28A     -0.437036    29A     -0.423505    30A     -0.399749
      31A     -0.384483

  @DF-RHF Final Energy:  -414.89411290663679

   => Energetics <=

    Nuclear Repulsion Energy =            365.4248169583427739
    One-Electron Energy =               -1291.3373759117466761
    Two-Electron Energy =                 511.0184460467671670
    Total Energy =                       -414.8941129066367921
  Basis Set: (AUG-CC-PVTZ AUX)
    Blend: AUG-CC-PVTZ-RI
    Molecular point group: c1

    Geometry (in Angstrom), charge = 0, multiplicity = 1:

       Center              X                  Y                   Z               Mass
    ------------   -----------------  -----------------  -----------------  -----------------
         O           -2.076331069151     1.281958833718    -0.482893187511    15.994914619570
         O            2.071109930849    -1.243777166282    -0.482893187511    15.994914619570
         N           -2.978849069151    -0.634326166282     0.354840812489    14.003074004430
         N            2.973626930849     0.672508833718     0.354839812489    14.003074004430
         C           -0.558159069151    -0.498477166282     0.146775812489    12.000000000000
         C            0.552936930849     0.536657833718     0.146777812489    12.000000000000
         C           -1.895644069151    -0.039192166282     0.036605512489    12.000000000000
         C            1.915673930849    -0.107264166282    -0.035997187511    12.000000000000
         H           -0.383286069151    -1.206187166282    -0.671800187511     1.007825032230
         H           -0.540972069151    -1.088683166282     1.069557812489     1.007825032230
         H            0.378063930849     1.244370833718    -0.671797187511     1.007825032230
         H            0.535748930849     1.126860833718     1.069560812489     1.007825032230
         H           -2.856934069151    -1.626035166282     0.504360812489     1.007825032230
         H           -3.899615069151    -0.316593166282     0.080200812489     1.007825032230
         H            2.851710930849     1.664216833718     0.504359812489     1.007825032230
         H            3.894391930849     0.354775833718     0.080200812489     1.007825032230

  Basis Set: AUG-CC-PVTZ
    Blend: AUG-CC-PVTZ
  Basis Set: (AUG-CC-PVTZ AUX)
    Blend: AUG-CC-PVTZ-JKFIT
	 Reference Energy          =    -414.8941129066367921 [Eh]
	 Singles Energy            =      -0.0000000000000000 [Eh]
	 Same-Spin Energy          =      -0.4190287809181760 [Eh]
	 Opposite-Spin Energy      =      -1.2985797960139938 [Eh]
	 Correlation Energy        =      -1.7176085769321698 [Eh]
	 Total Energy              =    -416.6117214835689424 [Eh]

	 ================> DF-SCS-MP2 Energies <==================
	-----------------------------------------------------------
	 SCS Same-Spin Scale       =       0.3333333333333333 [-]
	 SCS Opposite-Spin Scale   =       1.2000000000000000 [-]
	 SCS Same-Spin Energy      =      -0.1396762603060587 [Eh]
	 SCS Opposite-Spin Energy  =      -1.5582957552167924 [Eh]
	 SCS Correlation Energy    =      -1.6979720155228510 [Eh]
	 SCS Total Energy          =    -416.5920849221596427 [Eh]
	-----------------------------------------------------------

  Dipole Moment: [D]
     X:    -0.1332      Y:    -1.1495      Z:     2.0578     Total:     2.3608

*** Psi4 exiting successfully. Buy a developer a beer!
