                               Psi4 1.4a3.dev225

  ==> Input File <==

--------------------------------------------------------------------------
#psi4
#
memory 32 gb

molecule  {
0 1
  O       -2.0737200     1.2628680    -0.4915300
  O        2.0737210    -1.2628680    -0.4915300
  N       -2.9762380    -0.6534170     0.3462040
  N        2.9912368     0.6358884     0.3398441
  C       -0.5555480    -0.5175680     0.1381390
  C        0.5555480     0.5175670     0.1381410
  C       -1.9182850     0.1263550    -0.0446340
  C        1.9182850    -0.1263550    -0.0446340
  H       -0.3806750    -1.2252780    -0.6804370
  H       -0.5383610    -1.1077740     1.0609210
  H        0.3806750     1.2252800    -0.6804340
  H        0.5383600     1.1077700     1.0609240
  H       -2.8543230    -1.6451260     0.4957240
  H       -3.8970040    -0.3356840     0.0715640
  H        2.8543220     1.6451260     0.4957230
  H        3.8970030     0.3356850     0.0715640
units angstrom
no_reorient  #important for SAPT in psi4, default
symmetry c1  #important for SAPT in psi4, default
}

set PROPERTIES_ORIGIN ["COM"]
properties('MP2/aug-cc-pvtz', properties = ['dipole'])
--------------------------------------------------------------------------

    Molecular point group: c1
  Charge       = 0
  Multiplicity = 1
  Basis Set: AUG-CC-PVTZ
    Blend: AUG-CC-PVTZ
  Basis Set: (AUG-CC-PVTZ AUX)
    Blend: AUG-CC-PVTZ-JKFIT

    Orbital Energies [Eh]
    ---------------------

    Doubly Occupied:

       1A    -20.527154     2A    -20.525602     3A    -15.590571
       4A    -15.589779     5A    -11.360270     6A    -11.359497
       7A    -11.248446     8A    -11.247599     9A     -1.381210
      10A     -1.379059    11A     -1.214301    12A     -1.212639
      13A     -1.076348    14A     -0.938670    15A     -0.807145
      16A     -0.774789    17A     -0.724216    18A     -0.722315
      19A     -0.683748    20A     -0.670727    21A     -0.637451
      22A     -0.608753    23A     -0.581946    24A     -0.563687
      25A     -0.552390    26A     -0.520657    27A     -0.499603
      28A     -0.433905    29A     -0.432913    30A     -0.422273
      31A     -0.419048

  @DF-RHF Final Energy:  -414.95900237217495

   => Energetics <=

    Nuclear Repulsion Energy =            365.7503259257225636
    One-Electron Energy =               -1292.0052331021149712
    Two-Electron Energy =                 511.2959048042174572
    Total Energy =                       -414.9590023721749503
  Basis Set: (AUG-CC-PVTZ AUX)
    Blend: AUG-CC-PVTZ-RI
    Molecular point group: c1

    Geometry (in Angstrom), charge = 0, multiplicity = 1:

       Center              X                  Y                   Z               Mass
    ------------   -----------------  -----------------  -----------------  -----------------
         O           -2.075529795384     1.264983029290    -0.474619119640    15.994914619570
         O            2.071911204616    -1.260752970710    -0.474619119640    15.994914619570
         N           -2.978047795384    -0.651301970710     0.363114880360    14.003074004430
         N            2.989427004616     0.638003429290     0.356754980360    14.003074004430
         C           -0.557357795384    -0.515452970710     0.155049880360    12.000000000000
         C            0.553738204616     0.519682029290     0.155051880360    12.000000000000
         C           -1.920094795384     0.128470029290    -0.027723119640    12.000000000000
         C            1.916475204616    -0.124239970710    -0.027723119640    12.000000000000
         H           -0.382484795384    -1.223162970710    -0.663526119640     1.007825032230
         H           -0.540170795384    -1.105658970710     1.077831880360     1.007825032230
         H            0.378865204616     1.227395029290    -0.663523119640     1.007825032230
         H            0.536550204616     1.109885029290     1.077834880360     1.007825032230
         H           -2.856132795384    -1.643010970710     0.512634880360     1.007825032230
         H           -3.898813795384    -0.333568970710     0.088474880360     1.007825032230
         H            2.852512204616     1.647241029290     0.512633880360     1.007825032230
         H            3.895193204616     0.337800029290     0.088474880360     1.007825032230

  Basis Set: AUG-CC-PVTZ
    Blend: AUG-CC-PVTZ
  Basis Set: (AUG-CC-PVTZ AUX)
    Blend: AUG-CC-PVTZ-JKFIT
	 Reference Energy          =    -414.9590023721749503 [Eh]
	 Singles Energy            =      -0.0000000000000000 [Eh]
	 Same-Spin Energy          =      -0.4145282915872114 [Eh]
	 Opposite-Spin Energy      =      -1.2903288747798265 [Eh]
	 Correlation Energy        =      -1.7048571663670380 [Eh]
	 Total Energy              =    -416.6638595385419990 [Eh]

	 ================> DF-SCS-MP2 Energies <==================
	-----------------------------------------------------------
	 SCS Same-Spin Scale       =       0.3333333333333333 [-]
	 SCS Opposite-Spin Scale   =       1.2000000000000000 [-]
	 SCS Same-Spin Energy      =      -0.1381760971957371 [Eh]
	 SCS Opposite-Spin Energy  =      -1.5483946497357917 [Eh]
	 SCS Correlation Energy    =      -1.6865707469315288 [Eh]
	 SCS Total Energy          =    -416.6455731191064729 [Eh]
	-----------------------------------------------------------

  Dipole Moment: [D]
     X:    -0.0381      Y:     0.0148      Z:     1.5689     Total:     1.5695

*** Psi4 exiting successfully. Buy a developer a beer!
