                               Psi4 1.4a3.dev225

  ==> Input File <==

--------------------------------------------------------------------------
#psi4
#
memory 32 gb

molecule  {
0 1
  O       -2.0949610     1.2607065    -0.4891226
  O        2.0737210    -1.2628680    -0.4915300
  N       -2.9762380    -0.6534170     0.3462040
  N        2.9762380     0.6534180     0.3462030
  C       -0.5555480    -0.5175680     0.1381390
  C        0.5555480     0.5175670     0.1381410
  C       -1.9182850     0.1263550    -0.0446340
  C        1.9182850    -0.1263550    -0.0446340
  H       -0.3806750    -1.2252780    -0.6804370
  H       -0.5383610    -1.1077740     1.0609210
  H        0.3806750     1.2252800    -0.6804340
  H        0.5383600     1.1077700     1.0609240
  H       -2.8543230    -1.6451260     0.4957240
  H       -3.8970040    -0.3356840     0.0715640
  H        2.8543220     1.6451260     0.4957230
  H        3.8970030     0.3356850     0.0715640
units angstrom
no_reorient  #important for SAPT in psi4, default
symmetry c1  #important for SAPT in psi4, default
}

set PROPERTIES_ORIGIN ["COM"]
properties('MP2/aug-cc-pvtz', properties = ['dipole'])
--------------------------------------------------------------------------

    Molecular point group: c1
  Charge       = 0
  Multiplicity = 1
  Basis Set: AUG-CC-PVTZ
    Blend: AUG-CC-PVTZ
  Basis Set: (AUG-CC-PVTZ AUX)
    Blend: AUG-CC-PVTZ-JKFIT

    Orbital Energies [Eh]
    ---------------------

    Doubly Occupied:

       1A    -20.527367     2A    -20.526525     3A    -15.590731
       4A    -15.589044     5A    -11.360454     6A    -11.359752
       7A    -11.248496     8A    -11.247807     9A     -1.381393
      10A     -1.379285    11A     -1.214471    12A     -1.212566
      13A     -1.076504    14A     -0.938365    15A     -0.806636
      16A     -0.775971    17A     -0.724405    18A     -0.723396
      19A     -0.680903    20A     -0.670892    21A     -0.637813
      22A     -0.609511    23A     -0.582356    24A     -0.564105
      25A     -0.551729    26A     -0.520889    27A     -0.499781
      28A     -0.433961    29A     -0.433584    30A     -0.422359
      31A     -0.419212

  @DF-RHF Final Energy:  -414.95961815760290

   => Energetics <=

    Nuclear Repulsion Energy =            365.6637779934358718
    One-Electron Energy =               -1291.8262680188943250
    Two-Electron Energy =                 511.2028718678556061
    Total Energy =                       -414.9596181576029039
  Basis Set: (AUG-CC-PVTZ AUX)
    Blend: AUG-CC-PVTZ-RI
    Molecular point group: c1

    Geometry (in Angstrom), charge = 0, multiplicity = 1:

       Center              X                  Y                   Z               Mass
    ------------   -----------------  -----------------  -----------------  -----------------
         O           -2.092033728123     1.261004384167    -0.473310736252    15.994914619570
         O            2.076648271877    -1.262570115833    -0.475718136252    15.994914619570
         N           -2.973310728123    -0.653119115833     0.362015863748    14.003074004430
         N            2.979165271877     0.653715884167     0.362014863748    14.003074004430
         C           -0.552620728123    -0.517270115833     0.153950863748    12.000000000000
         C            0.558475271877     0.517864884167     0.153952863748    12.000000000000
         C           -1.915357728123     0.126652884167    -0.028822136252    12.000000000000
         C            1.921212271877    -0.126057115833    -0.028822136252    12.000000000000
         H           -0.377747728123    -1.224980115833    -0.664625136252     1.007825032230
         H           -0.535433728123    -1.107476115833     1.076732863748     1.007825032230
         H            0.383602271877     1.225577884167    -0.664622136252     1.007825032230
         H            0.541287271877     1.108067884167     1.076735863748     1.007825032230
         H           -2.851395728123    -1.644828115833     0.511535863748     1.007825032230
         H           -3.894076728123    -0.335386115833     0.087375863748     1.007825032230
         H            2.857249271877     1.645423884167     0.511534863748     1.007825032230
         H            3.899930271877     0.335982884167     0.087375863748     1.007825032230

  Basis Set: AUG-CC-PVTZ
    Blend: AUG-CC-PVTZ
  Basis Set: (AUG-CC-PVTZ AUX)
    Blend: AUG-CC-PVTZ-JKFIT
	 Reference Energy          =    -414.9596181576029039 [Eh]
	 Singles Energy            =      -0.0000000000000000 [Eh]
	 Same-Spin Energy          =      -0.4145663661514273 [Eh]
	 Opposite-Spin Energy      =      -1.2903861124836229 [Eh]
	 Correlation Energy        =      -1.7049524786350503 [Eh]
	 Total Energy              =    -416.6645706362379542 [Eh]

	 ================> DF-SCS-MP2 Energies <==================
	-----------------------------------------------------------
	 SCS Same-Spin Scale       =       0.3333333333333333 [-]
	 SCS Opposite-Spin Scale   =       1.2000000000000000 [-]
	 SCS Same-Spin Energy      =      -0.1381887887171424 [Eh]
	 SCS Opposite-Spin Energy  =      -1.5484633349803474 [Eh]
	 SCS Correlation Energy    =      -1.6866521236974898 [Eh]
	 SCS Total Energy          =    -416.6462702813004171 [Eh]
	-----------------------------------------------------------

  Dipole Moment: [D]
     X:     0.0756      Y:     0.0013      Z:     1.5590     Total:     1.5608

*** Psi4 exiting successfully. Buy a developer a beer!
