                               Psi4 1.4a3.dev225

  ==> Input File <==

--------------------------------------------------------------------------
#psi4
#
memory 32 gb

molecule  {
0 1
  O       -2.0737200     1.2628680    -0.4915300
  O        2.0737210    -1.2628680    -0.4915300
  N       -2.9762380    -0.6534170     0.3462040
  N        2.9762380     0.6534180     0.3462030
  C       -0.5555480    -0.5175680     0.1381390
  C        0.5555480     0.5175670     0.1381410
  C       -1.9157598     0.1078912    -0.0373737
  C        1.9182850    -0.1263550    -0.0446340
  H       -0.3806750    -1.2252780    -0.6804370
  H       -0.5383610    -1.1077740     1.0609210
  H        0.3806750     1.2252800    -0.6804340
  H        0.5383600     1.1077700     1.0609240
  H       -2.8543230    -1.6451260     0.4957240
  H       -3.8970040    -0.3356840     0.0715640
  H        2.8543220     1.6451260     0.4957230
  H        3.8970030     0.3356850     0.0715640
units angstrom
no_reorient  #important for SAPT in psi4, default
symmetry c1  #important for SAPT in psi4, default
}

set PROPERTIES_ORIGIN ["COM"]
properties('MP2/aug-cc-pvtz', properties = ['dipole'])
--------------------------------------------------------------------------

    Molecular point group: c1
  Charge       = 0
  Multiplicity = 1
  Basis Set: AUG-CC-PVTZ
    Blend: AUG-CC-PVTZ
  Basis Set: (AUG-CC-PVTZ AUX)
    Blend: AUG-CC-PVTZ-JKFIT

    Orbital Energies [Eh]
    ---------------------

    Doubly Occupied:

       1A    -20.527083     2A    -20.523029     3A    -15.593419
       4A    -15.590482     5A    -11.360655     6A    -11.360196
       7A    -11.248250     8A    -11.247464     9A     -1.380417
      10A     -1.367904    11A     -1.216931    12A     -1.214211
      13A     -1.076988    14A     -0.940503    15A     -0.808807
      16A     -0.777167    17A     -0.725954    18A     -0.723868
      19A     -0.682400    20A     -0.670335    21A     -0.636382
      22A     -0.606367    23A     -0.580745    24A     -0.561270
      25A     -0.552016    26A     -0.519607    27A     -0.498778
      28A     -0.434110    29A     -0.431599    30A     -0.421886
      31A     -0.418150

  @DF-RHF Final Energy:  -414.95749470132074

   => Energetics <=

    Nuclear Repulsion Energy =            365.7339888126498408
    One-Electron Energy =               -1291.9890190470910056
    Two-Electron Energy =                 511.2975355331204241
    Total Energy =                       -414.9574947013207407
  Basis Set: (AUG-CC-PVTZ AUX)
    Blend: AUG-CC-PVTZ-RI
    Molecular point group: c1

    Geometry (in Angstrom), charge = 0, multiplicity = 1:

       Center              X                  Y                   Z               Mass
    ------------   -----------------  -----------------  -----------------  -----------------
         O           -2.073981207505     1.264777075654    -0.476137040599    15.994914619570
         O            2.073459792495    -1.260958924346    -0.476137040599    15.994914619570
         N           -2.976499207505    -0.651507924346     0.361596959401    14.003074004430
         N            2.975976792495     0.655327075654     0.361595959401    14.003074004430
         C           -0.555809207505    -0.515658924346     0.153531959401    12.000000000000
         C            0.555286792495     0.519476075654     0.153533959401    12.000000000000
         C           -1.916021007505     0.109800275654    -0.021980740599    12.000000000000
         C            1.918023792495    -0.124445924346    -0.029241040599    12.000000000000
         H           -0.380936207505    -1.223368924346    -0.665044040599     1.007825032230
         H           -0.538622207505    -1.105864924346     1.076313959401     1.007825032230
         H            0.380413792495     1.227189075654    -0.665041040599     1.007825032230
         H            0.538098792495     1.109679075654     1.076316959401     1.007825032230
         H           -2.854584207505    -1.643216924346     0.511116959401     1.007825032230
         H           -3.897265207505    -0.333774924346     0.086956959401     1.007825032230
         H            2.854060792495     1.647035075654     0.511115959401     1.007825032230
         H            3.896741792495     0.337594075654     0.086956959401     1.007825032230

  Basis Set: AUG-CC-PVTZ
    Blend: AUG-CC-PVTZ
  Basis Set: (AUG-CC-PVTZ AUX)
    Blend: AUG-CC-PVTZ-JKFIT
	 Reference Energy          =    -414.9574947013207407 [Eh]
	 Singles Energy            =      -0.0000000000000000 [Eh]
	 Same-Spin Energy          =      -0.4150250160081985 [Eh]
	 Opposite-Spin Energy      =      -1.2912010362211606 [Eh]
	 Correlation Energy        =      -1.7062260522293591 [Eh]
	 Total Energy              =    -416.6637207535500806 [Eh]

	 ================> DF-SCS-MP2 Energies <==================
	-----------------------------------------------------------
	 SCS Same-Spin Scale       =       0.3333333333333333 [-]
	 SCS Opposite-Spin Scale   =       1.2000000000000000 [-]
	 SCS Same-Spin Energy      =      -0.1383416720027328 [Eh]
	 SCS Opposite-Spin Energy  =      -1.5494412434653926 [Eh]
	 SCS Correlation Energy    =      -1.6877829154681254 [Eh]
	 SCS Total Energy          =    -416.6452776167888601 [Eh]
	-----------------------------------------------------------

  Dipole Moment: [D]
     X:    -0.0163      Y:    -0.1254      Z:     1.6160     Total:     1.6210

*** Psi4 exiting successfully. Buy a developer a beer!
