                               Psi4 1.4a3.dev225

  ==> Input File <==

--------------------------------------------------------------------------
#psi4
#
memory 32 gb

molecule  {
0 1
  O       -2.0737200     1.2628680    -0.4915300
  O        2.0737210    -1.2628680    -0.4915300
  N       -2.9762380    -0.6534170     0.3462040
  N        2.9762380     0.6534180     0.3462030
  C       -0.5555480    -0.5175680     0.1381390
  C        0.5555480     0.5175670     0.1381410
  C       -1.9182850     0.1263550    -0.0446340
  C        1.9182850    -0.1263550    -0.0446340
  H       -0.3806750    -1.2252780    -0.6804370
  H       -0.5383610    -1.1077740     1.0609210
  H        0.3806750     1.2252800    -0.6804340
  H        0.5383600     1.1077700     1.0609240
  H       -2.8543230    -1.6451260     0.4957240
  H       -3.8970040    -0.3356840     0.0715640
  H        2.8519085     1.6647580     0.4986829
  H        3.8970030     0.3356850     0.0715640
units angstrom
no_reorient  #important for SAPT in psi4, default
symmetry c1  #important for SAPT in psi4, default
}

set PROPERTIES_ORIGIN ["COM"]
properties('MP2/aug-cc-pvtz', properties = ['dipole'])
--------------------------------------------------------------------------

    Molecular point group: c1
  Charge       = 0
  Multiplicity = 1
  Basis Set: AUG-CC-PVTZ
    Blend: AUG-CC-PVTZ
  Basis Set: (AUG-CC-PVTZ AUX)
    Blend: AUG-CC-PVTZ-JKFIT

    Orbital Energies [Eh]
    ---------------------

    Doubly Occupied:

       1A    -20.526822     2A    -20.526813     3A    -15.592110
       4A    -15.590276     5A    -11.359876     6A    -11.359855
       7A    -11.247467     8A    -11.246827     9A     -1.381018
      10A     -1.378918    11A     -1.213997    12A     -1.211384
      13A     -1.075458    14A     -0.937510    15A     -0.805808
      16A     -0.774557    17A     -0.723841    18A     -0.720421
      19A     -0.680773    20A     -0.670379    21A     -0.637539
      22A     -0.609007    23A     -0.581974    24A     -0.563386
      25A     -0.551046    26A     -0.520163    27A     -0.499081
      28A     -0.433493    29A     -0.433236    30A     -0.422380
      31A     -0.419345

  @DF-RHF Final Energy:  -414.95860831065909

   => Energetics <=

    Nuclear Repulsion Energy =            365.7020866003041988
    One-Electron Energy =               -1291.9318720899275377
    Two-Electron Energy =                 511.2711771789641944
    Total Energy =                       -414.9586083106590877
  Basis Set: (AUG-CC-PVTZ AUX)
    Blend: AUG-CC-PVTZ-RI
    Molecular point group: c1

    Geometry (in Angstrom), charge = 0, multiplicity = 1:

       Center              X                  Y                   Z               Mass
    ------------   -----------------  -----------------  -----------------  -----------------
         O           -2.073699153507     1.262697511815    -0.475412057228    15.994914619570
         O            2.073741846493    -1.263038488185    -0.475412057228    15.994914619570
         N           -2.976217153507    -0.653587488185     0.362321942772    14.003074004430
         N            2.976258846493     0.653247511815     0.362320942772    14.003074004430
         C           -0.555527153507    -0.517738488185     0.154256942772    12.000000000000
         C            0.555568846493     0.517396511815     0.154258942772    12.000000000000
         C           -1.918264153507     0.126184511815    -0.028516057228    12.000000000000
         C            1.918305846493    -0.126525488185    -0.028516057228    12.000000000000
         H           -0.380654153507    -1.225448488185    -0.664319057228     1.007825032230
         H           -0.538340153507    -1.107944488185     1.077038942772     1.007825032230
         H            0.380695846493     1.225109511815    -0.664316057228     1.007825032230
         H            0.538380846493     1.107599511815     1.077041942772     1.007825032230
         H           -2.854302153507    -1.645296488185     0.511841942772     1.007825032230
         H           -3.896983153507    -0.335854488185     0.087681942772     1.007825032230
         H            2.851929346493     1.664587511815     0.514800842772     1.007825032230
         H            3.897023846493     0.335514511815     0.087681942772     1.007825032230

  Basis Set: AUG-CC-PVTZ
    Blend: AUG-CC-PVTZ
  Basis Set: (AUG-CC-PVTZ AUX)
    Blend: AUG-CC-PVTZ-JKFIT
	 Reference Energy          =    -414.9586083106590877 [Eh]
	 Singles Energy            =      -0.0000000000000000 [Eh]
	 Same-Spin Energy          =      -0.4147141055955181 [Eh]
	 Opposite-Spin Energy      =      -1.2907412053068021 [Eh]
	 Correlation Energy        =      -1.7054553109023203 [Eh]
	 Total Energy              =    -416.6640636215614109 [Eh]

	 ================> DF-SCS-MP2 Energies <==================
	-----------------------------------------------------------
	 SCS Same-Spin Scale       =       0.3333333333333333 [-]
	 SCS Opposite-Spin Scale   =       1.2000000000000000 [-]
	 SCS Same-Spin Energy      =      -0.1382380351985060 [Eh]
	 SCS Opposite-Spin Energy  =      -1.5488894463681626 [Eh]
	 SCS Correlation Energy    =      -1.6871274815666686 [Eh]
	 SCS Total Energy          =    -416.6457357922257643 [Eh]
	-----------------------------------------------------------

  Dipole Moment: [D]
     X:     0.0007      Y:     0.0169      Z:     1.5648     Total:     1.5649

*** Psi4 exiting successfully. Buy a developer a beer!
