                               Psi4 1.4a3.dev225

  ==> Input File <==

--------------------------------------------------------------------------
#psi4
#
memory 32 gb

molecule  {
0 1
  O       -2.0737200     1.2628680    -0.4915300
  O        2.0737210    -1.2628680    -0.4915300
  N       -2.9762380    -0.6534170     0.3462040
  N        2.9762380     0.6534180     0.3462030
  C       -0.5555480    -0.5175680     0.1381390
  C        0.5555480     0.5175670     0.1381410
  C       -1.9182850     0.1263550    -0.0446340
  C        1.9182850    -0.1263550    -0.0446340
  H       -0.3806750    -1.2252780    -0.6804370
  H       -0.5383610    -1.1077740     1.0609210
  H        0.3806750     1.2252800    -0.6804340
  H        0.5380462     1.1185448     1.0777705
  H       -2.8543230    -1.6451260     0.4957240
  H       -3.8970040    -0.3356840     0.0715640
  H        2.8543220     1.6451260     0.4957230
  H        3.8970030     0.3356850     0.0715640
units angstrom
no_reorient  #important for SAPT in psi4, default
symmetry c1  #important for SAPT in psi4, default
}

set PROPERTIES_ORIGIN ["COM"]
properties('MP2/aug-cc-pvtz', properties = ['dipole'])
--------------------------------------------------------------------------

    Molecular point group: c1
  Charge       = 0
  Multiplicity = 1
  Basis Set: AUG-CC-PVTZ
    Blend: AUG-CC-PVTZ
  Basis Set: (AUG-CC-PVTZ AUX)
    Blend: AUG-CC-PVTZ-JKFIT

    Orbital Energies [Eh]
    ---------------------

    Doubly Occupied:

       1A    -20.527021     2A    -20.526881     3A    -15.590354
       4A    -15.590255     5A    -11.360105     6A    -11.359968
       7A    -11.249642     8A    -11.247388     9A     -1.381193
      10A     -1.379099    11A     -1.214076    12A     -1.213976
      13A     -1.074962    14A     -0.937100    15A     -0.806751
      16A     -0.775398    17A     -0.723869    18A     -0.723421
      19A     -0.681076    20A     -0.669211    21A     -0.637791
      22A     -0.609568    23A     -0.581647    24A     -0.563462
      25A     -0.550743    26A     -0.520315    27A     -0.498036
      28A     -0.433627    29A     -0.433452    30A     -0.422585
      31A     -0.419519

  @DF-RHF Final Energy:  -414.95909412062980

   => Energetics <=

    Nuclear Repulsion Energy =            365.7055297812920003
    One-Electron Energy =               -1291.9242652733332761
    Two-Electron Energy =                 511.2596413714115329
    Total Energy =                       -414.9590941206297998
  Basis Set: (AUG-CC-PVTZ AUX)
    Blend: AUG-CC-PVTZ-RI
    Molecular point group: c1

    Geometry (in Angstrom), charge = 0, multiplicity = 1:

       Center              X                  Y                   Z               Mass
    ------------   -----------------  -----------------  -----------------  -----------------
         O           -2.073717386802     1.262774425629    -0.475532645154    15.994914619570
         O            2.073723613198    -1.262961574371    -0.475532645154    15.994914619570
         N           -2.976235386802    -0.653510574371     0.362201354846    14.003074004430
         N            2.976240613198     0.653324425629     0.362200354846    14.003074004430
         C           -0.555545386802    -0.517661574371     0.154136354846    12.000000000000
         C            0.555550613198     0.517473425629     0.154138354846    12.000000000000
         C           -1.918282386802     0.126261425629    -0.028636645154    12.000000000000
         C            1.918287613198    -0.126448574371    -0.028636645154    12.000000000000
         H           -0.380672386802    -1.225371574371    -0.664439645154     1.007825032230
         H           -0.538358386802    -1.107867574371     1.076918354846     1.007825032230
         H            0.380677613198     1.225186425629    -0.664436645154     1.007825032230
         H            0.538048813198     1.118451225629     1.093767854846     1.007825032230
         H           -2.854320386802    -1.645219574371     0.511721354846     1.007825032230
         H           -3.897001386802    -0.335777574371     0.087561354846     1.007825032230
         H            2.854324613198     1.645032425629     0.511720354846     1.007825032230
         H            3.897005613198     0.335591425629     0.087561354846     1.007825032230

  Basis Set: AUG-CC-PVTZ
    Blend: AUG-CC-PVTZ
  Basis Set: (AUG-CC-PVTZ AUX)
    Blend: AUG-CC-PVTZ-JKFIT
	 Reference Energy          =    -414.9590941206297998 [Eh]
	 Singles Energy            =      -0.0000000000000000 [Eh]
	 Same-Spin Energy          =      -0.4146027272616635 [Eh]
	 Opposite-Spin Energy      =      -1.2905449306889833 [Eh]
	 Correlation Energy        =      -1.7051476579506468 [Eh]
	 Total Energy              =    -416.6642417785804469 [Eh]

	 ================> DF-SCS-MP2 Energies <==================
	-----------------------------------------------------------
	 SCS Same-Spin Scale       =       0.3333333333333333 [-]
	 SCS Opposite-Spin Scale   =       1.2000000000000000 [-]
	 SCS Same-Spin Energy      =      -0.1382009090872212 [Eh]
	 SCS Opposite-Spin Energy  =      -1.5486539168267799 [Eh]
	 SCS Correlation Energy    =      -1.6868548259140010 [Eh]
	 SCS Total Energy          =    -416.6459489465437969 [Eh]
	-----------------------------------------------------------

  Dipole Moment: [D]
     X:    -0.0019      Y:    -0.0070      Z:     1.5565     Total:     1.5565

*** Psi4 exiting successfully. Buy a developer a beer!
