                               Psi4 1.4a3.dev225

  ==> Input File <==

--------------------------------------------------------------------------
#psi4
#
memory 32 gb

molecule  {
0 1
  O       -2.1583353     1.2521519    -0.4810913
  O        2.0737210    -1.2628680    -0.4915300
  N       -2.9762380    -0.6534170     0.3462040
  N        2.9762380     0.6534180     0.3462030
  C       -0.5555480    -0.5175680     0.1381390
  C        0.5555480     0.5175670     0.1381410
  C       -1.9182850     0.1263550    -0.0446340
  C        1.9182850    -0.1263550    -0.0446340
  H       -0.3806750    -1.2252780    -0.6804370
  H       -0.5383610    -1.1077740     1.0609210
  H        0.3806750     1.2252800    -0.6804340
  H        0.5383600     1.1077700     1.0609240
  H       -2.8543230    -1.6451260     0.4957240
  H       -3.8970040    -0.3356840     0.0715640
  H        2.8543220     1.6451260     0.4957230
  H        3.8970030     0.3356850     0.0715640
units angstrom
no_reorient  #important for SAPT in psi4, default
symmetry c1  #important for SAPT in psi4, default
}

set PROPERTIES_ORIGIN ["COM"]
properties('MP2/aug-cc-pvtz', properties = ['dipole'])
--------------------------------------------------------------------------

    Molecular point group: c1
  Charge       = 0
  Multiplicity = 1
  Basis Set: AUG-CC-PVTZ
    Blend: AUG-CC-PVTZ
  Basis Set: (AUG-CC-PVTZ AUX)
    Blend: AUG-CC-PVTZ-JKFIT

    Orbital Energies [Eh]
    ---------------------

    Doubly Occupied:

       1A    -20.528852     2A    -20.525415     3A    -15.591961
       4A    -15.585173     5A    -11.362007     6A    -11.359289
       7A    -11.251454     8A    -11.250210     9A     -1.382477
      10A     -1.379985    11A     -1.215752    12A     -1.208000
      13A     -1.079082    14A     -0.940106    15A     -0.806345
      16A     -0.776142    17A     -0.725895    18A     -0.722020
      19A     -0.680467    20A     -0.671922    21A     -0.637988
      22A     -0.609524    23A     -0.583097    24A     -0.565357
      25A     -0.553169    26A     -0.522703    27A     -0.501576
      28A     -0.435501    29A     -0.433481    30A     -0.422986
      31A     -0.416746

  @DF-RHF Final Energy:  -414.95840518432493

   => Energetics <=

    Nuclear Repulsion Energy =            365.2841839732861331
    One-Electron Energy =               -1291.0358143760579424
    Two-Electron Energy =                 510.7932252184468211
    Total Energy =                       -414.9584051843249313
  Basis Set: (AUG-CC-PVTZ AUX)
    Blend: AUG-CC-PVTZ-RI
    Molecular point group: c1

    Geometry (in Angstrom), charge = 0, multiplicity = 1:

       Center              X                  Y                   Z               Mass
    ------------   -----------------  -----------------  -----------------  -----------------
         O           -2.146673934191     1.253628758609    -0.466386290744    15.994914619570
         O            2.085382365809    -1.261391141391    -0.476824990744    15.994914619570
         N           -2.964576634191    -0.651940141391     0.360909009256    14.003074004430
         N            2.987899365809     0.654894858609     0.360908009256    14.003074004430
         C           -0.543886634191    -0.516091141391     0.152844009256    12.000000000000
         C            0.567209365809     0.519043858609     0.152846009256    12.000000000000
         C           -1.906623634191     0.127831858609    -0.029928990744    12.000000000000
         C            1.929946365809    -0.124878141391    -0.029928990744    12.000000000000
         H           -0.369013634191    -1.223801141391    -0.665731990744     1.007825032230
         H           -0.526699634191    -1.106297141391     1.075626009256     1.007825032230
         H            0.392336365809     1.226756858609    -0.665728990744     1.007825032230
         H            0.550021365809     1.109246858609     1.075629009256     1.007825032230
         H           -2.842661634191    -1.643649141391     0.510429009256     1.007825032230
         H           -3.885342634191    -0.334207141391     0.086269009256     1.007825032230
         H            2.865983365809     1.646602858609     0.510428009256     1.007825032230
         H            3.908664365809     0.337161858609     0.086269009256     1.007825032230

  Basis Set: AUG-CC-PVTZ
    Blend: AUG-CC-PVTZ
  Basis Set: (AUG-CC-PVTZ AUX)
    Blend: AUG-CC-PVTZ-JKFIT
	 Reference Energy          =    -414.9584051843249313 [Eh]
	 Singles Energy            =      -0.0000000000000000 [Eh]
	 Same-Spin Energy          =      -0.4145382114814525 [Eh]
	 Opposite-Spin Energy      =      -1.2904154660869738 [Eh]
	 Correlation Energy        =      -1.7049536775684264 [Eh]
	 Total Energy              =    -416.6633588618933572 [Eh]

	 ================> DF-SCS-MP2 Energies <==================
	-----------------------------------------------------------
	 SCS Same-Spin Scale       =       0.3333333333333333 [-]
	 SCS Opposite-Spin Scale   =       1.2000000000000000 [-]
	 SCS Same-Spin Energy      =      -0.1381794038271508 [Eh]
	 SCS Opposite-Spin Energy  =      -1.5484985593043685 [Eh]
	 SCS Correlation Energy    =      -1.6866779631315194 [Eh]
	 SCS Total Energy          =    -416.6450831474564325 [Eh]
	-----------------------------------------------------------

  Dipole Moment: [D]
     X:     0.3010      Y:     0.0118      Z:     1.5474     Total:     1.5765

*** Psi4 exiting successfully. Buy a developer a beer!
