                               Psi4 1.4a3.dev225

  ==> Input File <==

--------------------------------------------------------------------------
#psi4
#
memory 32 gb

molecule  {
0 1
  O       -2.0737200     1.2628680    -0.4915300
  O        2.0737210    -1.2628680    -0.4915300
  N       -2.9762380    -0.6534170     0.3462040
  N        2.9762380     0.6534180     0.3462030
  C       -0.5555480    -0.5175680     0.1381390
  C        0.5555480     0.5175670     0.1381410
  C       -1.9182850     0.1263550    -0.0446340
  C        1.9182850    -0.1263550    -0.0446340
  H       -0.3806750    -1.2252780    -0.6804370
  H       -0.5383610    -1.1077740     1.0609210
  H        0.3806750     1.2252800    -0.6804340
  H        0.5414979     1.0000215     0.8924591
  H       -2.8543230    -1.6451260     0.4957240
  H       -3.8970040    -0.3356840     0.0715640
  H        2.8543220     1.6451260     0.4957230
  H        3.8970030     0.3356850     0.0715640
units angstrom
no_reorient  #important for SAPT in psi4, default
symmetry c1  #important for SAPT in psi4, default
}

set PROPERTIES_ORIGIN ["COM"]
properties('MP2/aug-cc-pvtz', properties = ['dipole'])
--------------------------------------------------------------------------

    Molecular point group: c1
  Charge       = 0
  Multiplicity = 1
  Basis Set: AUG-CC-PVTZ
    Blend: AUG-CC-PVTZ
  Basis Set: (AUG-CC-PVTZ AUX)
    Blend: AUG-CC-PVTZ-JKFIT

    Orbital Energies [Eh]
    ---------------------

    Doubly Occupied:

       1A    -20.526745     2A    -20.525719     3A    -15.591006
       4A    -15.590027     5A    -11.359625     6A    -11.358668
       7A    -11.245883     8A    -11.223059     9A     -1.380750
      10A     -1.378451    11A     -1.214865    12A     -1.213775
      13A     -1.086986    14A     -0.947878    15A     -0.807851
      16A     -0.783786    17A     -0.731820    18A     -0.723723
      19A     -0.684942    20A     -0.679746    21A     -0.637679
      22A     -0.609423    23A     -0.588258    24A     -0.566449
      25A     -0.553966    26A     -0.520569    27A     -0.506469
      28A     -0.433362    29A     -0.432915    30A     -0.422440
      31A     -0.419522

  @DF-RHF Final Energy:  -414.92647139411582

   => Energetics <=

    Nuclear Repulsion Energy =            366.9103293334561045
    One-Electron Energy =               -1294.1808880173500711
    Two-Electron Energy =                 512.3440872897781446
    Total Energy =                       -414.9264713941158789
  Basis Set: (AUG-CC-PVTZ AUX)
    Blend: AUG-CC-PVTZ-RI
    Molecular point group: c1

    Geometry (in Angstrom), charge = 0, multiplicity = 1:

       Center              X                  Y                   Z               Mass
    ------------   -----------------  -----------------  -----------------  -----------------
         O           -2.073747360542     1.263803653724    -0.473923445113    15.994914619570
         O            2.073693639458    -1.261932346276    -0.473923445113    15.994914619570
         N           -2.976265360542    -0.652481346276     0.363810554887    14.003074004430
         N            2.976210639458     0.654353653724     0.363809554887    14.003074004430
         C           -0.555575360542    -0.516632346276     0.155745554887    12.000000000000
         C            0.555520639458     0.518502653724     0.155747554887    12.000000000000
         C           -1.918312360542     0.127290653724    -0.027027445113    12.000000000000
         C            1.918257639458    -0.125419346276    -0.027027445113    12.000000000000
         H           -0.380702360542    -1.224342346276    -0.662830445113     1.007825032230
         H           -0.538388360542    -1.106838346276     1.078527554887     1.007825032230
         H            0.380647639458     1.226215653724    -0.662827445113     1.007825032230
         H            0.541470539458     1.000957153724     0.910065654887     1.007825032230
         H           -2.854350360542    -1.644190346276     0.513330554887     1.007825032230
         H           -3.897031360542    -0.334748346276     0.089170554887     1.007825032230
         H            2.854294639458     1.646061653724     0.513329554887     1.007825032230
         H            3.896975639458     0.336620653724     0.089170554887     1.007825032230

  Basis Set: AUG-CC-PVTZ
    Blend: AUG-CC-PVTZ
  Basis Set: (AUG-CC-PVTZ AUX)
    Blend: AUG-CC-PVTZ-JKFIT
	 Reference Energy          =    -414.9264713941158220 [Eh]
	 Singles Energy            =      -0.0000000000000000 [Eh]
	 Same-Spin Energy          =      -0.4145839124297365 [Eh]
	 Opposite-Spin Energy      =      -1.2897577226287851 [Eh]
	 Correlation Energy        =      -1.7043416350585217 [Eh]
	 Total Energy              =    -416.6308130291743623 [Eh]

	 ================> DF-SCS-MP2 Energies <==================
	-----------------------------------------------------------
	 SCS Same-Spin Scale       =       0.3333333333333333 [-]
	 SCS Opposite-Spin Scale   =       1.2000000000000000 [-]
	 SCS Same-Spin Energy      =      -0.1381946374765788 [Eh]
	 SCS Opposite-Spin Energy  =      -1.5477092671545420 [Eh]
	 SCS Correlation Energy    =      -1.6859039046311208 [Eh]
	 SCS Total Energy          =    -416.6123752987469402 [Eh]
	-----------------------------------------------------------

  Dipole Moment: [D]
     X:     0.0205      Y:     0.0487      Z:     1.5923     Total:     1.5931

*** Psi4 exiting successfully. Buy a developer a beer!
