                               Psi4 1.4a3.dev225

  ==> Input File <==

--------------------------------------------------------------------------
#psi4
#
memory 32 gb

molecule  {
0 1
  O       -1.9455071     1.2685513    -0.5030928
  O        2.0737210    -1.2628680    -0.4915300
  N       -2.9762380    -0.6534170     0.3462040
  N        2.9762380     0.6534180     0.3462030
  C       -0.5555480    -0.5175680     0.1381390
  C        0.5555480     0.5175670     0.1381410
  C       -1.9182850     0.1263550    -0.0446340
  C        1.9182850    -0.1263550    -0.0446340
  H       -0.3806750    -1.2252780    -0.6804370
  H       -0.5383610    -1.1077740     1.0609210
  H        0.3806750     1.2252800    -0.6804340
  H        0.5383600     1.1077700     1.0609240
  H       -2.8543230    -1.6451260     0.4957240
  H       -3.8970040    -0.3356840     0.0715640
  H        2.8543220     1.6451260     0.4957230
  H        3.8970030     0.3356850     0.0715640
units angstrom
no_reorient  #important for SAPT in psi4, default
symmetry c1  #important for SAPT in psi4, default
}

set PROPERTIES_ORIGIN ["COM"]
properties('MP2/aug-cc-pvtz', properties = ['dipole'])
--------------------------------------------------------------------------

    Molecular point group: c1
  Charge       = 0
  Multiplicity = 1
  Basis Set: AUG-CC-PVTZ
    Blend: AUG-CC-PVTZ
  Basis Set: (AUG-CC-PVTZ AUX)
    Blend: AUG-CC-PVTZ-JKFIT

    Orbital Energies [Eh]
    ---------------------

    Doubly Occupied:

       1A    -20.528506     2A    -20.523700     3A    -15.597700
       4A    -15.587710     5A    -11.361090     6A    -11.356575
       7A    -11.242432     8A    -11.240917     9A     -1.380922
      10A     -1.376653    11A     -1.222319    12A     -1.211324
      13A     -1.070056    14A     -0.934220    15A     -0.807927
      16A     -0.775000    17A     -0.726739    18A     -0.720771
      19A     -0.681869    20A     -0.668106    21A     -0.637820
      22A     -0.609728    23A     -0.580624    24A     -0.560889
      25A     -0.547834    26A     -0.516359    27A     -0.495308
      28A     -0.432673    29A     -0.431374    30A     -0.424930
      31A     -0.417430

  @DF-RHF Final Energy:  -414.95596608175629

   => Energetics <=

    Nuclear Repulsion Energy =            366.7708987800984346
    One-Electron Energy =               -1294.1147212512714759
    Two-Electron Energy =                 512.3878563894168110
    Total Energy =                       -414.9559660817562872
  Basis Set: (AUG-CC-PVTZ AUX)
    Blend: AUG-CC-PVTZ-RI
    Molecular point group: c1

    Geometry (in Angstrom), charge = 0, multiplicity = 1:

       Center              X                  Y                   Z               Mass
    ------------   -----------------  -----------------  -----------------  -----------------
         O           -1.963177205943     1.267768032658    -0.485355596816    15.994914619570
         O            2.056050894057    -1.263651267342    -0.473792796816    15.994914619570
         N           -2.993908105943    -0.654200267342     0.363941203184    14.003074004430
         N            2.958567894057     0.652634732658     0.363940203184    14.003074004430
         C           -0.573218105943    -0.518351267342     0.155876203184    12.000000000000
         C            0.537877894057     0.516783732658     0.155878203184    12.000000000000
         C           -1.935955105943     0.125571732658    -0.026896796816    12.000000000000
         C            1.900614894057    -0.127138267342    -0.026896796816    12.000000000000
         H           -0.398345105943    -1.226061267342    -0.662699796816     1.007825032230
         H           -0.556031105943    -1.108557267342     1.078658203184     1.007825032230
         H            0.363004894057     1.224496732658    -0.662696796816     1.007825032230
         H            0.520689894057     1.106986732658     1.078661203184     1.007825032230
         H           -2.871993105943    -1.645909267342     0.513461203184     1.007825032230
         H           -3.914674105943    -0.336467267342     0.089301203184     1.007825032230
         H            2.836651894057     1.644342732658     0.513460203184     1.007825032230
         H            3.879332894057     0.334901732658     0.089301203184     1.007825032230

  Basis Set: AUG-CC-PVTZ
    Blend: AUG-CC-PVTZ
  Basis Set: (AUG-CC-PVTZ AUX)
    Blend: AUG-CC-PVTZ-JKFIT
	 Reference Energy          =    -414.9559660817562872 [Eh]
	 Singles Energy            =      -0.0000000000000000 [Eh]
	 Same-Spin Energy          =      -0.4148798472744080 [Eh]
	 Opposite-Spin Energy      =      -1.2908090179522582 [Eh]
	 Correlation Energy        =      -1.7056888652266662 [Eh]
	 Total Energy              =    -416.6616549469829351 [Eh]

	 ================> DF-SCS-MP2 Energies <==================
	-----------------------------------------------------------
	 SCS Same-Spin Scale       =       0.3333333333333333 [-]
	 SCS Opposite-Spin Scale   =       1.2000000000000000 [-]
	 SCS Same-Spin Energy      =      -0.1382932824248027 [Eh]
	 SCS Opposite-Spin Energy  =      -1.5489708215427098 [Eh]
	 SCS Correlation Energy    =      -1.6872641039675125 [Eh]
	 SCS Total Energy          =    -416.6432301857237803 [Eh]
	-----------------------------------------------------------

  Dipole Moment: [D]
     X:    -0.4580      Y:     0.0152      Z:     1.5696     Total:     1.6352

*** Psi4 exiting successfully. Buy a developer a beer!
