                               Psi4 1.4a3.dev225

  ==> Input File <==

--------------------------------------------------------------------------
#psi4
#
memory 32 gb

molecule  {
0 1
  O       -2.0737200     1.2628680    -0.4915300
  O        2.0737210    -1.2628680    -0.4915300
  N       -2.9762380    -0.6534170     0.3462040
  N        2.9762380     0.6534180     0.3462030
  C       -0.5555480    -0.5175680     0.1381390
  C        0.5555480     0.5175670     0.1381410
  C       -1.9182850     0.1263550    -0.0446340
  C        1.9182850    -0.1263550    -0.0446340
  H       -0.3831775    -1.1962199    -0.7052000
  H       -0.5383610    -1.1077740     1.0609210
  H        0.3806750     1.2252800    -0.6804340
  H        0.5383600     1.1077700     1.0609240
  H       -2.8543230    -1.6451260     0.4957240
  H       -3.8970040    -0.3356840     0.0715640
  H        2.8543220     1.6451260     0.4957230
  H        3.8970030     0.3356850     0.0715640
units angstrom
no_reorient  #important for SAPT in psi4, default
symmetry c1  #important for SAPT in psi4, default
}

set PROPERTIES_ORIGIN ["COM"]
properties('MP2/aug-cc-pvtz', properties = ['dipole'])
--------------------------------------------------------------------------

    Molecular point group: c1
  Charge       = 0
  Multiplicity = 1
  Basis Set: AUG-CC-PVTZ
    Blend: AUG-CC-PVTZ
  Basis Set: (AUG-CC-PVTZ AUX)
    Blend: AUG-CC-PVTZ-JKFIT

    Orbital Energies [Eh]
    ---------------------

    Doubly Occupied:

       1A    -20.526830     2A    -20.526664     3A    -15.590367
       4A    -15.590284     5A    -11.359875     6A    -11.359705
       7A    -11.247620     8A    -11.246916     9A     -1.381058
      10A     -1.378951    11A     -1.214053    12A     -1.213993
      13A     -1.075899    14A     -0.937705    15A     -0.806742
      16A     -0.775509    17A     -0.723852    18A     -0.723229
      19A     -0.680958    20A     -0.671502    21A     -0.638093
      22A     -0.609356    23A     -0.582421    24A     -0.563309
      25A     -0.551675    26A     -0.518841    27A     -0.500554
      28A     -0.433483    29A     -0.433055    30A     -0.422523
      31A     -0.419469

  @DF-RHF Final Energy:  -414.95958182764525

   => Energetics <=

    Nuclear Repulsion Energy =            365.8287326950780312
    One-Electron Energy =               -1292.1676427789961963
    Two-Electron Energy =                 511.3793282562728564
    Total Energy =                       -414.9595818276452519
  Basis Set: (AUG-CC-PVTZ AUX)
    Blend: AUG-CC-PVTZ-RI
    Molecular point group: c1

    Geometry (in Angstrom), charge = 0, multiplicity = 1:

       Center              X                  Y                   Z               Mass
    ------------   -----------------  -----------------  -----------------  -----------------
         O           -2.073698380653     1.262615657808    -0.475171318171    15.994914619570
         O            2.073742619347    -1.263120342192    -0.475171318171    15.994914619570
         N           -2.976216380653    -0.653669342192     0.362562681829    14.003074004430
         N            2.976259619347     0.653165657808     0.362561681829    14.003074004430
         C           -0.555526380653    -0.517820342192     0.154497681829    12.000000000000
         C            0.555569619347     0.517314657808     0.154499681829    12.000000000000
         C           -1.918263380653     0.126102657808    -0.028275318171    12.000000000000
         C            1.918306619347    -0.126607342192    -0.028275318171    12.000000000000
         H           -0.383155880653    -1.196472242192    -0.688841318171     1.007825032230
         H           -0.538339380653    -1.108026342192     1.077279681829     1.007825032230
         H            0.380696619347     1.225027657808    -0.664075318171     1.007825032230
         H            0.538381619347     1.107517657808     1.077282681829     1.007825032230
         H           -2.854301380653    -1.645378342192     0.512082681829     1.007825032230
         H           -3.896982380653    -0.335936342192     0.087922681829     1.007825032230
         H            2.854343619347     1.644873657808     0.512081681829     1.007825032230
         H            3.897024619347     0.335432657808     0.087922681829     1.007825032230

  Basis Set: AUG-CC-PVTZ
    Blend: AUG-CC-PVTZ
  Basis Set: (AUG-CC-PVTZ AUX)
    Blend: AUG-CC-PVTZ-JKFIT
	 Reference Energy          =    -414.9595818276452519 [Eh]
	 Singles Energy            =      -0.0000000000000000 [Eh]
	 Same-Spin Energy          =      -0.4145902517036444 [Eh]
	 Opposite-Spin Energy      =      -1.2904180853087381 [Eh]
	 Correlation Energy        =      -1.7050083370123825 [Eh]
	 Total Energy              =    -416.6645901646576249 [Eh]

	 ================> DF-SCS-MP2 Energies <==================
	-----------------------------------------------------------
	 SCS Same-Spin Scale       =       0.3333333333333333 [-]
	 SCS Opposite-Spin Scale   =       1.2000000000000000 [-]
	 SCS Same-Spin Energy      =      -0.1381967505678814 [Eh]
	 SCS Opposite-Spin Energy  =      -1.5485017023704857 [Eh]
	 SCS Correlation Energy    =      -1.6866984529383671 [Eh]
	 SCS Total Energy          =    -416.6462802805835963 [Eh]
	-----------------------------------------------------------

  Dipole Moment: [D]
     X:    -0.0041      Y:     0.0089      Z:     1.5567     Total:     1.5568

*** Psi4 exiting successfully. Buy a developer a beer!
