                               Psi4 1.4a3.dev225

  ==> Input File <==

--------------------------------------------------------------------------
#psi4
#
memory 32 gb

molecule  {
0 1
  O       -2.0737200     1.2628680    -0.4915300
  O        2.0737210    -1.2628680    -0.4915300
  N       -2.9762380    -0.6534170     0.3462040
  N        2.9762380     0.6534180     0.3462030
  C       -0.5555480    -0.5175680     0.1381390
  C        0.5555480     0.5175670     0.1381410
  C       -1.9182850     0.1263550    -0.0446340
  C        1.9182850    -0.1263550    -0.0446340
  H       -0.3806750    -1.2252780    -0.6804370
  H       -0.5383610    -1.1077740     1.0609210
  H        0.3806750     1.2252800    -0.6804340
  H        0.5383600     1.1077700     1.0609240
  H       -2.8301886    -1.8414457     0.5253231
  H       -3.8970040    -0.3356840     0.0715640
  H        2.8543220     1.6451260     0.4957230
  H        3.8970030     0.3356850     0.0715640
units angstrom
no_reorient  #important for SAPT in psi4, default
symmetry c1  #important for SAPT in psi4, default
}

set PROPERTIES_ORIGIN ["COM"]
properties('MP2/aug-cc-pvtz', properties = ['dipole'])
--------------------------------------------------------------------------

    Molecular point group: c1
  Charge       = 0
  Multiplicity = 1
  Basis Set: AUG-CC-PVTZ
    Blend: AUG-CC-PVTZ
  Basis Set: (AUG-CC-PVTZ AUX)
    Blend: AUG-CC-PVTZ-JKFIT

    Orbital Energies [Eh]
    ---------------------

    Doubly Occupied:

       1A    -20.526767     2A    -20.526478     3A    -15.605452
       4A    -15.589954     5A    -11.359498     6A    -11.359481
       7A    -11.246626     8A    -11.245934     9A     -1.380441
      10A     -1.378243    11A     -1.213666    12A     -1.193866
      13A     -1.074162    14A     -0.935619    15A     -0.801376
      16A     -0.767018    17A     -0.723411    18A     -0.692535
      19A     -0.675517    20A     -0.667998    21A     -0.635000
      22A     -0.602481    23A     -0.580777    24A     -0.560045
      25A     -0.548986    26A     -0.519259    27A     -0.498351
      28A     -0.433037    29A     -0.431608    30A     -0.421308
      31A     -0.417795

  @DF-RHF Final Energy:  -414.92946843367980

   => Energetics <=

    Nuclear Repulsion Energy =            364.9081418485787367
    One-Electron Energy =               -1290.4498404987225513
    Two-Electron Energy =                 510.6122302164640701
    Total Energy =                       -414.9294684336798014
  Basis Set: (AUG-CC-PVTZ AUX)
    Blend: AUG-CC-PVTZ-RI
    Molecular point group: c1

    Geometry (in Angstrom), charge = 0, multiplicity = 1:

       Center              X                  Y                   Z               Mass
    ------------   -----------------  -----------------  -----------------  -----------------
         O           -2.073929689145     1.264572784920    -0.475643385693    15.994914619570
         O            2.073511310855    -1.261163215080    -0.475643385693    15.994914619570
         N           -2.976447689145    -0.651712215080     0.362090614307    14.003074004430
         N            2.976028310855     0.655122784920     0.362089614307    14.003074004430
         C           -0.555757689145    -0.515863215080     0.154025614307    12.000000000000
         C            0.555338310855     0.519271784920     0.154027614307    12.000000000000
         C           -1.918494689145     0.128059784920    -0.028747385693    12.000000000000
         C            1.918075310855    -0.124650215080    -0.028747385693    12.000000000000
         H           -0.380884689145    -1.223573215080    -0.664550385693     1.007825032230
         H           -0.538570689145    -1.106069215080     1.076807614307     1.007825032230
         H            0.380465310855     1.226984784920    -0.664547385693     1.007825032230
         H            0.538150310855     1.109474784920     1.076810614307     1.007825032230
         H           -2.830398289145    -1.839740915080     0.541209714307     1.007825032230
         H           -3.897213689145    -0.333979215080     0.087450614307     1.007825032230
         H            2.854112310855     1.646830784920     0.511609614307     1.007825032230
         H            3.896793310855     0.337389784920     0.087450614307     1.007825032230

  Basis Set: AUG-CC-PVTZ
    Blend: AUG-CC-PVTZ
  Basis Set: (AUG-CC-PVTZ AUX)
    Blend: AUG-CC-PVTZ-JKFIT
	 Reference Energy          =    -414.9294684336798014 [Eh]
	 Singles Energy            =      -0.0000000000000000 [Eh]
	 Same-Spin Energy          =      -0.4158839499255815 [Eh]
	 Opposite-Spin Energy      =      -1.2942941798875034 [Eh]
	 Correlation Energy        =      -1.7101781298130849 [Eh]
	 Total Energy              =    -416.6396465634928745 [Eh]

	 ================> DF-SCS-MP2 Energies <==================
	-----------------------------------------------------------
	 SCS Same-Spin Scale       =       0.3333333333333333 [-]
	 SCS Opposite-Spin Scale   =       1.2000000000000000 [-]
	 SCS Same-Spin Energy      =      -0.1386279833085272 [Eh]
	 SCS Opposite-Spin Energy  =      -1.5531530158650040 [Eh]
	 SCS Correlation Energy    =      -1.6917809991735311 [Eh]
	 SCS Total Energy          =    -416.6212494328533467 [Eh]
	-----------------------------------------------------------

  Dipole Moment: [D]
     X:     0.0003      Y:    -0.1610      Z:     1.5861     Total:     1.5943

*** Psi4 exiting successfully. Buy a developer a beer!
