                               Psi4 1.4a3.dev225

  ==> Input File <==

--------------------------------------------------------------------------
#psi4
#
memory 32 gb

molecule  {
0 1
  O       -2.0737200     1.2628680    -0.4915300
  O        2.0737210    -1.2628680    -0.4915300
  N       -2.9762380    -0.6534170     0.3462040
  N        2.9762380     0.6534180     0.3462030
  C       -0.5555480    -0.5175680     0.1381390
  C        0.5555480     0.5175670     0.1381410
  C       -1.9182850     0.1263550    -0.0446340
  C        1.9182850    -0.1263550    -0.0446340
  H       -0.3806750    -1.2252780    -0.6804370
  H       -0.5383610    -1.1077740     1.0609210
  H        0.3806750     1.2252800    -0.6804340
  H        0.5383600     1.1077700     1.0609240
  H       -2.8543230    -1.6451260     0.4957240
  H       -3.8970040    -0.3356840     0.0715640
  H        2.8422547     1.7432858     0.5105226
  H        3.8970030     0.3356850     0.0715640
units angstrom
no_reorient  #important for SAPT in psi4, default
symmetry c1  #important for SAPT in psi4, default
}

set PROPERTIES_ORIGIN ["COM"]
properties('MP2/aug-cc-pvtz', properties = ['dipole'])
--------------------------------------------------------------------------

    Molecular point group: c1
  Charge       = 0
  Multiplicity = 1
  Basis Set: AUG-CC-PVTZ
    Blend: AUG-CC-PVTZ
  Basis Set: (AUG-CC-PVTZ AUX)
    Blend: AUG-CC-PVTZ-JKFIT

    Orbital Energies [Eh]
    ---------------------

    Doubly Occupied:

       1A    -20.526705     2A    -20.526666     3A    -15.598660
       4A    -15.590130     5A    -11.359696     6A    -11.359641
       7A    -11.247085     8A    -11.246433     9A     -1.380702
      10A     -1.378550    11A     -1.213847    12A     -1.202329
      13A     -1.074846    14A     -0.936567    15A     -0.803180
      16A     -0.770347    17A     -0.723646    18A     -0.706363
      19A     -0.679246    20A     -0.669711    21A     -0.636528
      22A     -0.606571    23A     -0.581440    24A     -0.562097
      25A     -0.550273    26A     -0.519755    27A     -0.498746
      28A     -0.433272    29A     -0.432518    30A     -0.421804
      31A     -0.418641

  @DF-RHF Final Energy:  -414.94912330507725

   => Energetics <=

    Nuclear Repulsion Energy =            365.3262111895549538
    One-Electron Energy =               -1291.2386781437455738
    Two-Electron Energy =                 510.9633436491134262
    Total Energy =                       -414.9491233050772507
  Basis Set: (AUG-CC-PVTZ AUX)
    Blend: AUG-CC-PVTZ-RI
    Molecular point group: c1

    Geometry (in Angstrom), charge = 0, multiplicity = 1:

       Center              X                  Y                   Z               Mass
    ------------   -----------------  -----------------  -----------------  -----------------
         O           -2.073615322209     1.262015595111    -0.475514870362    15.994914619570
         O            2.073825677791    -1.263720404889    -0.475514870362    15.994914619570
         N           -2.976133322209    -0.654269404889     0.362219129638    14.003074004430
         N            2.976342677791     0.652565595111     0.362218129638    14.003074004430
         C           -0.555443322209    -0.518420404889     0.154154129638    12.000000000000
         C            0.555652677791     0.516714595111     0.154156129638    12.000000000000
         C           -1.918180322209     0.125502595111    -0.028618870362    12.000000000000
         C            1.918389677791    -0.127207404889    -0.028618870362    12.000000000000
         H           -0.380570322209    -1.226130404889    -0.664421870362     1.007825032230
         H           -0.538256322209    -1.108626404889     1.076936129638     1.007825032230
         H            0.380779677791     1.224427595111    -0.664418870362     1.007825032230
         H            0.538464677791     1.106917595111     1.076939129638     1.007825032230
         H           -2.854218322209    -1.645978404889     0.511739129638     1.007825032230
         H           -3.896899322209    -0.336536404889     0.087579129638     1.007825032230
         H            2.842359377791     1.742433395111     0.526537729638     1.007825032230
         H            3.897107677791     0.334832595111     0.087579129638     1.007825032230

  Basis Set: AUG-CC-PVTZ
    Blend: AUG-CC-PVTZ
  Basis Set: (AUG-CC-PVTZ AUX)
    Blend: AUG-CC-PVTZ-JKFIT
	 Reference Energy          =    -414.9491233050772507 [Eh]
	 Singles Energy            =      -0.0000000000000000 [Eh]
	 Same-Spin Energy          =      -0.4152271315424628 [Eh]
	 Opposite-Spin Energy      =      -1.2922104171960822 [Eh]
	 Correlation Energy        =      -1.7074375487385449 [Eh]
	 Total Energy              =    -416.6565608538157903 [Eh]

	 ================> DF-SCS-MP2 Energies <==================
	-----------------------------------------------------------
	 SCS Same-Spin Scale       =       0.3333333333333333 [-]
	 SCS Opposite-Spin Scale   =       1.2000000000000000 [-]
	 SCS Same-Spin Energy      =      -0.1384090438474876 [Eh]
	 SCS Opposite-Spin Energy  =      -1.5506525006352987 [Eh]
	 SCS Correlation Energy    =      -1.6890615444827863 [Eh]
	 SCS Total Energy          =    -416.6381848495600480 [Eh]
	-----------------------------------------------------------

  Dipole Moment: [D]
     X:     0.0019      Y:     0.0830      Z:     1.5755     Total:     1.5777

*** Psi4 exiting successfully. Buy a developer a beer!
