                               Psi4 1.4a3.dev225

  ==> Input File <==

--------------------------------------------------------------------------
#psi4
#
memory 32 gb

molecule  {
0 1
  O       -2.0737200     1.2628680    -0.4915300
  O        2.0737210    -1.2628680    -0.4915300
  N       -2.9762380    -0.6534170     0.3462040
  N        2.9762380     0.6534180     0.3462030
  C       -0.5555480    -0.5175680     0.1381390
  C        0.5555480     0.5175670     0.1381410
  C       -1.9182850     0.1263550    -0.0446340
  C        1.9182850    -0.1263550    -0.0446340
  H       -0.3806750    -1.2252780    -0.6804370
  H       -0.5383610    -1.1077740     1.0609210
  H        0.3783855     1.2534758    -0.6546736
  H        0.5383600     1.1077700     1.0609240
  H       -2.8543230    -1.6451260     0.4957240
  H       -3.8970040    -0.3356840     0.0715640
  H        2.8543220     1.6451260     0.4957230
  H        3.8970030     0.3356850     0.0715640
units angstrom
no_reorient  #important for SAPT in psi4, default
symmetry c1  #important for SAPT in psi4, default
}

set PROPERTIES_ORIGIN ["COM"]
properties('MP2/aug-cc-pvtz', properties = ['dipole'])
--------------------------------------------------------------------------

    Molecular point group: c1
  Charge       = 0
  Multiplicity = 1
  Basis Set: AUG-CC-PVTZ
    Blend: AUG-CC-PVTZ
  Basis Set: (AUG-CC-PVTZ AUX)
    Blend: AUG-CC-PVTZ-JKFIT

    Orbital Energies [Eh]
    ---------------------

    Doubly Occupied:

       1A    -20.527047     2A    -20.526891     3A    -15.590342
       4A    -15.590256     5A    -11.360149     6A    -11.359970
       7A    -11.247586     8A    -11.246884     9A     -1.381183
      10A     -1.379094    11A     -1.214075    12A     -1.214018
      13A     -1.075376    14A     -0.937875    15A     -0.806799
      16A     -0.776278    17A     -0.724633    18A     -0.723829
      19A     -0.681153    20A     -0.669649    21A     -0.637386
      22A     -0.609681    23A     -0.581809    24A     -0.564060
      25A     -0.550810    26A     -0.521619    27A     -0.497603
      28A     -0.433904    29A     -0.433478    30A     -0.422596
      31A     -0.419552

  @DF-RHF Final Energy:  -414.95944396203896

   => Energetics <=

    Nuclear Repulsion Energy =            365.7781113967129158
    One-Electron Energy =               -1292.0639387377948424
    Two-Electron Energy =                 511.3263833790429658
    Total Energy =                       -414.9594439620389608
  Basis Set: (AUG-CC-PVTZ AUX)
    Blend: AUG-CC-PVTZ-RI
    Molecular point group: c1

    Geometry (in Angstrom), charge = 0, multiplicity = 1:

       Center              X                  Y                   Z               Mass
    ------------   -----------------  -----------------  -----------------  -----------------
         O           -2.073700230294     1.262623145816    -0.475610051337    15.994914619570
         O            2.073740769706    -1.263112854184    -0.475610051337    15.994914619570
         N           -2.976218230294    -0.653661854184     0.362123948663    14.003074004430
         N            2.976257769706     0.653173145816     0.362122948663    14.003074004430
         C           -0.555528230294    -0.517812854184     0.154058948663    12.000000000000
         C            0.555567769706     0.517322145816     0.154060948663    12.000000000000
         C           -1.918265230294     0.126110145816    -0.028714051337    12.000000000000
         C            1.918304769706    -0.126599854184    -0.028714051337    12.000000000000
         H           -0.380655230294    -1.225522854184    -0.664517051337     1.007825032230
         H           -0.538341230294    -1.108018854184     1.076840948663     1.007825032230
         H            0.378405269706     1.253230945816    -0.638753651337     1.007825032230
         H            0.538379769706     1.107525145816     1.076843948663     1.007825032230
         H           -2.854303230294    -1.645370854184     0.511643948663     1.007825032230
         H           -3.896984230294    -0.335928854184     0.087483948663     1.007825032230
         H            2.854341769706     1.644881145816     0.511642948663     1.007825032230
         H            3.897022769706     0.335440145816     0.087483948663     1.007825032230

  Basis Set: AUG-CC-PVTZ
    Blend: AUG-CC-PVTZ
  Basis Set: (AUG-CC-PVTZ AUX)
    Blend: AUG-CC-PVTZ-JKFIT
	 Reference Energy          =    -414.9594439620389608 [Eh]
	 Singles Energy            =      -0.0000000000000000 [Eh]
	 Same-Spin Energy          =      -0.4146027226361620 [Eh]
	 Opposite-Spin Energy      =      -1.2904086600418487 [Eh]
	 Correlation Energy        =      -1.7050113826780109 [Eh]
	 Total Energy              =    -416.6644553447169983 [Eh]

	 ================> DF-SCS-MP2 Energies <==================
	-----------------------------------------------------------
	 SCS Same-Spin Scale       =       0.3333333333333333 [-]
	 SCS Opposite-Spin Scale   =       1.2000000000000000 [-]
	 SCS Same-Spin Energy      =      -0.1382009075453873 [Eh]
	 SCS Opposite-Spin Energy  =      -1.5484903920502184 [Eh]
	 SCS Correlation Energy    =      -1.6866912995956058 [Eh]
	 SCS Total Energy          =    -416.6461352616345835 [Eh]
	-----------------------------------------------------------

  Dipole Moment: [D]
     X:    -0.0043      Y:     0.0091      Z:     1.5679     Total:     1.5679

*** Psi4 exiting successfully. Buy a developer a beer!
