                               Psi4 1.4a3.dev225

  ==> Input File <==

--------------------------------------------------------------------------
#psi4
#
memory 32 gb

molecule  {
0 1
  O       -2.0737200     1.2628680    -0.4915300
  O        2.0737210    -1.2628680    -0.4915300
  N       -2.9762380    -0.6534170     0.3462040
  N        2.9762380     0.6534180     0.3462030
  C       -0.5555480    -0.5175680     0.1381390
  C        0.5555480     0.5175670     0.1381410
  C       -1.9182850     0.1263550    -0.0446340
  C        1.9182850    -0.1263550    -0.0446340
  H       -0.3806750    -1.2252780    -0.6804370
  H       -0.5383610    -1.1077740     1.0609210
  H        0.3795035     1.2394879    -0.6676765
  H        0.5383600     1.1077700     1.0609240
  H       -2.8543230    -1.6451260     0.4957240
  H       -3.8970040    -0.3356840     0.0715640
  H        2.8543220     1.6451260     0.4957230
  H        3.8970030     0.3356850     0.0715640
units angstrom
no_reorient  #important for SAPT in psi4, default
symmetry c1  #important for SAPT in psi4, default
}

set PROPERTIES_ORIGIN ["COM"]
properties('MP2/aug-cc-pvtz', properties = ['dipole'])
--------------------------------------------------------------------------

    Molecular point group: c1
  Charge       = 0
  Multiplicity = 1
  Basis Set: AUG-CC-PVTZ
    Blend: AUG-CC-PVTZ
  Basis Set: (AUG-CC-PVTZ AUX)
    Blend: AUG-CC-PVTZ-JKFIT

    Orbital Energies [Eh]
    ---------------------

    Doubly Occupied:

       1A    -20.526955     2A    -20.526876     3A    -15.590328
       4A    -15.590284     5A    -11.360034     6A    -11.359946
       7A    -11.247565     8A    -11.246910     9A     -1.381152
      10A     -1.379059    11A     -1.214064    12A     -1.214018
      13A     -1.075493    14A     -0.937824    15A     -0.806783
      16A     -0.776076    17A     -0.724277    18A     -0.723833
      19A     -0.681102    20A     -0.670069    21A     -0.637585
      22A     -0.609603    23A     -0.581958    24A     -0.563861
      25A     -0.551010    26A     -0.520953    27A     -0.498407
      28A     -0.433722    29A     -0.433456    30A     -0.422579
      31A     -0.419532

  @DF-RHF Final Energy:  -414.95958443103132

   => Energetics <=

    Nuclear Repulsion Energy =            365.7903602070722968
    One-Electron Energy =               -1292.0892593639177903
    Two-Electron Energy =                 511.3393147258141198
    Total Energy =                       -414.9595844310313169
  Basis Set: (AUG-CC-PVTZ AUX)
    Blend: AUG-CC-PVTZ-RI
    Molecular point group: c1

    Geometry (in Angstrom), charge = 0, multiplicity = 1:

       Center              X                  Y                   Z               Mass
    ------------   -----------------  -----------------  -----------------  -----------------
         O           -2.073709938739     1.262744613407    -0.475497137252    15.994914619570
         O            2.073731061261    -1.262991386593    -0.475497137252    15.994914619570
         N           -2.976227938739    -0.653540386593     0.362236862748    14.003074004430
         N            2.976248061261     0.653294613407     0.362235862748    14.003074004430
         C           -0.555537938739    -0.517691386593     0.154171862748    12.000000000000
         C            0.555558061261     0.517443613407     0.154173862748    12.000000000000
         C           -1.918274938739     0.126231613407    -0.028601137252    12.000000000000
         C            1.918295061261    -0.126478386593    -0.028601137252    12.000000000000
         H           -0.380664938739    -1.225401386593    -0.664404137252     1.007825032230
         H           -0.538350938739    -1.107897386593     1.076953862748     1.007825032230
         H            0.379513561261     1.239364513407    -0.651643637252     1.007825032230
         H            0.538370061261     1.107646613407     1.076956862748     1.007825032230
         H           -2.854312938739    -1.645249386593     0.511756862748     1.007825032230
         H           -3.896993938739    -0.335807386593     0.087596862748     1.007825032230
         H            2.854332061261     1.645002613407     0.511755862748     1.007825032230
         H            3.897013061261     0.335561613407     0.087596862748     1.007825032230

  Basis Set: AUG-CC-PVTZ
    Blend: AUG-CC-PVTZ
  Basis Set: (AUG-CC-PVTZ AUX)
    Blend: AUG-CC-PVTZ-JKFIT
	 Reference Energy          =    -414.9595844310313169 [Eh]
	 Singles Energy            =      -0.0000000000000000 [Eh]
	 Same-Spin Energy          =      -0.4145944382547708 [Eh]
	 Opposite-Spin Energy      =      -1.2904040764295923 [Eh]
	 Correlation Energy        =      -1.7049985146843631 [Eh]
	 Total Energy              =    -416.6645829457156651 [Eh]

	 ================> DF-SCS-MP2 Energies <==================
	-----------------------------------------------------------
	 SCS Same-Spin Scale       =       0.3333333333333333 [-]
	 SCS Opposite-Spin Scale   =       1.2000000000000000 [-]
	 SCS Same-Spin Energy      =      -0.1381981460849236 [Eh]
	 SCS Opposite-Spin Energy  =      -1.5484848917155107 [Eh]
	 SCS Correlation Energy    =      -1.6866830378004343 [Eh]
	 SCS Total Energy          =    -416.6462674688317520 [Eh]
	-----------------------------------------------------------

  Dipole Moment: [D]
     X:    -0.0021      Y:     0.0045      Z:     1.5648     Total:     1.5648

*** Psi4 exiting successfully. Buy a developer a beer!
