                               Psi4 1.4a3.dev225

  ==> Input File <==

--------------------------------------------------------------------------
#psi4
#
memory 32 gb

molecule  {
0 1
  O       -2.2002299     1.2447328    -0.4750709
  O        2.0737210    -1.2628680    -0.4915300
  N       -2.9762380    -0.6534170     0.3462040
  N        2.9762380     0.6534180     0.3462030
  C       -0.5555480    -0.5175680     0.1381390
  C        0.5555480     0.5175670     0.1381410
  C       -1.9182850     0.1263550    -0.0446340
  C        1.9182850    -0.1263550    -0.0446340
  H       -0.3806750    -1.2252780    -0.6804370
  H       -0.5383610    -1.1077740     1.0609210
  H        0.3806750     1.2252800    -0.6804340
  H        0.5383600     1.1077700     1.0609240
  H       -2.8543230    -1.6451260     0.4957240
  H       -3.8970040    -0.3356840     0.0715640
  H        2.8543220     1.6451260     0.4957230
  H        3.8970030     0.3356850     0.0715640
units angstrom
no_reorient  #important for SAPT in psi4, default
symmetry c1  #important for SAPT in psi4, default
}

set PROPERTIES_ORIGIN ["COM"]
properties('MP2/aug-cc-pvtz', properties = ['dipole'])
--------------------------------------------------------------------------

    Molecular point group: c1
  Charge       = 0
  Multiplicity = 1
  Basis Set: AUG-CC-PVTZ
    Blend: AUG-CC-PVTZ
  Basis Set: (AUG-CC-PVTZ AUX)
    Blend: AUG-CC-PVTZ-JKFIT

    Orbital Energies [Eh]
    ---------------------

    Doubly Occupied:

       1A    -20.529813     2A    -20.524589     3A    -15.592759
       4A    -15.582537     5A    -11.363008     6A    -11.359020
       7A    -11.253465     8A    -11.251705     9A     -1.383305
      10A     -1.380508    11A     -1.216583    12A     -1.204820
      13A     -1.080738    14A     -0.941250    15A     -0.806241
      16A     -0.776176    17A     -0.726864    18A     -0.721136
      19A     -0.680222    20A     -0.672494    21A     -0.638123
      22A     -0.609572    23A     -0.583593    24A     -0.566147
      25A     -0.554066    26A     -0.523864    27A     -0.502738
      28A     -0.436525    29A     -0.433104    30A     -0.423714
      31A     -0.414575

  @DF-RHF Final Energy:  -414.95666914783027

   => Energetics <=

    Nuclear Repulsion Energy =            365.0624149284030295
    One-Electron Energy =               -1290.5716641189480924
    Two-Electron Energy =                 510.5525800427147374
    Total Energy =                       -414.9566691478302687
  Basis Set: (AUG-CC-PVTZ AUX)
    Blend: AUG-CC-PVTZ-RI
    Molecular point group: c1

    Geometry (in Angstrom), charge = 0, multiplicity = 1:

       Center              X                  Y                   Z               Mass
    ------------   -----------------  -----------------  -----------------  -----------------
         O           -2.182794720963     1.247232141165    -0.461195607823    15.994914619570
         O            2.091156179037    -1.260368658835    -0.477654707823    15.994914619570
         N           -2.958802820963    -0.650917658835     0.360079292177    14.003074004430
         N            2.993673179037     0.655917341165     0.360078292177    14.003074004430
         C           -0.538112820963    -0.515068658835     0.152014292177    12.000000000000
         C            0.572983179037     0.520066341165     0.152016292177    12.000000000000
         C           -1.900849820963     0.128854341165    -0.030758707823    12.000000000000
         C            1.935720179037    -0.123855658835    -0.030758707823    12.000000000000
         H           -0.363239820963    -1.222778658835    -0.666561707823     1.007825032230
         H           -0.520925820963    -1.105274658835     1.074796292177     1.007825032230
         H            0.398110179037     1.227779341165    -0.666558707823     1.007825032230
         H            0.555795179037     1.110269341165     1.074799292177     1.007825032230
         H           -2.836887820963    -1.642626658835     0.509599292177     1.007825032230
         H           -3.879568820963    -0.333184658835     0.085439292177     1.007825032230
         H            2.871757179037     1.647625341165     0.509598292177     1.007825032230
         H            3.914438179037     0.338184341165     0.085439292177     1.007825032230

  Basis Set: AUG-CC-PVTZ
    Blend: AUG-CC-PVTZ
  Basis Set: (AUG-CC-PVTZ AUX)
    Blend: AUG-CC-PVTZ-JKFIT
	 Reference Energy          =    -414.9566691478302687 [Eh]
	 Singles Energy            =      -0.0000000000000000 [Eh]
	 Same-Spin Energy          =      -0.4145537377650499 [Eh]
	 Opposite-Spin Energy      =      -1.2905036757240804 [Eh]
	 Correlation Energy        =      -1.7050574134891303 [Eh]
	 Total Energy              =    -416.6617265613194263 [Eh]

	 ================> DF-SCS-MP2 Energies <==================
	-----------------------------------------------------------
	 SCS Same-Spin Scale       =       0.3333333333333333 [-]
	 SCS Opposite-Spin Scale   =       1.2000000000000000 [-]
	 SCS Same-Spin Energy      =      -0.1381845792550166 [Eh]
	 SCS Opposite-Spin Energy  =      -1.5486044108688966 [Eh]
	 SCS Correlation Energy    =      -1.6867889901239133 [Eh]
	 SCS Total Energy          =    -416.6434581379541555 [Eh]
	-----------------------------------------------------------

  Dipole Moment: [D]
     X:     0.4497      Y:     0.0244      Z:     1.5374     Total:     1.6020

*** Psi4 exiting successfully. Buy a developer a beer!
