                               Psi4 1.4a3.dev225

  ==> Input File <==

--------------------------------------------------------------------------
#psi4
#
memory 32 gb

molecule  {
0 1
  O       -2.0737200     1.2628680    -0.4915300
  O        2.0737210    -1.2628680    -0.4915300
  N       -2.9762380    -0.6534170     0.3462040
  N        2.9762380     0.6534180     0.3462030
  C       -0.5555480    -0.5175680     0.1381390
  C        0.5555480     0.5175670     0.1381410
  C       -1.9182850     0.1263550    -0.0446340
  C        1.9182850    -0.1263550    -0.0446340
  H       -0.3806750    -1.2252780    -0.6804370
  H       -0.5383610    -1.1077740     1.0609210
  H        0.3806750     1.2252800    -0.6804340
  H        0.5383600     1.1077700     1.0609240
  H       -2.8543230    -1.6451260     0.4957240
  H       -3.8970040    -0.3356840     0.0715640
  H        2.8567355     1.6254940     0.4927631
  H        3.8970030     0.3356850     0.0715640
units angstrom
no_reorient  #important for SAPT in psi4, default
symmetry c1  #important for SAPT in psi4, default
}

set PROPERTIES_ORIGIN ["COM"]
properties('MP2/aug-cc-pvtz', properties = ['dipole'])
--------------------------------------------------------------------------

    Molecular point group: c1
  Charge       = 0
  Multiplicity = 1
  Basis Set: AUG-CC-PVTZ
    Blend: AUG-CC-PVTZ
  Basis Set: (AUG-CC-PVTZ AUX)
    Blend: AUG-CC-PVTZ-JKFIT

    Orbital Energies [Eh]
    ---------------------

    Doubly Occupied:

       1A    -20.526917     2A    -20.526900     3A    -15.590350
       4A    -15.588453     5A    -11.359995     6A    -11.359968
       7A    -11.247660     8A    -11.247021     9A     -1.381236
      10A     -1.379133    11A     -1.216860    12A     -1.214073
      13A     -1.075784    14A     -0.938062    15A     -0.807908
      16A     -0.777309    17A     -0.727197    18A     -0.723939
      19A     -0.681307    20A     -0.670651    21A     -0.637992
      22A     -0.610007    23A     -0.582246    24A     -0.563941
      25A     -0.551390    26A     -0.520371    27A     -0.499254
      28A     -0.433701    29A     -0.433511    30A     -0.422759
      31A     -0.419672

  @DF-RHF Final Energy:  -414.96002182897212

   => Energetics <=

    Nuclear Repulsion Energy =            365.9067123398186823
    One-Electron Energy =               -1292.3023364871846752
    Two-Electron Energy =                 511.4356023183938760
    Total Energy =                       -414.9600218289721170
  Basis Set: (AUG-CC-PVTZ AUX)
    Blend: AUG-CC-PVTZ-RI
    Molecular point group: c1

    Geometry (in Angstrom), charge = 0, multiplicity = 1:

       Center              X                  Y                   Z               Mass
    ------------   -----------------  -----------------  -----------------  -----------------
         O           -2.073741070025     1.263038471035    -0.475360651096    15.994914619570
         O            2.073699929975    -1.262697528965    -0.475360651096    15.994914619570
         N           -2.976259070025    -0.653246528965     0.362373348904    14.003074004430
         N            2.976216929975     0.653588471035     0.362372348904    14.003074004430
         C           -0.555569070025    -0.517397528965     0.154308348904    12.000000000000
         C            0.555526929975     0.517737471035     0.154310348904    12.000000000000
         C           -1.918306070025     0.126525471035    -0.028464651096    12.000000000000
         C            1.918263929975    -0.126184528965    -0.028464651096    12.000000000000
         H           -0.380696070025    -1.225107528965    -0.664267651096     1.007825032230
         H           -0.538382070025    -1.107603528965     1.077090348904     1.007825032230
         H            0.380653929975     1.225450471035    -0.664264651096     1.007825032230
         H            0.538338929975     1.107940471035     1.077093348904     1.007825032230
         H           -2.854344070025    -1.644955528965     0.511893348904     1.007825032230
         H           -3.897025070025    -0.335513528965     0.087733348904     1.007825032230
         H            2.856714429975     1.625664471035     0.508932448904     1.007825032230
         H            3.896981929975     0.335855471035     0.087733348904     1.007825032230

  Basis Set: AUG-CC-PVTZ
    Blend: AUG-CC-PVTZ
  Basis Set: (AUG-CC-PVTZ AUX)
    Blend: AUG-CC-PVTZ-JKFIT
	 Reference Energy          =    -414.9600218289721170 [Eh]
	 Singles Energy            =      -0.0000000000000000 [Eh]
	 Same-Spin Energy          =      -0.4144674538650193 [Eh]
	 Opposite-Spin Energy      =      -1.2900803842242365 [Eh]
	 Correlation Energy        =      -1.7045478380892558 [Eh]
	 Total Energy              =    -416.6645696670613574 [Eh]

	 ================> DF-SCS-MP2 Energies <==================
	-----------------------------------------------------------
	 SCS Same-Spin Scale       =       0.3333333333333333 [-]
	 SCS Opposite-Spin Scale   =       1.2000000000000000 [-]
	 SCS Same-Spin Energy      =      -0.1381558179550064 [Eh]
	 SCS Opposite-Spin Energy  =      -1.5480964610690837 [Eh]
	 SCS Correlation Energy    =      -1.6862522790240901 [Eh]
	 SCS Total Energy          =    -416.6462741079961916 [Eh]
	-----------------------------------------------------------

  Dipole Moment: [D]
     X:    -0.0008      Y:    -0.0169      Z:     1.5588     Total:     1.5589

*** Psi4 exiting successfully. Buy a developer a beer!
