                               Psi4 1.4a3.dev225

  ==> Input File <==

--------------------------------------------------------------------------
#psi4
#
memory 32 gb

molecule  {
0 1
  O       -2.0737200     1.2628680    -0.4915300
  O        2.0737210    -1.2628680    -0.4915300
  N       -2.9762380    -0.6534170     0.3462040
  N        2.9762380     0.6534180     0.3462030
  C       -0.5555480    -0.5175680     0.1381390
  C        0.5555480     0.5175670     0.1381410
  C       -1.9056590     0.0340360    -0.0083326
  C        1.9182850    -0.1263550    -0.0446340
  H       -0.3806750    -1.2252780    -0.6804370
  H       -0.5383610    -1.1077740     1.0609210
  H        0.3806750     1.2252800    -0.6804340
  H        0.5383600     1.1077700     1.0609240
  H       -2.8543230    -1.6451260     0.4957240
  H       -3.8970040    -0.3356840     0.0715640
  H        2.8543220     1.6451260     0.4957230
  H        3.8970030     0.3356850     0.0715640
units angstrom
no_reorient  #important for SAPT in psi4, default
symmetry c1  #important for SAPT in psi4, default
}

set PROPERTIES_ORIGIN ["COM"]
properties('MP2/aug-cc-pvtz', properties = ['dipole'])
--------------------------------------------------------------------------

    Molecular point group: c1
  Charge       = 0
  Multiplicity = 1
  Basis Set: AUG-CC-PVTZ
    Blend: AUG-CC-PVTZ
  Basis Set: (AUG-CC-PVTZ AUX)
    Blend: AUG-CC-PVTZ-JKFIT

    Orbital Energies [Eh]
    ---------------------

    Doubly Occupied:

       1A    -20.527906     2A    -20.507640     3A    -15.605691
       4A    -15.591116     5A    -11.362826     6A    -11.361211
       7A    -11.251173     8A    -11.249111     9A     -1.381256
      10A     -1.333908    11A     -1.219477    12A     -1.214844
      13A     -1.082620    14A     -0.951268    15A     -0.817851
      16A     -0.782061    17A     -0.735142    18A     -0.723880
      19A     -0.688454    20A     -0.671164    21A     -0.635221
      22A     -0.597288    23A     -0.577565    24A     -0.559342
      25A     -0.546614    26A     -0.515090    27A     -0.498507
      28A     -0.435775    29A     -0.423914    30A     -0.417886
      31A     -0.405307

  @DF-RHF Final Energy:  -414.93781338082408

   => Energetics <=

    Nuclear Repulsion Energy =            365.5383757442776300
    One-Electron Energy =               -1291.6101655910431418
    Two-Electron Energy =                 511.1339764659414868
    Total Energy =                       -414.9378133808240818
  Basis Set: (AUG-CC-PVTZ AUX)
    Blend: AUG-CC-PVTZ-RI
    Molecular point group: c1

    Geometry (in Angstrom), charge = 0, multiplicity = 1:

       Center              X                  Y                   Z               Mass
    ------------   -----------------  -----------------  -----------------  -----------------
         O           -2.075025590459     1.272413412571    -0.479139776006    15.994914619570
         O            2.072415409541    -1.253322587429    -0.479139776006    15.994914619570
         N           -2.977543590459    -0.643871587429     0.358594223994    14.003074004430
         N            2.974932409541     0.662963412571     0.358593223994    14.003074004430
         C           -0.556853590459    -0.508022587429     0.150529223994    12.000000000000
         C            0.554242409541     0.527112412571     0.150531223994    12.000000000000
         C           -1.906964590459     0.043581412571     0.004057623994    12.000000000000
         C            1.916979409541    -0.116809587429    -0.032243776006    12.000000000000
         H           -0.381980590459    -1.215732587429    -0.668046776006     1.007825032230
         H           -0.539666590459    -1.098228587429     1.073311223994     1.007825032230
         H            0.379369409541     1.234825412571    -0.668043776006     1.007825032230
         H            0.537054409541     1.117315412571     1.073314223994     1.007825032230
         H           -2.855628590459    -1.635580587429     0.508114223994     1.007825032230
         H           -3.898309590459    -0.326138587429     0.083954223994     1.007825032230
         H            2.853016409541     1.654671412571     0.508113223994     1.007825032230
         H            3.895697409541     0.345230412571     0.083954223994     1.007825032230

  Basis Set: AUG-CC-PVTZ
    Blend: AUG-CC-PVTZ
  Basis Set: (AUG-CC-PVTZ AUX)
    Blend: AUG-CC-PVTZ-JKFIT
	 Reference Energy          =    -414.9378133808240818 [Eh]
	 Singles Energy            =      -0.0000000000000000 [Eh]
	 Same-Spin Energy          =      -0.4168392334103520 [Eh]
	 Opposite-Spin Energy      =      -1.2945046024232822 [Eh]
	 Correlation Energy        =      -1.7113438358336341 [Eh]
	 Total Energy              =    -416.6491572166577271 [Eh]

	 ================> DF-SCS-MP2 Energies <==================
	-----------------------------------------------------------
	 SCS Same-Spin Scale       =       0.3333333333333333 [-]
	 SCS Opposite-Spin Scale   =       1.2000000000000000 [-]
	 SCS Same-Spin Energy      =      -0.1389464111367840 [Eh]
	 SCS Opposite-Spin Energy  =      -1.5534055229079387 [Eh]
	 SCS Correlation Energy    =      -1.6923519340447226 [Eh]
	 SCS Total Energy          =    -416.6301653148688047 [Eh]
	-----------------------------------------------------------

  Dipole Moment: [D]
     X:    -0.0773      Y:    -0.5942      Z:     1.8188     Total:     1.9150

*** Psi4 exiting successfully. Buy a developer a beer!
