                               Psi4 1.4a3.dev225

  ==> Input File <==

--------------------------------------------------------------------------
#psi4
#
memory 32 gb

molecule  {
0 1
  O       -2.0737200     1.2628680    -0.4915300
  O        2.0737210    -1.2628680    -0.4915300
  N       -2.9762380    -0.6534170     0.3462040
  N        2.9762380     0.6534180     0.3462030
  C       -0.5555480    -0.5175680     0.1381390
  C        0.5555480     0.5175670     0.1381410
  C       -1.9119720     0.0801955    -0.0264833
  C        1.9182850    -0.1263550    -0.0446340
  H       -0.3806750    -1.2252780    -0.6804370
  H       -0.5383610    -1.1077740     1.0609210
  H        0.3806750     1.2252800    -0.6804340
  H        0.5383600     1.1077700     1.0609240
  H       -2.8543230    -1.6451260     0.4957240
  H       -3.8970040    -0.3356840     0.0715640
  H        2.8543220     1.6451260     0.4957230
  H        3.8970030     0.3356850     0.0715640
units angstrom
no_reorient  #important for SAPT in psi4, default
symmetry c1  #important for SAPT in psi4, default
}

set PROPERTIES_ORIGIN ["COM"]
properties('MP2/aug-cc-pvtz', properties = ['dipole'])
--------------------------------------------------------------------------

    Molecular point group: c1
  Charge       = 0
  Multiplicity = 1
  Basis Set: AUG-CC-PVTZ
    Blend: AUG-CC-PVTZ
  Basis Set: (AUG-CC-PVTZ AUX)
    Blend: AUG-CC-PVTZ-JKFIT

    Orbital Energies [Eh]
    ---------------------

    Doubly Occupied:

       1A    -20.527403     2A    -20.517268     3A    -15.598049
       4A    -15.590728     5A    -11.361621     6A    -11.360591
       7A    -11.249366     8A    -11.248118     9A     -1.380719
      10A     -1.352255    11A     -1.219851    12A     -1.214463
      13A     -1.079076    14A     -0.944576    15A     -0.812036
      16A     -0.779053    17A     -0.729282    18A     -0.723849
      19A     -0.684572    20A     -0.670409    21A     -0.635264
      22A     -0.602038    23A     -0.579077    24A     -0.557913
      25A     -0.552969    26A     -0.518447    27A     -0.498427
      28A     -0.434842    29A     -0.428243    30A     -0.421302
      31A     -0.414337

  @DF-RHF Final Energy:  -414.95204029855336

   => Energetics <=

    Nuclear Repulsion Energy =            365.6467145402643268
    One-Electron Energy =               -1291.8252198406389653
    Two-Electron Energy =                 511.2264650018212251
    Total Energy =                       -414.9520402985533565
  Basis Set: (AUG-CC-PVTZ AUX)
    Blend: AUG-CC-PVTZ-RI
    Molecular point group: c1

    Geometry (in Angstrom), charge = 0, multiplicity = 1:

       Center              X                  Y                   Z               Mass
    ------------   -----------------  -----------------  -----------------  -----------------
         O           -2.074372851112     1.267640701998    -0.477263065084    15.994914619570
         O            2.073068148888    -1.258095298002    -0.477263065084    15.994914619570
         N           -2.976890851112    -0.648644298002     0.360470934916    14.003074004430
         N            2.975585148888     0.658190701998     0.360469934916    14.003074004430
         C           -0.556200851112    -0.512795298002     0.152405934916    12.000000000000
         C            0.554895148888     0.522339701998     0.152407934916    12.000000000000
         C           -1.912624851112     0.084968201998    -0.012216365084    12.000000000000
         C            1.917632148888    -0.121582298002    -0.030367065084    12.000000000000
         H           -0.381327851112    -1.220505298002    -0.666170065084     1.007825032230
         H           -0.539013851112    -1.103001298002     1.075187934916     1.007825032230
         H            0.380022148888     1.230052701998    -0.666167065084     1.007825032230
         H            0.537707148888     1.112542701998     1.075190934916     1.007825032230
         H           -2.854975851112    -1.640353298002     0.509990934916     1.007825032230
         H           -3.897656851112    -0.330911298002     0.085830934916     1.007825032230
         H            2.853669148888     1.649898701998     0.509989934916     1.007825032230
         H            3.896350148888     0.340457701998     0.085830934916     1.007825032230

  Basis Set: AUG-CC-PVTZ
    Blend: AUG-CC-PVTZ
  Basis Set: (AUG-CC-PVTZ AUX)
    Blend: AUG-CC-PVTZ-JKFIT
	 Reference Energy          =    -414.9520402985533565 [Eh]
	 Singles Energy            =      -0.0000000000000000 [Eh]
	 Same-Spin Energy          =      -0.4156964264318928 [Eh]
	 Opposite-Spin Energy      =      -1.2924255463521481 [Eh]
	 Correlation Energy        =      -1.7081219727840409 [Eh]
	 Total Energy              =    -416.6601622713374127 [Eh]

	 ================> DF-SCS-MP2 Energies <==================
	-----------------------------------------------------------
	 SCS Same-Spin Scale       =       0.3333333333333333 [-]
	 SCS Opposite-Spin Scale   =       1.2000000000000000 [-]
	 SCS Same-Spin Energy      =      -0.1385654754772976 [Eh]
	 SCS Opposite-Spin Energy  =      -1.5509106556225778 [Eh]
	 SCS Correlation Energy    =      -1.6894761310998754 [Eh]
	 SCS Total Energy          =    -416.6415164296532225 [Eh]
	-----------------------------------------------------------

  Dipole Moment: [D]
     X:    -0.0402      Y:    -0.3066      Z:     1.6944     Total:     1.7224

*** Psi4 exiting successfully. Buy a developer a beer!
