                               Psi4 1.4a3.dev225

  ==> Input File <==

--------------------------------------------------------------------------
#psi4
#
memory 32 gb

molecule  {
0 1
  O       -2.1161482     1.2581995    -0.4865799
  O        2.0737210    -1.2628680    -0.4915300
  N       -2.9762380    -0.6534170     0.3462040
  N        2.9762380     0.6534180     0.3462030
  C       -0.5555480    -0.5175680     0.1381390
  C        0.5555480     0.5175670     0.1381410
  C       -1.9182850     0.1263550    -0.0446340
  C        1.9182850    -0.1263550    -0.0446340
  H       -0.3806750    -1.2252780    -0.6804370
  H       -0.5383610    -1.1077740     1.0609210
  H        0.3806750     1.2252800    -0.6804340
  H        0.5383600     1.1077700     1.0609240
  H       -2.8543230    -1.6451260     0.4957240
  H       -3.8970040    -0.3356840     0.0715640
  H        2.8543220     1.6451260     0.4957230
  H        3.8970030     0.3356850     0.0715640
units angstrom
no_reorient  #important for SAPT in psi4, default
symmetry c1  #important for SAPT in psi4, default
}

set PROPERTIES_ORIGIN ["COM"]
properties('MP2/aug-cc-pvtz', properties = ['dipole'])
--------------------------------------------------------------------------

    Molecular point group: c1
  Charge       = 0
  Multiplicity = 1
  Basis Set: AUG-CC-PVTZ
    Blend: AUG-CC-PVTZ
  Basis Set: (AUG-CC-PVTZ AUX)
    Blend: AUG-CC-PVTZ-JKFIT

    Orbital Energies [Eh]
    ---------------------

    Doubly Occupied:

       1A    -20.527868     2A    -20.526172     3A    -15.591146
       4A    -15.587765     5A    -11.360979     6A    -11.359590
       7A    -11.249464     8A    -11.248640     9A     -1.381719
      10A     -1.379522    11A     -1.214903    12A     -1.211071
      13A     -1.077375    14A     -0.938948    15A     -0.806521
      16A     -0.776044    17A     -0.724906    18A     -0.722932
      19A     -0.680754    20A     -0.671253    21A     -0.637865
      22A     -0.609508    23A     -0.582603    24A     -0.564531
      25A     -0.552222    26A     -0.521503    27A     -0.500386
      28A     -0.434466    29A     -0.433611    30A     -0.422431
      31A     -0.418578

  @DF-RHF Final Energy:  -414.95939812012199

   => Energetics <=

    Nuclear Repulsion Energy =            365.5309703767711653
    One-Electron Energy =               -1291.5501840335161887
    Two-Electron Energy =                 511.0598155366230344
    Total Energy =                       -414.9593981201219890
  Basis Set: (AUG-CC-PVTZ AUX)
    Blend: AUG-CC-PVTZ-RI
    Molecular point group: c1

    Geometry (in Angstrom), charge = 0, multiplicity = 1:

       Center              X                  Y                   Z               Mass
    ------------   -----------------  -----------------  -----------------  -----------------
         O           -2.110300959067     1.258842892891    -0.471118465064    15.994914619570
         O            2.079568240933    -1.262224607109    -0.476068565064    15.994914619570
         N           -2.970390759067    -0.652773607109     0.361665434936    14.003074004430
         N            2.982085240933     0.654061392891     0.361664434936    14.003074004430
         C           -0.549700759067    -0.516924607109     0.153600434936    12.000000000000
         C            0.561395240933     0.518210392891     0.153602434936    12.000000000000
         C           -1.912437759067     0.126998392891    -0.029172565064    12.000000000000
         C            1.924132240933    -0.125711607109    -0.029172565064    12.000000000000
         H           -0.374827759067    -1.224634607109    -0.664975565064     1.007825032230
         H           -0.532513759067    -1.107130607109     1.076382434936     1.007825032230
         H            0.386522240933     1.225923392891    -0.664972565064     1.007825032230
         H            0.544207240933     1.108413392891     1.076385434936     1.007825032230
         H           -2.848475759067    -1.644482607109     0.511185434936     1.007825032230
         H           -3.891156759067    -0.335040607109     0.087025434936     1.007825032230
         H            2.860169240933     1.645769392891     0.511184434936     1.007825032230
         H            3.902850240933     0.336328392891     0.087025434936     1.007825032230

  Basis Set: AUG-CC-PVTZ
    Blend: AUG-CC-PVTZ
  Basis Set: (AUG-CC-PVTZ AUX)
    Blend: AUG-CC-PVTZ-JKFIT
	 Reference Energy          =    -414.9593981201219890 [Eh]
	 Singles Energy            =      -0.0000000000000000 [Eh]
	 Same-Spin Energy          =      -0.4145500876180517 [Eh]
	 Opposite-Spin Energy      =      -1.2903820350642285 [Eh]
	 Correlation Energy        =      -1.7049321226822802 [Eh]
	 Total Energy              =    -416.6643302428042830 [Eh]

	 ================> DF-SCS-MP2 Energies <==================
	-----------------------------------------------------------
	 SCS Same-Spin Scale       =       0.3333333333333333 [-]
	 SCS Opposite-Spin Scale   =       1.2000000000000000 [-]
	 SCS Same-Spin Energy      =      -0.1381833625393506 [Eh]
	 SCS Opposite-Spin Energy  =      -1.5484584420770742 [Eh]
	 SCS Correlation Energy    =      -1.6866418046164247 [Eh]
	 SCS Total Energy          =    -416.6460399247384316 [Eh]
	-----------------------------------------------------------

  Dipole Moment: [D]
     X:     0.1510      Y:     0.0037      Z:     1.5556     Total:     1.5629

*** Psi4 exiting successfully. Buy a developer a beer!
