                               Psi4 1.4a3.dev225

  ==> Input File <==

--------------------------------------------------------------------------
#psi4
#
memory 32 gb

molecule  {
0 1
  O       -2.0737200     1.2628680    -0.4915300
  O        2.0737210    -1.2628680    -0.4915300
  N       -2.9762380    -0.6534170     0.3462040
  N        2.9762380     0.6534180     0.3462030
  C       -0.5555480    -0.5175680     0.1381390
  C        0.5555480     0.5175670     0.1381410
  C       -1.9182850     0.1263550    -0.0446340
  C        1.9182850    -0.1263550    -0.0446340
  H       -0.3806750    -1.2252780    -0.6804370
  H       -0.5383610    -1.1077740     1.0609210
  H        0.3806750     1.2252800    -0.6804340
  H        0.5386738     1.0969952     1.0440775
  H       -2.8543230    -1.6451260     0.4957240
  H       -3.8970040    -0.3356840     0.0715640
  H        2.8543220     1.6451260     0.4957230
  H        3.8970030     0.3356850     0.0715640
units angstrom
no_reorient  #important for SAPT in psi4, default
symmetry c1  #important for SAPT in psi4, default
}

set PROPERTIES_ORIGIN ["COM"]
properties('MP2/aug-cc-pvtz', properties = ['dipole'])
--------------------------------------------------------------------------

    Molecular point group: c1
  Charge       = 0
  Multiplicity = 1
  Basis Set: AUG-CC-PVTZ
    Blend: AUG-CC-PVTZ
  Basis Set: (AUG-CC-PVTZ AUX)
    Blend: AUG-CC-PVTZ-JKFIT

    Orbital Energies [Eh]
    ---------------------

    Doubly Occupied:

       1A    -20.526843     2A    -20.526709     3A    -15.590373
       4A    -15.590274     5A    -11.359880     6A    -11.359749
       7A    -11.247109     8A    -11.244819     9A     -1.381056
      10A     -1.378951    11A     -1.214100    12A     -1.213994
      13A     -1.076349    14A     -0.938513    15A     -0.806798
      16A     -0.776413    17A     -0.724473    18A     -0.723820
      19A     -0.681044    20A     -0.671844    21A     -0.637750
      22A     -0.609484    23A     -0.582609    24A     -0.563905
      25A     -0.551658    26A     -0.520234    27A     -0.500210
      28A     -0.433533    29A     -0.433333    30A     -0.422539
      31A     -0.419506

  @DF-RHF Final Energy:  -414.95972884725563

   => Energetics <=

    Nuclear Repulsion Energy =            365.9022906018550430
    One-Electron Energy =               -1292.3082946688361972
    Two-Electron Energy =                 511.4462752197255213
    Total Energy =                       -414.9597288472556329
  Basis Set: (AUG-CC-PVTZ AUX)
    Blend: AUG-CC-PVTZ-RI
    Molecular point group: c1

    Geometry (in Angstrom), charge = 0, multiplicity = 1:

       Center              X                  Y                   Z               Mass
    ------------   -----------------  -----------------  -----------------  -----------------
         O           -2.073722836731     1.262961557220    -0.475240063170    15.994914619570
         O            2.073718163269    -1.262774442780    -0.475240063170    15.994914619570
         N           -2.976240836731    -0.653323442780     0.362493936830    14.003074004430
         N            2.976235163269     0.653511557220     0.362492936830    14.003074004430
         C           -0.555550836731    -0.517474442780     0.154428936830    12.000000000000
         C            0.555545163269     0.517660557220     0.154430936830    12.000000000000
         C           -1.918287836731     0.126448557220    -0.028344063170    12.000000000000
         C            1.918282163269    -0.126261442780    -0.028344063170    12.000000000000
         H           -0.380677836731    -1.225184442780    -0.664147063170     1.007825032230
         H           -0.538363836731    -1.107680442780     1.077210936830     1.007825032230
         H            0.380672163269     1.225373557220    -0.664144063170     1.007825032230
         H            0.538670963269     1.097088757220     1.060367436830     1.007825032230
         H           -2.854325836731    -1.645032442780     0.512013936830     1.007825032230
         H           -3.897006836731    -0.335590442780     0.087853936830     1.007825032230
         H            2.854319163269     1.645219557220     0.512012936830     1.007825032230
         H            3.897000163269     0.335778557220     0.087853936830     1.007825032230

  Basis Set: AUG-CC-PVTZ
    Blend: AUG-CC-PVTZ
  Basis Set: (AUG-CC-PVTZ AUX)
    Blend: AUG-CC-PVTZ-JKFIT
	 Reference Energy          =    -414.9597288472556329 [Eh]
	 Singles Energy            =      -0.0000000000000000 [Eh]
	 Same-Spin Energy          =      -0.4145779882988958 [Eh]
	 Opposite-Spin Energy      =      -1.2902743260485845 [Eh]
	 Correlation Energy        =      -1.7048523143474803 [Eh]
	 Total Energy              =    -416.6645811616031096 [Eh]

	 ================> DF-SCS-MP2 Energies <==================
	-----------------------------------------------------------
	 SCS Same-Spin Scale       =       0.3333333333333333 [-]
	 SCS Opposite-Spin Scale   =       1.2000000000000000 [-]
	 SCS Same-Spin Energy      =      -0.1381926627662986 [Eh]
	 SCS Opposite-Spin Energy  =      -1.5483291912583013 [Eh]
	 SCS Correlation Energy    =      -1.6865218540245999 [Eh]
	 SCS Total Energy          =    -416.6462507012802234 [Eh]
	-----------------------------------------------------------

  Dipole Moment: [D]
     X:     0.0019      Y:     0.0066      Z:     1.5668     Total:     1.5669

*** Psi4 exiting successfully. Buy a developer a beer!
