                               Psi4 1.4a3.dev225

  ==> Input File <==

--------------------------------------------------------------------------
#psi4
#
memory 32 gb

molecule  {
0 1
  O       -2.0737200     1.2628680    -0.4915300
  O        2.0737210    -1.2628680    -0.4915300
  N       -2.9762380    -0.6534170     0.3462040
  N        2.9762380     0.6534180     0.3462030
  C       -0.5555480    -0.5175680     0.1381390
  C        0.5555480     0.5175670     0.1381410
  C       -1.9309110     0.2186740    -0.0809354
  C        1.9182850    -0.1263550    -0.0446340
  H       -0.3806750    -1.2252780    -0.6804370
  H       -0.5383610    -1.1077740     1.0609210
  H        0.3806750     1.2252800    -0.6804340
  H        0.5383600     1.1077700     1.0609240
  H       -2.8543230    -1.6451260     0.4957240
  H       -3.8970040    -0.3356840     0.0715640
  H        2.8543220     1.6451260     0.4957230
  H        3.8970030     0.3356850     0.0715640
units angstrom
no_reorient  #important for SAPT in psi4, default
symmetry c1  #important for SAPT in psi4, default
}

set PROPERTIES_ORIGIN ["COM"]
properties('MP2/aug-cc-pvtz', properties = ['dipole'])
--------------------------------------------------------------------------

    Molecular point group: c1
  Charge       = 0
  Multiplicity = 1
  Basis Set: AUG-CC-PVTZ
    Blend: AUG-CC-PVTZ
  Basis Set: (AUG-CC-PVTZ AUX)
    Blend: AUG-CC-PVTZ-JKFIT

    Orbital Energies [Eh]
    ---------------------

    Doubly Occupied:

       1A    -20.546090     2A    -20.525634     3A    -15.589387
       4A    -15.574420     5A    -11.358414     6A    -11.355477
       7A    -11.245366     8A    -11.242318     9A     -1.454679
      10A     -1.378728    11A     -1.213069    12A     -1.193114
      13A     -1.069102    14A     -0.924261    15A     -0.798023
      16A     -0.769558    17A     -0.724964    18A     -0.716098
      19A     -0.681358    20A     -0.671757    21A     -0.650668
      22A     -0.623063    23A     -0.595488    24A     -0.575282
      25A     -0.552129    26A     -0.522393    27A     -0.501119
      28A     -0.435346    29A     -0.430705    30A     -0.420888
      31A     -0.418786

  @DF-RHF Final Energy:  -414.94805712073617

   => Energetics <=

    Nuclear Repulsion Energy =            366.3037403671509082
    One-Electron Energy =               -1292.9882318953000322
    Two-Electron Energy =                 511.7364344074129576
    Total Energy =                       -414.9480571207361663
  Basis Set: (AUG-CC-PVTZ AUX)
    Blend: AUG-CC-PVTZ-RI
    Molecular point group: c1

    Geometry (in Angstrom), charge = 0, multiplicity = 1:

       Center              X                  Y                   Z               Mass
    ------------   -----------------  -----------------  -----------------  -----------------
         O           -2.072414633074     1.253322570278    -0.471632932318    15.994914619570
         O            2.075026366926    -1.272413429722    -0.471632932318    15.994914619570
         N           -2.974932633074    -0.662962429722     0.366101067682    14.003074004430
         N            2.977543366926     0.643872570278     0.366100067682    14.003074004430
         C           -0.554242633074    -0.527113429722     0.158036067682    12.000000000000
         C            0.556853366926     0.508021570278     0.158038067682    12.000000000000
         C           -1.929605633074     0.209128570278    -0.061038332318    12.000000000000
         C            1.919590366926    -0.135900429722    -0.024736932318    12.000000000000
         H           -0.379369633074    -1.234823429722    -0.660539932318     1.007825032230
         H           -0.537055633074    -1.117319429722     1.080818067682     1.007825032230
         H            0.381980366926     1.215734570278    -0.660536932318     1.007825032230
         H            0.539665366926     1.098224570278     1.080821067682     1.007825032230
         H           -2.853017633074    -1.654671429722     0.515621067682     1.007825032230
         H           -3.895698633074    -0.345229429722     0.091461067682     1.007825032230
         H            2.855627366926     1.635580570278     0.515620067682     1.007825032230
         H            3.898308366926     0.326139570278     0.091461067682     1.007825032230

  Basis Set: AUG-CC-PVTZ
    Blend: AUG-CC-PVTZ
  Basis Set: (AUG-CC-PVTZ AUX)
    Blend: AUG-CC-PVTZ-JKFIT
	 Reference Energy          =    -414.9480571207361663 [Eh]
	 Singles Energy            =      -0.0000000000000000 [Eh]
	 Same-Spin Energy          =      -0.4126370721421306 [Eh]
	 Opposite-Spin Energy      =      -1.2867998105845335 [Eh]
	 Correlation Energy        =      -1.6994368827266642 [Eh]
	 Total Energy              =    -416.6474940034628389 [Eh]

	 ================> DF-SCS-MP2 Energies <==================
	-----------------------------------------------------------
	 SCS Same-Spin Scale       =       0.3333333333333333 [-]
	 SCS Opposite-Spin Scale   =       1.2000000000000000 [-]
	 SCS Same-Spin Energy      =      -0.1375456907140435 [Eh]
	 SCS Opposite-Spin Energy  =      -1.5441597727014402 [Eh]
	 SCS Correlation Energy    =      -1.6817054634154838 [Eh]
	 SCS Total Energy          =    -416.6297625841516492 [Eh]
	-----------------------------------------------------------

  Dipole Moment: [D]
     X:     0.0834      Y:     0.6894      Z:     1.2656     Total:     1.4436

*** Psi4 exiting successfully. Buy a developer a beer!
