                               Psi4 1.4a3.dev225

  ==> Input File <==

--------------------------------------------------------------------------
#psi4
#
memory 32 gb

molecule  {
0 1
  O       -2.0737200     1.2628680    -0.4915300
  O        2.0737210    -1.2628680    -0.4915300
  N       -2.9762380    -0.6534170     0.3462040
  N        2.9762380     0.6534180     0.3462030
  C       -0.5555480    -0.5175680     0.1381390
  C        0.5555480     0.5175670     0.1381410
  C       -1.9182850     0.1263550    -0.0446340
  C        1.9182850    -0.1263550    -0.0446340
  H       -0.3806750    -1.2252780    -0.6804370
  H       -0.5383610    -1.1077740     1.0609210
  H        0.3763119     1.2807751    -0.6279472
  H        0.5383600     1.1077700     1.0609240
  H       -2.8543230    -1.6451260     0.4957240
  H       -3.8970040    -0.3356840     0.0715640
  H        2.8543220     1.6451260     0.4957230
  H        3.8970030     0.3356850     0.0715640
units angstrom
no_reorient  #important for SAPT in psi4, default
symmetry c1  #important for SAPT in psi4, default
}

set PROPERTIES_ORIGIN ["COM"]
properties('MP2/aug-cc-pvtz', properties = ['dipole'])
--------------------------------------------------------------------------

    Molecular point group: c1
  Charge       = 0
  Multiplicity = 1
  Basis Set: AUG-CC-PVTZ
    Blend: AUG-CC-PVTZ
  Basis Set: (AUG-CC-PVTZ AUX)
    Blend: AUG-CC-PVTZ-JKFIT

    Orbital Energies [Eh]
    ---------------------

    Doubly Occupied:

       1A    -20.527221     2A    -20.526919     3A    -15.590372
       4A    -15.590196     5A    -11.360386     6A    -11.360019
       7A    -11.247673     8A    -11.246810     9A     -1.381245
      10A     -1.379160    11A     -1.214102    12A     -1.214013
      13A     -1.075170    14A     -0.937997    15A     -0.806834
      16A     -0.776702    17A     -0.725354    18A     -0.723821
      19A     -0.681256    20A     -0.668896    21A     -0.636945
      22A     -0.609832    23A     -0.581523    24A     -0.564479
      25A     -0.550447    26A     -0.522885    27A     -0.495866
      28A     -0.434276    29A     -0.433498    30A     -0.422630
      31A     -0.419590

  @DF-RHF Final Energy:  -414.95895125505990

   => Energetics <=

    Nuclear Repulsion Energy =            365.7544112548604289
    One-Electron Energy =               -1292.0144918852502087
    Two-Electron Energy =                 511.3011293753298787
    Total Energy =                       -414.9589512550599011
  Basis Set: (AUG-CC-PVTZ AUX)
    Blend: AUG-CC-PVTZ-RI
    Molecular point group: c1

    Geometry (in Angstrom), charge = 0, multiplicity = 1:

       Center              X                  Y                   Z               Mass
    ------------   -----------------  -----------------  -----------------  -----------------
         O           -2.073682223646     1.262386085200    -0.475842137027    15.994914619570
         O            2.073758776354    -1.263349914800    -0.475842137027    15.994914619570
         N           -2.976200223646    -0.653898914800     0.361891862973    14.003074004430
         N            2.976275776354     0.652936085200     0.361890862973    14.003074004430
         C           -0.555510223646    -0.518049914800     0.153826862973    12.000000000000
         C            0.555585776354     0.517085085200     0.153828862973    12.000000000000
         C           -1.918247223646     0.125873085200    -0.028946137027    12.000000000000
         C            1.918322776354    -0.126836914800    -0.028946137027    12.000000000000
         H           -0.380637223646    -1.225759914800    -0.664749137027     1.007825032230
         H           -0.538323223646    -1.108255914800     1.076608862973     1.007825032230
         H            0.376349676354     1.280293185200    -0.612259337027     1.007825032230
         H            0.538397776354     1.107288085200     1.076611862973     1.007825032230
         H           -2.854285223646    -1.645607914800     0.511411862973     1.007825032230
         H           -3.896966223646    -0.336165914800     0.087251862973     1.007825032230
         H            2.854359776354     1.644644085200     0.511410862973     1.007825032230
         H            3.897040776354     0.335203085200     0.087251862973     1.007825032230

  Basis Set: AUG-CC-PVTZ
    Blend: AUG-CC-PVTZ
  Basis Set: (AUG-CC-PVTZ AUX)
    Blend: AUG-CC-PVTZ-JKFIT
	 Reference Energy          =    -414.9589512550599011 [Eh]
	 Singles Energy            =      -0.0000000000000000 [Eh]
	 Same-Spin Energy          =      -0.4146297095242020 [Eh]
	 Opposite-Spin Energy      =      -1.2904321810585686 [Eh]
	 Correlation Energy        =      -1.7050618905827706 [Eh]
	 Total Energy              =    -416.6640131456426843 [Eh]

	 ================> DF-SCS-MP2 Energies <==================
	-----------------------------------------------------------
	 SCS Same-Spin Scale       =       0.3333333333333333 [-]
	 SCS Opposite-Spin Scale   =       1.2000000000000000 [-]
	 SCS Same-Spin Energy      =      -0.1382099031747340 [Eh]
	 SCS Opposite-Spin Energy  =      -1.5485186172702823 [Eh]
	 SCS Correlation Energy    =      -1.6867285204450162 [Eh]
	 SCS Total Energy          =    -416.6456797755049024 [Eh]
	-----------------------------------------------------------

  Dipole Moment: [D]
     X:    -0.0090      Y:     0.0185      Z:     1.5748     Total:     1.5749

*** Psi4 exiting successfully. Buy a developer a beer!
