                               Psi4 1.4a3.dev225

  ==> Input File <==

--------------------------------------------------------------------------
#psi4
#
memory 32 gb

molecule  {
0 1
  O       -1.9883474     1.2680471    -0.4997915
  O        2.0737210    -1.2628680    -0.4915300
  N       -2.9762380    -0.6534170     0.3462040
  N        2.9762380     0.6534180     0.3462030
  C       -0.5555480    -0.5175680     0.1381390
  C        0.5555480     0.5175670     0.1381410
  C       -1.9182850     0.1263550    -0.0446340
  C        1.9182850    -0.1263550    -0.0446340
  H       -0.3806750    -1.2252780    -0.6804370
  H       -0.5383610    -1.1077740     1.0609210
  H        0.3806750     1.2252800    -0.6804340
  H        0.5383600     1.1077700     1.0609240
  H       -2.8543230    -1.6451260     0.4957240
  H       -3.8970040    -0.3356840     0.0715640
  H        2.8543220     1.6451260     0.4957230
  H        3.8970030     0.3356850     0.0715640
units angstrom
no_reorient  #important for SAPT in psi4, default
symmetry c1  #important for SAPT in psi4, default
}

set PROPERTIES_ORIGIN ["COM"]
properties('MP2/aug-cc-pvtz', properties = ['dipole'])
--------------------------------------------------------------------------

    Molecular point group: c1
  Charge       = 0
  Multiplicity = 1
  Basis Set: AUG-CC-PVTZ
    Blend: AUG-CC-PVTZ
  Basis Set: (AUG-CC-PVTZ AUX)
    Blend: AUG-CC-PVTZ-JKFIT

    Orbital Energies [Eh]
    ---------------------

    Doubly Occupied:

       1A    -20.528029     2A    -20.524777     3A    -15.595280
       4A    -15.588595     5A    -11.360673     6A    -11.357720
       7A    -11.244125     8A    -11.242981     9A     -1.380737
      10A     -1.377575    11A     -1.219655    12A     -1.212245
      13A     -1.071959    14A     -0.935411    15A     -0.807473
      16A     -0.775357    17A     -0.725776    18A     -0.721827
      19A     -0.681618    20A     -0.668931    21A     -0.637727
      22A     -0.609635    23A     -0.581120    24A     -0.561846
      25A     -0.549034    26A     -0.517691    27A     -0.496631
      28A     -0.432862    29A     -0.431809    30A     -0.424614
      31A     -0.418419

  @DF-RHF Final Energy:  -414.95794838119758

   => Energetics <=

    Nuclear Repulsion Energy =            366.4226423504995296
    One-Electron Energy =               -1293.3969116146336091
    Two-Electron Energy =                 512.0163208829366113
    Total Energy =                       -414.9579483811975251
  Basis Set: (AUG-CC-PVTZ AUX)
    Blend: AUG-CC-PVTZ-RI
    Molecular point group: c1

    Geometry (in Angstrom), charge = 0, multiplicity = 1:

       Center              X                  Y                   Z               Mass
    ------------   -----------------  -----------------  -----------------  -----------------
         O           -2.000113358610     1.267333320292    -0.482509274059    15.994914619570
         O            2.061955041390    -1.263581779708    -0.474247774059    15.994914619570
         N           -2.988003958610    -0.654130779708     0.363486225941    14.003074004430
         N            2.964472041390     0.652704220292     0.363485225941    14.003074004430
         C           -0.567313958610    -0.518281779708     0.155421225941    12.000000000000
         C            0.543782041390     0.516853220292     0.155423225941    12.000000000000
         C           -1.930050958610     0.125641220292    -0.027351774059    12.000000000000
         C            1.906519041390    -0.127068779708    -0.027351774059    12.000000000000
         H           -0.392440958610    -1.225991779708    -0.663154774059     1.007825032230
         H           -0.550126958610    -1.108487779708     1.078203225941     1.007825032230
         H            0.368909041390     1.224566220292    -0.663151774059     1.007825032230
         H            0.526594041390     1.107056220292     1.078206225941     1.007825032230
         H           -2.866088958610    -1.645839779708     0.513006225941     1.007825032230
         H           -3.908769958610    -0.336397779708     0.088846225941     1.007825032230
         H            2.842556041390     1.644412220292     0.513005225941     1.007825032230
         H            3.885237041390     0.334971220292     0.088846225941     1.007825032230

  Basis Set: AUG-CC-PVTZ
    Blend: AUG-CC-PVTZ
  Basis Set: (AUG-CC-PVTZ AUX)
    Blend: AUG-CC-PVTZ-JKFIT
	 Reference Energy          =    -414.9579483811975820 [Eh]
	 Singles Energy            =      -0.0000000000000000 [Eh]
	 Same-Spin Energy          =      -0.4147536932265786 [Eh]
	 Opposite-Spin Energy      =      -1.2906173273481896 [Eh]
	 Correlation Energy        =      -1.7053710205747681 [Eh]
	 Total Energy              =    -416.6633194017723554 [Eh]

	 ================> DF-SCS-MP2 Energies <==================
	-----------------------------------------------------------
	 SCS Same-Spin Scale       =       0.3333333333333333 [-]
	 SCS Opposite-Spin Scale   =       1.2000000000000000 [-]
	 SCS Same-Spin Energy      =      -0.1382512310755262 [Eh]
	 SCS Opposite-Spin Energy  =      -1.5487407928178274 [Eh]
	 SCS Correlation Energy    =      -1.6869920238933536 [Eh]
	 SCS Total Energy          =    -416.6449404050909493 [Eh]
	-----------------------------------------------------------

  Dipole Moment: [D]
     X:    -0.3047      Y:     0.0058      Z:     1.5689     Total:     1.5982

*** Psi4 exiting successfully. Buy a developer a beer!
