                               Psi4 1.4a3.dev225

  ==> Input File <==

--------------------------------------------------------------------------
#psi4
#
memory 32 gb

molecule  {
0 1
  O       -2.0737200     1.2628680    -0.4915300
  O        2.0737210    -1.2628680    -0.4915300
  N       -2.9762380    -0.6534170     0.3462040
  N        2.9762380     0.6534180     0.3462030
  C       -0.5555480    -0.5175680     0.1381390
  C        0.5555480     0.5175670     0.1381410
  C       -1.9182850     0.1263550    -0.0446340
  C        1.9182850    -0.1263550    -0.0446340
  H       -0.3806750    -1.2252780    -0.6804370
  H       -0.5383610    -1.1077740     1.0609210
  H        0.3806750     1.2252800    -0.6804340
  H        0.5383600     1.1077700     1.0609240
  H       -2.8784574    -1.4488063     0.4661249
  H       -3.8970040    -0.3356840     0.0715640
  H        2.8543220     1.6451260     0.4957230
  H        3.8970030     0.3356850     0.0715640
units angstrom
no_reorient  #important for SAPT in psi4, default
symmetry c1  #important for SAPT in psi4, default
}

set PROPERTIES_ORIGIN ["COM"]
properties('MP2/aug-cc-pvtz', properties = ['dipole'])
--------------------------------------------------------------------------

    Molecular point group: c1
  Charge       = 0
  Multiplicity = 1
  Basis Set: AUG-CC-PVTZ
    Blend: AUG-CC-PVTZ
  Basis Set: (AUG-CC-PVTZ AUX)
    Blend: AUG-CC-PVTZ-JKFIT

    Orbital Energies [Eh]
    ---------------------

    Doubly Occupied:

       1A    -20.527765     2A    -20.527249     3A    -15.590682
       4A    -15.569406     5A    -11.360906     6A    -11.360377
       7A    -11.248514     8A    -11.247844     9A     -1.383337
      10A     -1.380078    11A     -1.251656    12A     -1.214413
      13A     -1.077402    14A     -0.941585    15A     -0.831558
      16A     -0.789809    17A     -0.747493    18A     -0.724381
      19A     -0.683071    20A     -0.671713    21A     -0.639747
      22A     -0.613337    23A     -0.583533    24A     -0.565976
      25A     -0.552768    26A     -0.521347    27A     -0.500053
      28A     -0.435495    29A     -0.434076    30A     -0.425356
      31A     -0.420745

  @DF-RHF Final Energy:  -414.91355282407790

   => Energetics <=

    Nuclear Repulsion Energy =            367.0134269712410742
    One-Electron Energy =               -1294.2106149950027429
    Two-Electron Energy =                 512.2836351996837720
    Total Energy =                       -414.9135528240778967
  Basis Set: (AUG-CC-PVTZ AUX)
    Blend: AUG-CC-PVTZ-RI
    Molecular point group: c1

    Geometry (in Angstrom), charge = 0, multiplicity = 1:

       Center              X                  Y                   Z               Mass
    ------------   -----------------  -----------------  -----------------  -----------------
         O           -2.073510534388     1.261163197930    -0.475129322631    15.994914619570
         O            2.073930465612    -1.264572802070    -0.475129322631    15.994914619570
         N           -2.976028534388    -0.655121802070     0.362604677369    14.003074004430
         N            2.976447465612     0.651713197930     0.362603677369    14.003074004430
         C           -0.555338534388    -0.519272802070     0.154539677369    12.000000000000
         C            0.555757465612     0.515862197930     0.154541677369    12.000000000000
         C           -1.918075534388     0.124650197930    -0.028233322631    12.000000000000
         C            1.918494465612    -0.128059802070    -0.028233322631    12.000000000000
         H           -0.380465534388    -1.226982802070    -0.664036322631     1.007825032230
         H           -0.538151534388    -1.109478802070     1.077321677369     1.007825032230
         H            0.380884465612     1.223575197930    -0.664033322631     1.007825032230
         H            0.538569465612     1.106065197930     1.077324677369     1.007825032230
         H           -2.878247934388    -1.450511102070     0.482525577369     1.007825032230
         H           -3.896794534388    -0.337388802070     0.087964677369     1.007825032230
         H            2.854531465612     1.643421197930     0.512123677369     1.007825032230
         H            3.897212465612     0.333980197930     0.087964677369     1.007825032230

  Basis Set: AUG-CC-PVTZ
    Blend: AUG-CC-PVTZ
  Basis Set: (AUG-CC-PVTZ AUX)
    Blend: AUG-CC-PVTZ-JKFIT
	 Reference Energy          =    -414.9135528240778967 [Eh]
	 Singles Energy            =      -0.0000000000000000 [Eh]
	 Same-Spin Energy          =      -0.4135606505428402 [Eh]
	 Opposite-Spin Energy      =      -1.2879103205768603 [Eh]
	 Correlation Energy        =      -1.7014709711197005 [Eh]
	 Total Energy              =    -416.6150237951976010 [Eh]

	 ================> DF-SCS-MP2 Energies <==================
	-----------------------------------------------------------
	 SCS Same-Spin Scale       =       0.3333333333333333 [-]
	 SCS Opposite-Spin Scale   =       1.2000000000000000 [-]
	 SCS Same-Spin Energy      =      -0.1378535501809467 [Eh]
	 SCS Opposite-Spin Energy  =      -1.5454923846922324 [Eh]
	 SCS Correlation Energy    =      -1.6833459348731792 [Eh]
	 SCS Total Energy          =    -416.5968987589510562 [Eh]
	-----------------------------------------------------------

  Dipole Moment: [D]
     X:     0.0133      Y:     0.1699      Z:     1.5269     Total:     1.5364

*** Psi4 exiting successfully. Buy a developer a beer!
