                               Psi4 1.4a3.dev225

  ==> Input File <==

--------------------------------------------------------------------------
#psi4
#
memory 32 gb

molecule  {
0 1
  O       -2.0737200     1.2628680    -0.4915300
  O        2.0737210    -1.2628680    -0.4915300
  N       -2.9762380    -0.6534170     0.3462040
  N        2.9762380     0.6534180     0.3462030
  C       -0.5555480    -0.5175680     0.1381390
  C        0.5555480     0.5175670     0.1381410
  C       -1.9182850     0.1263550    -0.0446340
  C        1.9182850    -0.1263550    -0.0446340
  H       -0.3858900    -1.1663349    -0.7289356
  H       -0.5383610    -1.1077740     1.0609210
  H        0.3806750     1.2252800    -0.6804340
  H        0.5383600     1.1077700     1.0609240
  H       -2.8543230    -1.6451260     0.4957240
  H       -3.8970040    -0.3356840     0.0715640
  H        2.8543220     1.6451260     0.4957230
  H        3.8970030     0.3356850     0.0715640
units angstrom
no_reorient  #important for SAPT in psi4, default
symmetry c1  #important for SAPT in psi4, default
}

set PROPERTIES_ORIGIN ["COM"]
properties('MP2/aug-cc-pvtz', properties = ['dipole'])
--------------------------------------------------------------------------

    Molecular point group: c1
  Charge       = 0
  Multiplicity = 1
  Basis Set: AUG-CC-PVTZ
    Blend: AUG-CC-PVTZ
  Basis Set: (AUG-CC-PVTZ AUX)
    Blend: AUG-CC-PVTZ-JKFIT

    Orbital Energies [Eh]
    ---------------------

    Doubly Occupied:

       1A    -20.526800     2A    -20.526456     3A    -15.590419
       4A    -15.590256     5A    -11.359830     6A    -11.359499
       7A    -11.247744     8A    -11.246873     9A     -1.380996
      10A     -1.378876    11A     -1.214056    12A     -1.213966
      13A     -1.076217    14A     -0.937655    15A     -0.806721
      16A     -0.775160    17A     -0.723869    18A     -0.722546
      19A     -0.680875    20A     -0.672600    21A     -0.638352
      22A     -0.609183    23A     -0.582744    24A     -0.562977
      25A     -0.552166    26A     -0.517367    27A     -0.501755
      28A     -0.433450    29A     -0.432637    30A     -0.422485
      31A     -0.419423

  @DF-RHF Final Energy:  -414.95922642520793

   => Energetics <=

    Nuclear Repulsion Energy =            365.8556980828236078
    One-Electron Energy =               -1292.2219468729033451
    Two-Electron Energy =                 511.4070223648717501
    Total Energy =                       -414.9592264252079303
  Basis Set: (AUG-CC-PVTZ AUX)
    Blend: AUG-CC-PVTZ-RI
    Molecular point group: c1

    Geometry (in Angstrom), charge = 0, multiplicity = 1:

       Center              X                  Y                   Z               Mass
    ------------   -----------------  -----------------  -----------------  -----------------
         O           -2.073674825949     1.262356143589    -0.474965203876    15.994914619570
         O            2.073766174051    -1.263379856411    -0.474965203876    15.994914619570
         N           -2.976192825949    -0.653928856411     0.362768796124    14.003074004430
         N            2.976283174051     0.652906143589     0.362767796124    14.003074004430
         C           -0.555502825949    -0.518079856411     0.154703796124    12.000000000000
         C            0.555593174051     0.517055143589     0.154705796124    12.000000000000
         C           -1.918239825949     0.125843143589    -0.028069203876    12.000000000000
         C            1.918330174051    -0.126866856411    -0.028069203876    12.000000000000
         H           -0.385844825949    -1.166846756411    -0.712370803876     1.007825032230
         H           -0.538315825949    -1.108285856411     1.077485796124     1.007825032230
         H            0.380720174051     1.224768143589    -0.663869203876     1.007825032230
         H            0.538405174051     1.107258143589     1.077488796124     1.007825032230
         H           -2.854277825949    -1.645637856411     0.512288796124     1.007825032230
         H           -3.896958825949    -0.336195856411     0.088128796124     1.007825032230
         H            2.854367174051     1.644614143589     0.512287796124     1.007825032230
         H            3.897048174051     0.335173143589     0.088128796124     1.007825032230

  Basis Set: AUG-CC-PVTZ
    Blend: AUG-CC-PVTZ
  Basis Set: (AUG-CC-PVTZ AUX)
    Blend: AUG-CC-PVTZ-JKFIT
	 Reference Energy          =    -414.9592264252079303 [Eh]
	 Singles Energy            =      -0.0000000000000000 [Eh]
	 Same-Spin Energy          =      -0.4146045862632485 [Eh]
	 Opposite-Spin Energy      =      -1.2904498238427529 [Eh]
	 Correlation Energy        =      -1.7050544101060012 [Eh]
	 Total Energy              =    -416.6642808353139458 [Eh]

	 ================> DF-SCS-MP2 Energies <==================
	-----------------------------------------------------------
	 SCS Same-Spin Scale       =       0.3333333333333333 [-]
	 SCS Opposite-Spin Scale   =       1.2000000000000000 [-]
	 SCS Same-Spin Energy      =      -0.1382015287544162 [Eh]
	 SCS Opposite-Spin Energy  =      -1.5485397886113035 [Eh]
	 SCS Correlation Energy    =      -1.6867413173657195 [Eh]
	 SCS Total Energy          =    -416.6459677425736459 [Eh]
	-----------------------------------------------------------

  Dipole Moment: [D]
     X:    -0.0079      Y:     0.0175      Z:     1.5524     Total:     1.5525

*** Psi4 exiting successfully. Buy a developer a beer!
