                               Psi4 1.4a3.dev225

  ==> Input File <==

--------------------------------------------------------------------------
#psi4
#
memory 32 gb

molecule  {
0 1
  O       -2.0737200     1.2628680    -0.4915300
  O        2.0737210    -1.2628680    -0.4915300
  N       -2.9762380    -0.6534170     0.3462040
  N        2.8796443     0.7534257     0.3817908
  C       -0.5555480    -0.5175680     0.1381390
  C        0.5555480     0.5175670     0.1381410
  C       -1.9182850     0.1263550    -0.0446340
  C        1.9182850    -0.1263550    -0.0446340
  H       -0.3806750    -1.2252780    -0.6804370
  H       -0.5383610    -1.1077740     1.0609210
  H        0.3806750     1.2252800    -0.6804340
  H        0.5383600     1.1077700     1.0609240
  H       -2.8543230    -1.6451260     0.4957240
  H       -3.8970040    -0.3356840     0.0715640
  H        2.8543220     1.6451260     0.4957230
  H        3.8970030     0.3356850     0.0715640
units angstrom
no_reorient  #important for SAPT in psi4, default
symmetry c1  #important for SAPT in psi4, default
}

set PROPERTIES_ORIGIN ["COM"]
properties('MP2/aug-cc-pvtz', properties = ['dipole'])
--------------------------------------------------------------------------

    Molecular point group: c1
  Charge       = 0
  Multiplicity = 1
  Basis Set: AUG-CC-PVTZ
    Blend: AUG-CC-PVTZ
  Basis Set: (AUG-CC-PVTZ AUX)
    Blend: AUG-CC-PVTZ-JKFIT

    Orbital Energies [Eh]
    ---------------------

    Doubly Occupied:

       1A    -20.535653     2A    -20.525397     3A    -15.593536
       4A    -15.589013     5A    -11.365477     6A    -11.358151
       7A    -11.244648     8A    -11.241704     9A     -1.383181
      10A     -1.378332    11A     -1.227089    12A     -1.212696
      13A     -1.072285    14A     -0.936164    15A     -0.828340
      16A     -0.784655    17A     -0.722774    18A     -0.715945
      19A     -0.670952    20A     -0.659956    21A     -0.641275
      22A     -0.609595    23A     -0.583474    24A     -0.563350
      25A     -0.542003    26A     -0.517871    27A     -0.497142
      28A     -0.436591    29A     -0.431419    30A     -0.427697
      31A     -0.419501

  @DF-RHF Final Energy:  -414.92639171928317

   => Energetics <=

    Nuclear Repulsion Energy =            366.2868721054267098
    One-Electron Energy =               -1292.9947959458293099
    Two-Electron Energy =                 511.7815321211194259
    Total Energy =                       -414.9263917192831741
  Basis Set: (AUG-CC-PVTZ AUX)
    Blend: AUG-CC-PVTZ-RI
    Molecular point group: c1

    Geometry (in Angstrom), charge = 0, multiplicity = 1:

       Center              X                  Y                   Z               Mass
    ------------   -----------------  -----------------  -----------------  -----------------
         O           -2.062065576974     1.250801539688    -0.479680208246    15.994914619570
         O            2.085375423026    -1.274934460312    -0.479680208246    15.994914619570
         N           -2.964583576974    -0.665483460312     0.358053791754    14.003074004430
         N            2.891298723026     0.741359239688     0.393640591754    14.003074004430
         C           -0.543893576974    -0.529634460312     0.149988791754    12.000000000000
         C            0.567202423026     0.505500539688     0.149990791754    12.000000000000
         C           -1.906630576974     0.114288539688    -0.032784208246    12.000000000000
         C            1.929939423026    -0.138421460312    -0.032784208246    12.000000000000
         H           -0.369020576974    -1.237344460312    -0.668587208246     1.007825032230
         H           -0.526706576974    -1.119840460312     1.072770791754     1.007825032230
         H            0.392329423026     1.213213539688    -0.668584208246     1.007825032230
         H            0.550014423026     1.095703539688     1.072773791754     1.007825032230
         H           -2.842668576974    -1.657192460312     0.507573791754     1.007825032230
         H           -3.885349576974    -0.347750460312     0.083413791754     1.007825032230
         H            2.865976423026     1.633059539688     0.507572791754     1.007825032230
         H            3.908657423026     0.323618539688     0.083413791754     1.007825032230

  Basis Set: AUG-CC-PVTZ
    Blend: AUG-CC-PVTZ
  Basis Set: (AUG-CC-PVTZ AUX)
    Blend: AUG-CC-PVTZ-JKFIT
	 Reference Energy          =    -414.9263917192831741 [Eh]
	 Singles Energy            =      -0.0000000000000000 [Eh]
	 Same-Spin Energy          =      -0.4154757539426804 [Eh]
	 Opposite-Spin Energy      =      -1.2926193445090275 [Eh]
	 Correlation Energy        =      -1.7080950984517078 [Eh]
	 Total Energy              =    -416.6344868177349099 [Eh]

	 ================> DF-SCS-MP2 Energies <==================
	-----------------------------------------------------------
	 SCS Same-Spin Scale       =       0.3333333333333333 [-]
	 SCS Opposite-Spin Scale   =       1.2000000000000000 [-]
	 SCS Same-Spin Energy      =      -0.1384919179808934 [Eh]
	 SCS Opposite-Spin Energy  =      -1.5511432134108329 [Eh]
	 SCS Correlation Energy    =      -1.6896351313917264 [Eh]
	 SCS Total Energy          =    -416.6160268506749276 [Eh]
	-----------------------------------------------------------

  Dipole Moment: [D]
     X:     0.1716      Y:    -0.1244      Z:     1.5052     Total:     1.5200

*** Psi4 exiting successfully. Buy a developer a beer!
