                               Psi4 1.4a3.dev225

  ==> Input File <==

--------------------------------------------------------------------------
#psi4
#
memory 32 gb

molecule  {
0 1
  O       -2.0737200     1.2628680    -0.4915300
  O        2.0737210    -1.2628680    -0.4915300
  N       -2.9762380    -0.6534170     0.3462040
  N        2.9762380     0.6534180     0.3462030
  C       -0.5555480    -0.5175680     0.1381390
  C        0.5555480     0.5175670     0.1381410
  C       -1.9208102     0.1448188    -0.0518943
  C        1.9182850    -0.1263550    -0.0446340
  H       -0.3806750    -1.2252780    -0.6804370
  H       -0.5383610    -1.1077740     1.0609210
  H        0.3806750     1.2252800    -0.6804340
  H        0.5383600     1.1077700     1.0609240
  H       -2.8543230    -1.6451260     0.4957240
  H       -3.8970040    -0.3356840     0.0715640
  H        2.8543220     1.6451260     0.4957230
  H        3.8970030     0.3356850     0.0715640
units angstrom
no_reorient  #important for SAPT in psi4, default
symmetry c1  #important for SAPT in psi4, default
}

set PROPERTIES_ORIGIN ["COM"]
properties('MP2/aug-cc-pvtz', properties = ['dipole'])
--------------------------------------------------------------------------

    Molecular point group: c1
  Charge       = 0
  Multiplicity = 1
  Basis Set: AUG-CC-PVTZ
    Blend: AUG-CC-PVTZ
  Basis Set: (AUG-CC-PVTZ AUX)
    Blend: AUG-CC-PVTZ-JKFIT

    Orbital Energies [Eh]
    ---------------------

    Doubly Occupied:

       1A    -20.530689     2A    -20.526631     3A    -15.590138
       4A    -15.587187     5A    -11.359639     6A    -11.359126
       7A    -11.247016     8A    -11.246205     9A     -1.393309
      10A     -1.379751    11A     -1.213854    12A     -1.210562
      13A     -1.074271    14A     -0.935052    15A     -0.804824
      16A     -0.774581    17A     -0.723976    18A     -0.721891
      19A     -0.679833    20A     -0.670925    21A     -0.639733
      22A     -0.612606    23A     -0.583726    24A     -0.566022
      25A     -0.550719    26A     -0.520875    27A     -0.499631
      28A     -0.434799    29A     -0.432925    30A     -0.423361
      31A     -0.419990

  @DF-RHF Final Energy:  -414.96050460166748

   => Energetics <=

    Nuclear Repulsion Energy =            365.8811704890704277
    One-Electron Energy =               -1292.2556531066716161
    Two-Electron Energy =                 511.4139780159337079
    Total Energy =                       -414.9605046016674805
  Basis Set: (AUG-CC-PVTZ AUX)
    Blend: AUG-CC-PVTZ-RI
    Molecular point group: c1

    Geometry (in Angstrom), charge = 0, multiplicity = 1:

       Center              X                  Y                   Z               Mass
    ------------   -----------------  -----------------  -----------------  -----------------
         O           -2.073459016028     1.260958907195    -0.474635667725    15.994914619570
         O            2.073981983972    -1.264777092805    -0.474635667725    15.994914619570
         N           -2.975977016028    -0.655326092805     0.363098332275    14.003074004430
         N            2.976498983972     0.651508907195     0.363097332275    14.003074004430
         C           -0.555287016028    -0.519477092805     0.155033332275    12.000000000000
         C            0.555808983972     0.515657907195     0.155035332275    12.000000000000
         C           -1.920549216028     0.142909707195    -0.034999967725    12.000000000000
         C            1.918545983972    -0.128264092805    -0.027739667725    12.000000000000
         H           -0.380414016028    -1.227187092805    -0.663542667725     1.007825032230
         H           -0.538100016028    -1.109683092805     1.077815332275     1.007825032230
         H            0.380935983972     1.223370907195    -0.663539667725     1.007825032230
         H            0.538620983972     1.105860907195     1.077818332275     1.007825032230
         H           -2.854062016028    -1.647035092805     0.512618332275     1.007825032230
         H           -3.896743016028    -0.337593092805     0.088458332275     1.007825032230
         H            2.854582983972     1.643216907195     0.512617332275     1.007825032230
         H            3.897263983972     0.333775907195     0.088458332275     1.007825032230

  Basis Set: AUG-CC-PVTZ
    Blend: AUG-CC-PVTZ
  Basis Set: (AUG-CC-PVTZ AUX)
    Blend: AUG-CC-PVTZ-JKFIT
	 Reference Energy          =    -414.9605046016674805 [Eh]
	 Singles Energy            =      -0.0000000000000000 [Eh]
	 Same-Spin Energy          =      -0.4141668915555652 [Eh]
	 Opposite-Spin Energy      =      -1.2896281331983204 [Eh]
	 Correlation Energy        =      -1.7037950247538856 [Eh]
	 Total Energy              =    -416.6642996264213821 [Eh]

	 ================> DF-SCS-MP2 Energies <==================
	-----------------------------------------------------------
	 SCS Same-Spin Scale       =       0.3333333333333333 [-]
	 SCS Opposite-Spin Scale   =       1.2000000000000000 [-]
	 SCS Same-Spin Energy      =      -0.1380556305185217 [Eh]
	 SCS Opposite-Spin Energy  =      -1.5475537598379845 [Eh]
	 SCS Correlation Energy    =      -1.6856093903565061 [Eh]
	 SCS Total Energy          =    -416.6461139920239702 [Eh]
	-----------------------------------------------------------

  Dipole Moment: [D]
     X:     0.0165      Y:     0.1293      Z:     1.5061     Total:     1.5118

*** Psi4 exiting successfully. Buy a developer a beer!
