                               Psi4 1.4a3.dev225

  ==> Input File <==

--------------------------------------------------------------------------
#psi4
#
memory 32 gb

molecule  {
0 1
  O       -2.0737200     1.2628680    -0.4915300
  O        2.0737210    -1.2628680    -0.4915300
  N       -2.9762380    -0.6534170     0.3462040
  N        2.9452783     0.6877593     0.3585617
  C       -0.5555480    -0.5175680     0.1381390
  C        0.5555480     0.5175670     0.1381410
  C       -1.9182850     0.1263550    -0.0446340
  C        1.9182850    -0.1263550    -0.0446340
  H       -0.3806750    -1.2252780    -0.6804370
  H       -0.5383610    -1.1077740     1.0609210
  H        0.3806750     1.2252800    -0.6804340
  H        0.5383600     1.1077700     1.0609240
  H       -2.8543230    -1.6451260     0.4957240
  H       -3.8970040    -0.3356840     0.0715640
  H        2.8543220     1.6451260     0.4957230
  H        3.8970030     0.3356850     0.0715640
units angstrom
no_reorient  #important for SAPT in psi4, default
symmetry c1  #important for SAPT in psi4, default
}

set PROPERTIES_ORIGIN ["COM"]
properties('MP2/aug-cc-pvtz', properties = ['dipole'])
--------------------------------------------------------------------------

    Molecular point group: c1
  Charge       = 0
  Multiplicity = 1
  Basis Set: AUG-CC-PVTZ
    Blend: AUG-CC-PVTZ
  Basis Set: (AUG-CC-PVTZ AUX)
    Blend: AUG-CC-PVTZ-JKFIT

    Orbital Energies [Eh]
    ---------------------

    Doubly Occupied:

       1A    -20.529567     2A    -20.526315     3A    -15.591371
       4A    -15.589830     5A    -11.361210     6A    -11.359269
       7A    -11.246384     8A    -11.245153     9A     -1.381308
      10A     -1.378902    11A     -1.217547    12A     -1.213537
      13A     -1.074294    14A     -0.936440    15A     -0.809370
      16A     -0.779955    17A     -0.723808    18A     -0.722714
      19A     -0.675104    20A     -0.670003    21A     -0.638684
      22A     -0.610468    23A     -0.582483    24A     -0.563572
      25A     -0.548598    26A     -0.519504    27A     -0.498378
      28A     -0.434484    29A     -0.432798    30A     -0.423855
      31A     -0.419835

  @DF-RHF Final Energy:  -414.95553549213491

   => Energetics <=

    Nuclear Repulsion Energy =            365.9325684393742790
    One-Electron Energy =               -1292.3667312415191191
    Two-Electron Energy =                 511.4786273100098697
    Total Energy =                       -414.9555354921349135
  Basis Set: (AUG-CC-PVTZ AUX)
    Blend: AUG-CC-PVTZ-RI
    Molecular point group: c1

    Geometry (in Angstrom), charge = 0, multiplicity = 1:

       Center              X                  Y                   Z               Mass
    ------------   -----------------  -----------------  -----------------  -----------------
         O           -2.069984662138     1.258724534081    -0.476877495915    15.994914619570
         O            2.077456337862    -1.267011465919    -0.476877495915    15.994914619570
         N           -2.972502662138    -0.657560465919     0.360856504085    14.003074004430
         N            2.949013637862     0.683615834081     0.373214204085    14.003074004430
         C           -0.551812662138    -0.521711465919     0.152791504085    12.000000000000
         C            0.559283337862     0.513423534081     0.152793504085    12.000000000000
         C           -1.914549662138     0.122211534081    -0.029981495915    12.000000000000
         C            1.922020337862    -0.130498465919    -0.029981495915    12.000000000000
         H           -0.376939662138    -1.229421465919    -0.665784495915     1.007825032230
         H           -0.534625662138    -1.111917465919     1.075573504085     1.007825032230
         H            0.384410337862     1.221136534081    -0.665781495915     1.007825032230
         H            0.542095337862     1.103626534081     1.075576504085     1.007825032230
         H           -2.850587662138    -1.649269465919     0.510376504085     1.007825032230
         H           -3.893268662138    -0.339827465919     0.086216504085     1.007825032230
         H            2.858057337862     1.640982534081     0.510375504085     1.007825032230
         H            3.900738337862     0.331541534081     0.086216504085     1.007825032230

  Basis Set: AUG-CC-PVTZ
    Blend: AUG-CC-PVTZ
  Basis Set: (AUG-CC-PVTZ AUX)
    Blend: AUG-CC-PVTZ-JKFIT
	 Reference Energy          =    -414.9555354921349135 [Eh]
	 Singles Energy            =      -0.0000000000000000 [Eh]
	 Same-Spin Energy          =      -0.4147857112971864 [Eh]
	 Opposite-Spin Energy      =      -1.2908053707802836 [Eh]
	 Correlation Energy        =      -1.7055910820774700 [Eh]
	 Total Energy              =    -416.6611265742124033 [Eh]

	 ================> DF-SCS-MP2 Energies <==================
	-----------------------------------------------------------
	 SCS Same-Spin Scale       =       0.3333333333333333 [-]
	 SCS Opposite-Spin Scale   =       1.2000000000000000 [-]
	 SCS Same-Spin Energy      =      -0.1382619037657288 [Eh]
	 SCS Opposite-Spin Energy  =      -1.5489664449363403 [Eh]
	 SCS Correlation Energy    =      -1.6872283487020692 [Eh]
	 SCS Total Energy          =    -416.6427638408370058 [Eh]
	-----------------------------------------------------------

  Dipole Moment: [D]
     X:     0.0684      Y:    -0.0354      Z:     1.5455     Total:     1.5474

*** Psi4 exiting successfully. Buy a developer a beer!
