                               Psi4 1.3.2 release

  ==> Input File <==

--------------------------------------------------------------------------
#psi4
#
memory 32 gb

molecule  {
0 1
 Cl       -2.7380800    -1.4884340     0.0000240
 Cl        0.0800140     3.1154550    -0.0000800
 Cl        2.6580650    -1.6270210     0.0000640
  C       -1.1159192    -0.6569978    -0.0000123
  C        0.0354480     1.3804360    -0.0000610
  C        1.1777690    -0.7209210     0.0000710
  C       -1.2006100     0.7348950    -0.0000410
  C       -0.0361320    -1.4072030     0.0000230
  C        1.2367450     0.6723100    -0.0000120
  H       -2.1260020     1.3013390    -0.0000230
  H       -0.0639890    -2.4918370     0.0000610
  H        2.1899970     1.1904920    -0.0000040
units angstrom
no_reorient  #important for SAPT in psi4, default
symmetry c1  #important for SAPT in psi4, default
}

set PROPERTIES_ORIGIN ["COM"]
properties('MP2/aug-cc-pvtz', properties = ['dipole'])
--------------------------------------------------------------------------

    Molecular point group: c1
  Charge       = 0
  Multiplicity = 1
  Basis Set: AUG-CC-PVTZ
    Blend: AUG-CC-PVTZ
  Basis Set: (AUG-CC-PVTZ AUX)
    Blend: AUG-CC-PVTZ-JKFIT

    Orbital Energies [Eh]
    ---------------------

    Doubly Occupied:

       1A   -104.863342     2A   -104.862291     3A   -104.849743
       4A    -11.338138     5A    -11.336721     6A    -11.332438
       7A    -11.279505     8A    -11.278041     9A    -11.271132
      10A    -10.587154    11A    -10.586147    12A    -10.572659
      13A     -8.054064    14A     -8.053059    15A     -8.052085
      16A     -8.052066    17A     -8.051079    18A     -8.051061
      19A     -8.039386    20A     -8.037643    21A     -8.037630
      22A     -1.242306    23A     -1.178311    24A     -1.163148
      25A     -1.091804    26A     -1.032357    27A     -1.018494
      28A     -0.850119    29A     -0.838606    30A     -0.732735
      31A     -0.706016    32A     -0.638591    33A     -0.627370
      34A     -0.611396    35A     -0.596749    36A     -0.556044
      37A     -0.531513    38A     -0.525466    39A     -0.514484
      40A     -0.478499    41A     -0.475417    42A     -0.462781
      43A     -0.455047    44A     -0.369702    45A     -0.357964

  @DF-RHF Final Energy: -1607.57414080413673

   => Energetics <=

    Nuclear Repulsion Energy =            615.0751547016752738
    One-Electron Energy =               -3438.0179866528487764
    Two-Electron Energy =                1215.3686911470367704
    Total Energy =                      -1607.5741408041367322
  Basis Set: (AUG-CC-PVTZ AUX)
    Blend: AUG-CC-PVTZ-RI
    Molecular point group: c1

    Geometry (in Angstrom), charge = 0, multiplicity = 1:

       Center              X                  Y                   Z               Mass
    ------------   -----------------  -----------------  -----------------  -----------------
         CL          -2.744569081660    -1.488601978366     0.000024408954    34.968852682000
         CL           0.073524918340     3.115287021634    -0.000079591046    34.968852682000
         CL           2.651575918340    -1.627188978366     0.000064408954    34.968852682000
         C           -1.122408281660    -0.657165778366    -0.000011891046    12.000000000000
         C            0.028958918340     1.380268021634    -0.000060591046    12.000000000000
         C            1.171279918340    -0.721088978366     0.000071408954    12.000000000000
         C           -1.207099081660     0.734727021634    -0.000040591046    12.000000000000
         C           -0.042621081660    -1.407370978366     0.000023408954    12.000000000000
         C            1.230255918340     0.672142021634    -0.000011591046    12.000000000000
         H           -2.132491081660     1.301171021634    -0.000022591046     1.007825032230
         H           -0.070478081660    -2.492004978366     0.000061408954     1.007825032230
         H            2.183507918340     1.190324021634    -0.000003591046     1.007825032230

  Basis Set: AUG-CC-PVTZ
    Blend: AUG-CC-PVTZ
  Basis Set: (AUG-CC-PVTZ AUX)
    Blend: AUG-CC-PVTZ-JKFIT
	 Reference Energy          =   -1607.5741408041367322 [Eh]
	 Singles Energy            =      -0.0000000000000000 [Eh]
	 Same-Spin Energy          =      -0.4506472693294389 [Eh]
	 Opposite-Spin Energy      =      -1.3055844043712184 [Eh]
	 Correlation Energy        =      -1.7562316737006571 [Eh]
	 Total Energy              =   -1609.3303724778374999 [Eh]

	 ================> DF-SCS-MP2 Energies <==================
	-----------------------------------------------------------
	 SCS Same-Spin Scale       =       0.3333333333333333 [-]
	 SCS Opposite-Spin Scale   =       1.2000000000000000 [-]
	 SCS Same-Spin Energy      =      -0.1502157564431463 [Eh]
	 SCS Opposite-Spin Energy  =      -1.5667012852454620 [Eh]
	 SCS Correlation Energy    =      -1.7169170416886084 [Eh]
	 SCS Total Energy          =   -1609.2910578458254349 [Eh]
	-----------------------------------------------------------

  Dipole Moment: [D]
     X:     0.4602      Y:     0.1929      Z:     0.0000     Total:     0.4990

*** Psi4 exiting successfully. Buy a developer a beer!
