                               Psi4 1.3.2 release

  ==> Input File <==

--------------------------------------------------------------------------
#psi4
#
memory 32 gb

molecule  {
0 1
 Cl       -2.7380800    -1.4884340     0.0000240
 Cl        0.0800140     3.1154550    -0.0000800
 Cl        2.6580650    -1.6270210     0.0000640
  C       -1.2375529    -0.6590826    -0.0000082
  C        0.0354480     1.3804360    -0.0000610
  C        1.1777690    -0.7209210     0.0000710
  C       -1.2006100     0.7348950    -0.0000410
  C       -0.0361320    -1.4072030     0.0000230
  C        1.2367450     0.6723100    -0.0000120
  H       -2.1260020     1.3013390    -0.0000230
  H       -0.0639890    -2.4918370     0.0000610
  H        2.1899970     1.1904920    -0.0000040
units angstrom
no_reorient  #important for SAPT in psi4, default
symmetry c1  #important for SAPT in psi4, default
}

set PROPERTIES_ORIGIN ["COM"]
properties('MP2/aug-cc-pvtz', properties = ['dipole'])
--------------------------------------------------------------------------

    Molecular point group: c1
  Charge       = 0
  Multiplicity = 1
  Basis Set: AUG-CC-PVTZ
    Blend: AUG-CC-PVTZ
  Basis Set: (AUG-CC-PVTZ AUX)
    Blend: AUG-CC-PVTZ-JKFIT

    Orbital Energies [Eh]
    ---------------------

    Doubly Occupied:

       1A   -104.863067     2A   -104.860352     3A   -104.860112
       4A    -11.334540     5A    -11.333363     6A    -11.333030
       7A    -11.277006     8A    -11.275330     9A    -11.275077
      10A    -10.587181    11A    -10.584142    12A    -10.583912
      13A     -8.054150    14A     -8.052097    15A     -8.052080
      16A     -8.051059    17A     -8.050829    18A     -8.049073
      19A     -8.049065    20A     -8.048843    21A     -8.048835
      22A     -1.233976    23A     -1.179047    24A     -1.174307
      25A     -1.093358    26A     -1.017861    27A     -1.014546
      28A     -0.841646    29A     -0.838647    30A     -0.723618
      31A     -0.697981    32A     -0.645776    33A     -0.615337
      34A     -0.611835    35A     -0.590200    36A     -0.552415
      37A     -0.547385    38A     -0.525541    39A     -0.522473
      40A     -0.479327    41A     -0.478315    42A     -0.464690
      43A     -0.452664    44A     -0.356786    45A     -0.353781

  @DF-RHF Final Energy: -1607.58099865028544

   => Energetics <=

    Nuclear Repulsion Energy =            614.4397011687888153
    One-Electron Energy =               -3436.7720815386196591
    Two-Electron Energy =                1214.7513817195454067
    Total Energy =                      -1607.5809986502854372
  Basis Set: (AUG-CC-PVTZ AUX)
    Blend: AUG-CC-PVTZ-RI
    Molecular point group: c1

    Geometry (in Angstrom), charge = 0, multiplicity = 1:

       Center              X                  Y                   Z               Mass
    ------------   -----------------  -----------------  -----------------  -----------------
         CL          -2.736457015127    -1.488462937654     0.000024135514    34.968852682000
         CL           0.081636984873     3.115426062346    -0.000079864486    34.968852682000
         CL           2.659687984873    -1.627049937654     0.000064135514    34.968852682000
         C           -1.235929915127    -0.659111537654    -0.000008064486    12.000000000000
         C            0.037070984873     1.380407062346    -0.000060864486    12.000000000000
         C            1.179391984873    -0.720949937654     0.000071135514    12.000000000000
         C           -1.198987015127     0.734866062346    -0.000040864486    12.000000000000
         C           -0.034509015127    -1.407231937654     0.000023135514    12.000000000000
         C            1.238367984873     0.672281062346    -0.000011864486    12.000000000000
         H           -2.124379015127     1.301310062346    -0.000022864486     1.007825032230
         H           -0.062366015127    -2.491865937654     0.000061135514     1.007825032230
         H            2.191619984873     1.190463062346    -0.000003864486     1.007825032230

  Basis Set: AUG-CC-PVTZ
    Blend: AUG-CC-PVTZ
  Basis Set: (AUG-CC-PVTZ AUX)
    Blend: AUG-CC-PVTZ-JKFIT
	 Reference Energy          =   -1607.5809986502854372 [Eh]
	 Singles Energy            =      -0.0000000000000000 [Eh]
	 Same-Spin Energy          =      -0.4513479607667809 [Eh]
	 Opposite-Spin Energy      =      -1.3063729991783077 [Eh]
	 Correlation Energy        =      -1.7577209599450887 [Eh]
	 Total Energy              =   -1609.3387196102305552 [Eh]

	 ================> DF-SCS-MP2 Energies <==================
	-----------------------------------------------------------
	 SCS Same-Spin Scale       =       0.3333333333333333 [-]
	 SCS Opposite-Spin Scale   =       1.2000000000000000 [-]
	 SCS Same-Spin Energy      =      -0.1504493202555936 [Eh]
	 SCS Opposite-Spin Energy  =      -1.5676475990139693 [Eh]
	 SCS Correlation Energy    =      -1.7180969192695630 [Eh]
	 SCS Total Energy          =   -1609.2990955695549928 [Eh]
	-----------------------------------------------------------

  Dipole Moment: [D]
     X:    -0.1092      Y:    -0.0476      Z:     0.0000     Total:     0.1191

*** Psi4 exiting successfully. Buy a developer a beer!
