                               Psi4 1.3.2 release

  ==> Input File <==

--------------------------------------------------------------------------
#psi4
#
memory 32 gb

molecule  {
0 1
 Cl       -2.7380800    -1.4884340     0.0000240
 Cl        0.0800140     3.1154550    -0.0000800
 Cl        2.6580650    -1.6270210     0.0000640
  C       -1.2132190    -0.6595150    -0.0000090
  C        0.0354480     1.3804360    -0.0000610
  C        1.1777690    -0.7209210     0.0000710
  C       -1.2006100     0.7348950    -0.0000410
  C       -0.0361320    -1.4072030     0.0000230
  C        1.2367450     0.6723100    -0.0000120
  H       -2.0407118     1.2491318    -0.0000247
  H       -0.0639890    -2.4918370     0.0000610
  H        2.1899970     1.1904920    -0.0000040
units angstrom
no_reorient  #important for SAPT in psi4, default
symmetry c1  #important for SAPT in psi4, default
}

set PROPERTIES_ORIGIN ["COM"]
properties('MP2/aug-cc-pvtz', properties = ['dipole'])
--------------------------------------------------------------------------

    Molecular point group: c1
  Charge       = 0
  Multiplicity = 1
  Basis Set: AUG-CC-PVTZ
    Blend: AUG-CC-PVTZ
  Basis Set: (AUG-CC-PVTZ AUX)
    Blend: AUG-CC-PVTZ-JKFIT

    Orbital Energies [Eh]
    ---------------------

    Doubly Occupied:

       1A   -104.860935     2A   -104.860935     3A   -104.860713
       4A    -11.334011     5A    -11.333606     6A    -11.333601
       7A    -11.275511     8A    -11.275486     9A    -11.264930
      10A    -10.584739    11A    -10.584739    12A    -10.584516
      13A     -8.051656    14A     -8.051656    15A     -8.051431
      16A     -8.049673    17A     -8.049672    18A     -8.049663
      19A     -8.049662    20A     -8.049447    21A     -8.049436
      22A     -1.235495    23A     -1.175541    24A     -1.175142
      25A     -1.093780    26A     -1.023439    27A     -1.017832
      28A     -0.846709    29A     -0.840740    30A     -0.737206
      31A     -0.699329    32A     -0.645672    33A     -0.623531
      34A     -0.614621    35A     -0.591015    36A     -0.553563
      37A     -0.548929    38A     -0.523170    39A     -0.523061
      40A     -0.478604    41A     -0.478544    42A     -0.464976
      43A     -0.453408    44A     -0.357023    45A     -0.356763

  @DF-RHF Final Energy: -1607.57638562053080

   => Energetics <=

    Nuclear Repulsion Energy =            615.1330618569633089
    One-Electron Energy =               -3438.0906790014100807
    Two-Electron Energy =                1215.3812315239160853
    Total Energy =                      -1607.5763856205308002
  Basis Set: (AUG-CC-PVTZ AUX)
    Blend: AUG-CC-PVTZ-RI
    Molecular point group: c1

    Geometry (in Angstrom), charge = 0, multiplicity = 1:

       Center              X                  Y                   Z               Mass
    ------------   -----------------  -----------------  -----------------  -----------------
         CL          -2.738557633862    -1.488141676539     0.000024198391    34.968852682000
         CL           0.079536366138     3.115747323461    -0.000079801609    34.968852682000
         CL           2.657587366138    -1.626728676539     0.000064198391    34.968852682000
         C           -1.213696633862    -0.659222676539    -0.000008801609    12.000000000000
         C            0.034970366138     1.380728323461    -0.000060801609    12.000000000000
         C            1.177291366138    -0.720628676539     0.000071198391    12.000000000000
         C           -1.201087633862     0.735187323461    -0.000040801609    12.000000000000
         C           -0.036609633862    -1.406910676539     0.000023198391    12.000000000000
         C            1.236267366138     0.672602323461    -0.000011801609    12.000000000000
         H           -2.041189433862     1.249424123461    -0.000024501609     1.007825032230
         H           -0.064466633862    -2.491544676539     0.000061198391     1.007825032230
         H            2.189519366138     1.190784323461    -0.000003801609     1.007825032230

  Basis Set: AUG-CC-PVTZ
    Blend: AUG-CC-PVTZ
  Basis Set: (AUG-CC-PVTZ AUX)
    Blend: AUG-CC-PVTZ-JKFIT
	 Reference Energy          =   -1607.5763856205308002 [Eh]
	 Singles Energy            =      -0.0000000000000000 [Eh]
	 Same-Spin Energy          =      -0.4508918202641105 [Eh]
	 Opposite-Spin Energy      =      -1.3056143020551227 [Eh]
	 Correlation Energy        =      -1.7565061223192333 [Eh]
	 Total Energy              =   -1609.3328917428500517 [Eh]

	 ================> DF-SCS-MP2 Energies <==================
	-----------------------------------------------------------
	 SCS Same-Spin Scale       =       0.3333333333333333 [-]
	 SCS Opposite-Spin Scale   =       1.2000000000000000 [-]
	 SCS Same-Spin Energy      =      -0.1502972734213701 [Eh]
	 SCS Opposite-Spin Energy  =      -1.5667371624661472 [Eh]
	 SCS Correlation Energy    =      -1.7170344358875174 [Eh]
	 SCS Total Energy          =   -1609.2934200564184266 [Eh]
	-----------------------------------------------------------

  Dipole Moment: [D]
     X:     0.0221      Y:    -0.0135      Z:     0.0000     Total:     0.0259

*** Psi4 exiting successfully. Buy a developer a beer!
