                               Psi4 1.3.2 release

  ==> Input File <==

--------------------------------------------------------------------------
#psi4
#
memory 32 gb

molecule  {
0 1
 Cl       -2.7921880    -1.3800459     0.0000220
 Cl        0.0800140     3.1154550    -0.0000800
 Cl        2.6580650    -1.6270210     0.0000640
  C       -1.2132190    -0.6595150    -0.0000090
  C        0.0354480     1.3804360    -0.0000610
  C        1.1777690    -0.7209210     0.0000710
  C       -1.2006100     0.7348950    -0.0000410
  C       -0.0361320    -1.4072030     0.0000230
  C        1.2367450     0.6723100    -0.0000120
  H       -2.1260020     1.3013390    -0.0000230
  H       -0.0639890    -2.4918370     0.0000610
  H        2.1899970     1.1904920    -0.0000040
units angstrom
no_reorient  #important for SAPT in psi4, default
symmetry c1  #important for SAPT in psi4, default
}

set PROPERTIES_ORIGIN ["COM"]
properties('MP2/aug-cc-pvtz', properties = ['dipole'])
--------------------------------------------------------------------------

    Molecular point group: c1
  Charge       = 0
  Multiplicity = 1
  Basis Set: AUG-CC-PVTZ
    Blend: AUG-CC-PVTZ
  Basis Set: (AUG-CC-PVTZ AUX)
    Blend: AUG-CC-PVTZ-JKFIT

    Orbital Energies [Eh]
    ---------------------

    Doubly Occupied:

       1A   -104.861127     2A   -104.860614     3A   -104.860244
       4A    -11.334589     5A    -11.333933     6A    -11.333218
       7A    -11.277399     8A    -11.275831     9A    -11.274291
      10A    -10.584916    11A    -10.584447    12A    -10.584062
      13A     -8.051832    14A     -8.051360    15A     -8.050977
      16A     -8.049844    17A     -8.049835    18A     -8.049370
      19A     -8.049364    20A     -8.048996    21A     -8.048985
      22A     -1.235100    23A     -1.175819    24A     -1.174383
      25A     -1.093600    26A     -1.019123    27A     -1.016696
      28A     -0.841294    29A     -0.840726    30A     -0.725375
      31A     -0.699495    32A     -0.643358    33A     -0.615263
      34A     -0.614115    35A     -0.591152    36A     -0.549741
      37A     -0.548364    38A     -0.523505    39A     -0.522553
      40A     -0.479131    41A     -0.477740    42A     -0.464640
      43A     -0.453338    44A     -0.357643    45A     -0.356161

  @DF-RHF Final Energy: -1607.58108907586939

   => Energetics <=

    Nuclear Repulsion Energy =            614.6533642608857235
    One-Electron Energy =               -3437.2018092964667630
    Two-Electron Energy =                1214.9673559597117674
    Total Energy =                      -1607.5810890758693859
  Basis Set: (AUG-CC-PVTZ AUX)
    Blend: AUG-CC-PVTZ-RI
    Molecular point group: c1

    Geometry (in Angstrom), charge = 0, multiplicity = 1:

       Center              X                  Y                   Z               Mass
    ------------   -----------------  -----------------  -----------------  -----------------
         CL          -2.781672181324    -1.401110896145     0.000022577562    34.968852682000
         CL           0.090529818676     3.094390003855    -0.000079422438    34.968852682000
         CL           2.668580818676    -1.648085996145     0.000064577562    34.968852682000
         C           -1.202703181324    -0.680579996145    -0.000008422438    12.000000000000
         C            0.045963818676     1.359371003855    -0.000060422438    12.000000000000
         C            1.188284818676    -0.741985996145     0.000071577562    12.000000000000
         C           -1.190094181324     0.713830003855    -0.000040422438    12.000000000000
         C           -0.025616181324    -1.428267996145     0.000023577562    12.000000000000
         C            1.247260818676     0.651245003855    -0.000011422438    12.000000000000
         H           -2.115486181324     1.280274003855    -0.000022422438     1.007825032230
         H           -0.053473181324    -2.512901996145     0.000061577562     1.007825032230
         H            2.200512818676     1.169427003855    -0.000003422438     1.007825032230

  Basis Set: AUG-CC-PVTZ
    Blend: AUG-CC-PVTZ
  Basis Set: (AUG-CC-PVTZ AUX)
    Blend: AUG-CC-PVTZ-JKFIT
	 Reference Energy          =   -1607.5810890758693859 [Eh]
	 Singles Energy            =      -0.0000000000000000 [Eh]
	 Same-Spin Energy          =      -0.4511998439706657 [Eh]
	 Opposite-Spin Energy      =      -1.3061647668059981 [Eh]
	 Correlation Energy        =      -1.7573646107766638 [Eh]
	 Total Energy              =   -1609.3384536866460621 [Eh]

	 ================> DF-SCS-MP2 Energies <==================
	-----------------------------------------------------------
	 SCS Same-Spin Scale       =       0.3333333333333333 [-]
	 SCS Opposite-Spin Scale   =       1.2000000000000000 [-]
	 SCS Same-Spin Energy      =      -0.1503999479902219 [Eh]
	 SCS Opposite-Spin Energy  =      -1.5673977201671978 [Eh]
	 SCS Correlation Energy    =      -1.7177976681574196 [Eh]
	 SCS Total Energy          =   -1609.2988867440267313 [Eh]
	-----------------------------------------------------------

  Dipole Moment: [D]
     X:     0.0235      Y:    -0.0432      Z:     0.0000     Total:     0.0491

*** Psi4 exiting successfully. Buy a developer a beer!
