                               Psi4 1.4a3.dev225

  ==> Input File <==

--------------------------------------------------------------------------
#psi4
#
memory 32 gb

molecule  {
0 1
 Cl       -3.1169330    -0.0000020     0.0000000
 Cl        1.5584670     2.6993450     0.0000000
 Cl        1.5584650    -2.6993450     0.0000000
  C       -1.3808510     0.0000010     0.0000000
  C        0.6904270     1.1958530     0.0000000
  C        0.6904270    -1.1958530     0.0000000
  C       -0.7037920     1.2190070     0.0000000
  C       -0.7037920    -1.2190040     0.0000000
  C        1.4075860     0.0000000     0.0000000
  H       -1.2713691     2.2020752     0.0000000
  H       -1.2463710    -2.1587710     0.0000000
  H        2.4927370     0.0000050     0.0000000
units angstrom
no_reorient  #important for SAPT in psi4, default
symmetry c1  #important for SAPT in psi4, default
}

set PROPERTIES_ORIGIN ["COM"]
properties('MP2/aug-cc-pvtz', properties = ['dipole'])
--------------------------------------------------------------------------

    Molecular point group: c1
  Charge       = 0
  Multiplicity = 1
  Basis Set: AUG-CC-PVTZ
    Blend: AUG-CC-PVTZ
  Basis Set: (AUG-CC-PVTZ AUX)
    Blend: AUG-CC-PVTZ-JKFIT

    Orbital Energies [Eh]
    ---------------------

    Doubly Occupied:

       1A   -104.860738     2A   -104.860607     3A   -104.860607
       4A    -11.334251     5A    -11.334242     6A    -11.334011
       7A    -11.281068     8A    -11.276124     9A    -11.276098
      10A    -10.584531    11A    -10.584399    12A    -10.584398
      13A     -8.051446    14A     -8.051313    15A     -8.051312
      16A     -8.049462    17A     -8.049452    18A     -8.049329
      19A     -8.049328    20A     -8.049318    21A     -8.049318
      22A     -1.234870    23A     -1.174841    24A     -1.174708
      25A     -1.093595    26A     -1.018146    27A     -1.016028
      28A     -0.841202    29A     -0.838945    30A     -0.720409
      31A     -0.699527    32A     -0.642549    33A     -0.614788
      34A     -0.609595    35A     -0.591203    36A     -0.549112
      37A     -0.545939    38A     -0.522953    39A     -0.522882
      40A     -0.478572    41A     -0.478509    42A     -0.464916
      43A     -0.453421    44A     -0.357120    45A     -0.357034

  @DF-RHF Final Energy: -1607.57958514606639

   => Energetics <=

    Nuclear Repulsion Energy =            614.2042210308522954
    One-Electron Energy =               -3436.3231791377475020
    Two-Electron Energy =                1214.5393729608288140
    Total Energy =                      -1607.5795851460663926
  Basis Set: (AUG-CC-PVTZ AUX)
    Blend: AUG-CC-PVTZ-RI
    Molecular point group: c1

    Geometry (in Angstrom), charge = 0, multiplicity = 1:

       Center              X                  Y                   Z               Mass
    ------------   -----------------  -----------------  -----------------  -----------------
         CL          -3.116793091623    -0.000244461792     0.000000000000    34.968852682000
         CL           1.558606908377     2.699102538208     0.000000000000    34.968852682000
         CL           1.558604908377    -2.699587461792     0.000000000000    34.968852682000
         C           -1.380711091623    -0.000241461792     0.000000000000    12.000000000000
         C            0.690566908377     1.195610538208     0.000000000000    12.000000000000
         C            0.690566908377    -1.196095461792     0.000000000000    12.000000000000
         C           -0.703652091623     1.218764538208     0.000000000000    12.000000000000
         C           -0.703652091623    -1.219246461792     0.000000000000    12.000000000000
         C            1.407725908377    -0.000242461792     0.000000000000    12.000000000000
         H           -1.271229191623     2.201832738208     0.000000000000     1.007825032230
         H           -1.246231091623    -2.159013461791     0.000000000000     1.007825032230
         H            2.492876908377    -0.000237461792     0.000000000000     1.007825032230

  Basis Set: AUG-CC-PVTZ
    Blend: AUG-CC-PVTZ
  Basis Set: (AUG-CC-PVTZ AUX)
    Blend: AUG-CC-PVTZ-JKFIT
	 Reference Energy          =   -1607.5795851460663926 [Eh]
	 Singles Energy            =      -0.0000000000000000 [Eh]
	 Same-Spin Energy          =      -0.4512998339088282 [Eh]
	 Opposite-Spin Energy      =      -1.3064640695002778 [Eh]
	 Correlation Energy        =      -1.7577639034091059 [Eh]
	 Total Energy              =   -1609.3373490494755060 [Eh]

	 ================> DF-SCS-MP2 Energies <==================
	-----------------------------------------------------------
	 SCS Same-Spin Scale       =       0.3333333333333333 [-]
	 SCS Opposite-Spin Scale   =       1.2000000000000000 [-]
	 SCS Same-Spin Energy      =      -0.1504332779696094 [Eh]
	 SCS Opposite-Spin Energy  =      -1.5677568834003333 [Eh]
	 SCS Correlation Energy    =      -1.7181901613699426 [Eh]
	 SCS Total Energy          =   -1609.2977753074362681 [Eh]
	-----------------------------------------------------------

  Dipole Moment: [D]
     X:    -0.0052      Y:     0.0090      Z:    -0.0000     Total:     0.0104

*** Psi4 exiting successfully. Buy a developer a beer!
