                               Psi4 1.3.2 release

  ==> Input File <==

--------------------------------------------------------------------------
#psi4
#
memory 32 gb

molecule  {
0 1
 Cl       -2.7380800    -1.4884340     0.0000240
 Cl        0.0800140     3.1154550    -0.0000800
 Cl        2.6580650    -1.6270210     0.0000640
  C       -1.2132190    -0.6595150    -0.0000090
  C        0.0354480     1.3804360    -0.0000610
  C        1.1777690    -0.7209210     0.0000710
  C       -1.2492819     0.7344856    -0.0000416
  C       -0.0361320    -1.4072030     0.0000230
  C        1.2367450     0.6723100    -0.0000120
  H       -2.1260020     1.3013390    -0.0000230
  H       -0.0639890    -2.4918370     0.0000610
  H        2.1899970     1.1904920    -0.0000040
units angstrom
no_reorient  #important for SAPT in psi4, default
symmetry c1  #important for SAPT in psi4, default
}

set PROPERTIES_ORIGIN ["COM"]
properties('MP2/aug-cc-pvtz', properties = ['dipole'])
--------------------------------------------------------------------------

    Molecular point group: c1
  Charge       = 0
  Multiplicity = 1
  Basis Set: AUG-CC-PVTZ
    Blend: AUG-CC-PVTZ
  Basis Set: (AUG-CC-PVTZ AUX)
    Blend: AUG-CC-PVTZ-JKFIT

    Orbital Energies [Eh]
    ---------------------

    Doubly Occupied:

       1A   -104.861477     2A   -104.860807     3A   -104.858442
       4A    -11.339091     5A    -11.335407     6A    -11.334769
       7A    -11.277617     8A    -11.276114     9A    -11.275900
      10A    -10.585278    11A    -10.584623    12A    -10.582425
      13A     -8.052191    14A     -8.051534    15A     -8.050209
      16A     -8.050194    17A     -8.049561    18A     -8.049545
      19A     -8.049337    20A     -8.047357    21A     -8.047349
      22A     -1.232823    23A     -1.175525    24A     -1.173868
      25A     -1.091670    26A     -1.018530    27A     -1.016189
      28A     -0.844353    29A     -0.835678    30A     -0.730304
      31A     -0.696945    32A     -0.645253    33A     -0.620520
      34A     -0.614276    35A     -0.589215    36A     -0.554832
      37A     -0.544752    38A     -0.522971    39A     -0.522293
      40A     -0.478209    41A     -0.477716    42A     -0.463729
      43A     -0.452153    44A     -0.358380    45A     -0.353460

  @DF-RHF Final Energy: -1607.57848128707474

   => Energetics <=

    Nuclear Repulsion Energy =            613.8246595947762216
    One-Electron Energy =               -3435.5405331700817442
    Two-Electron Energy =                1214.1373922882307852
    Total Energy =                      -1607.5784812870747373
  Basis Set: (AUG-CC-PVTZ AUX)
    Blend: AUG-CC-PVTZ-RI
    Molecular point group: c1

    Geometry (in Angstrom), charge = 0, multiplicity = 1:

       Center              X                  Y                   Z               Mass
    ------------   -----------------  -----------------  -----------------  -----------------
         CL          -2.734833850862    -1.488406795831     0.000024228884    34.968852682000
         CL           0.083260149138     3.115482204169    -0.000079771116    34.968852682000
         CL           2.661311149138    -1.626993795831     0.000064228884    34.968852682000
         C           -1.209972850862    -0.659487795831    -0.000008771116    12.000000000000
         C            0.038694149138     1.380463204169    -0.000060771116    12.000000000000
         C            1.181015149138    -0.720893795831     0.000071228884    12.000000000000
         C           -1.246035750862     0.734512804169    -0.000041371116    12.000000000000
         C           -0.032885850862    -1.407175795831     0.000023228884    12.000000000000
         C            1.239991149138     0.672337204169    -0.000011771116    12.000000000000
         H           -2.122755850862     1.301366204169    -0.000022771116     1.007825032230
         H           -0.060742850862    -2.491809795831     0.000061228884     1.007825032230
         H            2.193243149138     1.190519204169    -0.000003771116     1.007825032230

  Basis Set: AUG-CC-PVTZ
    Blend: AUG-CC-PVTZ
  Basis Set: (AUG-CC-PVTZ AUX)
    Blend: AUG-CC-PVTZ-JKFIT
	 Reference Energy          =   -1607.5784812870747373 [Eh]
	 Singles Energy            =      -0.0000000000000000 [Eh]
	 Same-Spin Energy          =      -0.4511922449893098 [Eh]
	 Opposite-Spin Energy      =      -1.3064685000222411 [Eh]
	 Correlation Energy        =      -1.7576607450115509 [Eh]
	 Total Energy              =   -1609.3361420320863999 [Eh]

	 ================> DF-SCS-MP2 Energies <==================
	-----------------------------------------------------------
	 SCS Same-Spin Scale       =       0.3333333333333333 [-]
	 SCS Opposite-Spin Scale   =       1.2000000000000000 [-]
	 SCS Same-Spin Energy      =      -0.1503974149964366 [Eh]
	 SCS Opposite-Spin Energy  =      -1.5677622000266893 [Eh]
	 SCS Correlation Energy    =      -1.7181596150231260 [Eh]
	 SCS Total Energy          =   -1609.2966409020978062 [Eh]
	-----------------------------------------------------------

  Dipole Moment: [D]
     X:     0.0589      Y:     0.0349      Z:     0.0000     Total:     0.0685

*** Psi4 exiting successfully. Buy a developer a beer!
