                               Psi4 1.3.2 release

  ==> Input File <==

--------------------------------------------------------------------------
#psi4
#
memory 32 gb

molecule  {
0 1
 Cl       -2.7380800    -1.4884340     0.0000240
 Cl        0.0800140     3.1154550    -0.0000800
 Cl        2.6580650    -1.6270210     0.0000640
  C       -1.2132190    -0.6595150    -0.0000090
  C        0.0354480     1.3804360    -0.0000610
  C        1.1777690    -0.7209210     0.0000710
  C       -1.2979098     0.7323778    -0.0000422
  C       -0.0361320    -1.4072030     0.0000230
  C        1.2367450     0.6723100    -0.0000120
  H       -2.1260020     1.3013390    -0.0000230
  H       -0.0639890    -2.4918370     0.0000610
  H        2.1899970     1.1904920    -0.0000040
units angstrom
no_reorient  #important for SAPT in psi4, default
symmetry c1  #important for SAPT in psi4, default
}

set PROPERTIES_ORIGIN ["COM"]
properties('MP2/aug-cc-pvtz', properties = ['dipole'])
--------------------------------------------------------------------------

    Molecular point group: c1
  Charge       = 0
  Multiplicity = 1
  Basis Set: AUG-CC-PVTZ
    Blend: AUG-CC-PVTZ
  Basis Set: (AUG-CC-PVTZ AUX)
    Blend: AUG-CC-PVTZ-JKFIT

    Orbital Energies [Eh]
    ---------------------

    Doubly Occupied:

       1A   -104.862317     2A   -104.860947     3A   -104.856194
       4A    -11.343790     5A    -11.336941     6A    -11.335910
       7A    -11.279465     8A    -11.276385     9A    -11.276034
      10A    -10.586114    11A    -10.584767    12A    -10.580361
      13A     -8.053024    14A     -8.051673    15A     -8.051044
      16A     -8.051025    17A     -8.049712    18A     -8.049689
      19A     -8.047268    20A     -8.045291    21A     -8.045288
      22A     -1.231069    23A     -1.176117    24A     -1.172849
      25A     -1.090004    26A     -1.018967    27A     -1.014896
      28A     -0.848003    29A     -0.831107    30A     -0.735980
      31A     -0.694775    32A     -0.648707    33A     -0.623910
      34A     -0.613982    35A     -0.587641    36A     -0.559032
      37A     -0.540220    38A     -0.523000    39A     -0.521675
      40A     -0.477832    41A     -0.477045    42A     -0.461811
      43A     -0.451070    44A     -0.359890    45A     -0.350238

  @DF-RHF Final Energy: -1607.56847342461742

   => Energetics <=

    Nuclear Repulsion Energy =            613.1438695159858980
    One-Electron Energy =               -3434.1585661018034443
    Two-Electron Energy =                1213.4462231612001233
    Total Energy =                      -1607.5684734246174230
  Basis Set: (AUG-CC-PVTZ AUX)
    Blend: AUG-CC-PVTZ-RI
    Molecular point group: c1

    Geometry (in Angstrom), charge = 0, multiplicity = 1:

       Center              X                  Y                   Z               Mass
    ------------   -----------------  -----------------  -----------------  -----------------
         CL          -2.731590730246    -1.488266221189     0.000024268900    34.968852682000
         CL           0.086503269754     3.115622778811    -0.000079731100    34.968852682000
         CL           2.664554269754    -1.626853221189     0.000064268900    34.968852682000
         C           -1.206729730246    -0.659347221189    -0.000008731100    12.000000000000
         C            0.041937269754     1.380603778811    -0.000060731100    12.000000000000
         C            1.184258269754    -0.720753221189     0.000071268900    12.000000000000
         C           -1.291420530246     0.732545578811    -0.000041931100    12.000000000000
         C           -0.029642730246    -1.407035221189     0.000023268900    12.000000000000
         C            1.243234269754     0.672477778811    -0.000011731100    12.000000000000
         H           -2.119512730246     1.301506778811    -0.000022731100     1.007825032230
         H           -0.057499730246    -2.491669221189     0.000061268900     1.007825032230
         H            2.196486269754     1.190659778811    -0.000003731100     1.007825032230

  Basis Set: AUG-CC-PVTZ
    Blend: AUG-CC-PVTZ
  Basis Set: (AUG-CC-PVTZ AUX)
    Blend: AUG-CC-PVTZ-JKFIT
	 Reference Energy          =   -1607.5684734246174230 [Eh]
	 Singles Energy            =      -0.0000000000000000 [Eh]
	 Same-Spin Energy          =      -0.4513068280916633 [Eh]
	 Opposite-Spin Energy      =      -1.3072086711424706 [Eh]
	 Correlation Energy        =      -1.7585154992341341 [Eh]
	 Total Energy              =   -1609.3269889238515589 [Eh]

	 ================> DF-SCS-MP2 Energies <==================
	-----------------------------------------------------------
	 SCS Same-Spin Scale       =       0.3333333333333333 [-]
	 SCS Opposite-Spin Scale   =       1.2000000000000000 [-]
	 SCS Same-Spin Energy      =      -0.1504356093638878 [Eh]
	 SCS Opposite-Spin Energy  =      -1.5686504053709647 [Eh]
	 SCS Correlation Energy    =      -1.7190860147348523 [Eh]
	 SCS Total Energy          =   -1609.2875594393522078 [Eh]
	-----------------------------------------------------------

  Dipole Moment: [D]
     X:     0.1203      Y:     0.0646      Z:     0.0000     Total:     0.1365

*** Psi4 exiting successfully. Buy a developer a beer!
