                               Psi4 1.4a3.dev225

  ==> Input File <==

--------------------------------------------------------------------------
#psi4
#
memory 32 gb

molecule  {
0 1
 Cl       -3.1169330    -0.0000020     0.0000000
 Cl        1.5584670     2.6993450     0.0000000
 Cl        1.5584650    -2.6993450     0.0000000
  C       -1.3308510     0.0000011     0.0000000
  C        0.6904270     1.1958530     0.0000000
  C        0.6904270    -1.1958530     0.0000000
  C       -0.7037920     1.2190070     0.0000000
  C       -0.7037920    -1.2190040     0.0000000
  C        1.4075860     0.0000000     0.0000000
  H       -1.2463690     2.1587740     0.0000000
  H       -1.2463710    -2.1587710     0.0000000
  H        2.4927370     0.0000050     0.0000000
units angstrom
no_reorient  #important for SAPT in psi4, default
symmetry c1  #important for SAPT in psi4, default
}

set PROPERTIES_ORIGIN ["COM"]
properties('MP2/aug-cc-pvtz', properties = ['dipole'])
--------------------------------------------------------------------------

    Molecular point group: c1
  Charge       = 0
  Multiplicity = 1
  Basis Set: AUG-CC-PVTZ
    Blend: AUG-CC-PVTZ
  Basis Set: (AUG-CC-PVTZ AUX)
    Blend: AUG-CC-PVTZ-JKFIT

    Orbital Energies [Eh]
    ---------------------

    Doubly Occupied:

       1A   -104.861890     2A   -104.861890     3A   -104.854686
       4A    -11.335930     5A    -11.335923     6A    -11.333065
       7A    -11.277120     8A    -11.275619     9A    -11.275588
      10A    -10.585702    11A    -10.585701    12A    -10.577897
      13A     -8.052614    14A     -8.052613    15A     -8.050634
      16A     -8.050633    17A     -8.050619    18A     -8.050618
      19A     -8.044699    20A     -8.042859    21A     -8.042855
      22A     -1.238604    23A     -1.176678    24A     -1.166999
      25A     -1.093145    26A     -1.024154    27A     -1.020459
      28A     -0.844179    29A     -0.841851    30A     -0.729482
      31A     -0.703202    32A     -0.639605    33A     -0.621447
      34A     -0.613293    35A     -0.593949    36A     -0.552722
      37A     -0.540091    38A     -0.524290    39A     -0.517599
      40A     -0.478679    41A     -0.476578    42A     -0.464542
      43A     -0.454662    44A     -0.362333    45A     -0.359432

  @DF-RHF Final Energy: -1607.58096201790067

   => Energetics <=

    Nuclear Repulsion Energy =            614.7599113534125763
    One-Electron Energy =               -3437.4074864406316010
    Two-Electron Energy =                1215.0666130693184641
    Total Energy =                      -1607.5809620179006743
  Basis Set: (AUG-CC-PVTZ AUX)
    Blend: AUG-CC-PVTZ-RI
    Molecular point group: c1

    Geometry (in Angstrom), charge = 0, multiplicity = 1:

       Center              X                  Y                   Z               Mass
    ------------   -----------------  -----------------  -----------------  -----------------
         CL          -3.120267751832    -0.000001929555     0.000000000000    34.968852682000
         CL           1.555132248168     2.699345070445     0.000000000000    34.968852682000
         CL           1.555130248168    -2.699344929555     0.000000000000    34.968852682000
         C           -1.334185751832     0.000001170445     0.000000000000    12.000000000000
         C            0.687092248168     1.195853070445     0.000000000000    12.000000000000
         C            0.687092248168    -1.195852929555     0.000000000000    12.000000000000
         C           -0.707126751832     1.219007070445     0.000000000000    12.000000000000
         C           -0.707126751832    -1.219003929555     0.000000000000    12.000000000000
         C            1.404251248168     0.000000070445     0.000000000000    12.000000000000
         H           -1.249703751832     2.158774070445     0.000000000000     1.007825032230
         H           -1.249705751832    -2.158770929555     0.000000000000     1.007825032230
         H            2.489402248168     0.000005070445     0.000000000000     1.007825032230

  Basis Set: AUG-CC-PVTZ
    Blend: AUG-CC-PVTZ
  Basis Set: (AUG-CC-PVTZ AUX)
    Blend: AUG-CC-PVTZ-JKFIT
	 Reference Energy          =   -1607.5809620179006743 [Eh]
	 Singles Energy            =      -0.0000000000000000 [Eh]
	 Same-Spin Energy          =      -0.4508236481154507 [Eh]
	 Opposite-Spin Energy      =      -1.3056313219641664 [Eh]
	 Correlation Energy        =      -1.7564549700796173 [Eh]
	 Total Energy              =   -1609.3374169879803048 [Eh]

	 ================> DF-SCS-MP2 Energies <==================
	-----------------------------------------------------------
	 SCS Same-Spin Scale       =       0.3333333333333333 [-]
	 SCS Opposite-Spin Scale   =       1.2000000000000000 [-]
	 SCS Same-Spin Energy      =      -0.1502745493718169 [Eh]
	 SCS Opposite-Spin Energy  =      -1.5667575863569996 [Eh]
	 SCS Correlation Energy    =      -1.7170321357288165 [Eh]
	 SCS Total Energy          =   -1609.2979941536295883 [Eh]
	-----------------------------------------------------------

  Dipole Moment: [D]
     X:     0.2826      Y:    -0.0000      Z:    -0.0000     Total:     0.2826

*** Psi4 exiting successfully. Buy a developer a beer!
