                               Psi4 1.3.2 release

  ==> Input File <==

--------------------------------------------------------------------------
#psi4
#
memory 32 gb

molecule  {
0 1
 Cl       -2.7380800    -1.4884340     0.0000240
 Cl        0.0800140     3.1154550    -0.0000800
 Cl        2.6580650    -1.6270210     0.0000640
  C       -1.1253611    -0.6117552    -0.0000109
  C        0.0354480     1.3804360    -0.0000610
  C        1.1777690    -0.7209210     0.0000710
  C       -1.2006100     0.7348950    -0.0000410
  C       -0.0361320    -1.4072030     0.0000230
  C        1.2367450     0.6723100    -0.0000120
  H       -2.1260020     1.3013390    -0.0000230
  H       -0.0639890    -2.4918370     0.0000610
  H        2.1899970     1.1904920    -0.0000040
units angstrom
no_reorient  #important for SAPT in psi4, default
symmetry c1  #important for SAPT in psi4, default
}

set PROPERTIES_ORIGIN ["COM"]
properties('MP2/aug-cc-pvtz', properties = ['dipole'])
--------------------------------------------------------------------------

    Molecular point group: c1
  Charge       = 0
  Multiplicity = 1
  Basis Set: AUG-CC-PVTZ
    Blend: AUG-CC-PVTZ
  Basis Set: (AUG-CC-PVTZ AUX)
    Blend: AUG-CC-PVTZ-JKFIT

    Orbital Energies [Eh]
    ---------------------

    Doubly Occupied:

       1A   -104.863181     2A   -104.863181     3A   -104.847905
       4A    -11.338067     5A    -11.338060     6A    -11.332900
       7A    -11.278308     8A    -11.275623     9A    -11.275587
      10A    -10.587020    11A    -10.587020    12A    -10.570743
      13A     -8.053930    14A     -8.053930    15A     -8.051951
      16A     -8.051951    17A     -8.051931    18A     -8.051931
      19A     -8.037448    20A     -8.035735    21A     -8.035720
      22A     -1.243402    23A     -1.178809    24A     -1.161892
      25A     -1.090910    26A     -1.030896    27A     -1.022262
      28A     -0.847277    29A     -0.842589    30A     -0.733758
      31A     -0.707525    32A     -0.638338    33A     -0.628607
      34A     -0.611692    35A     -0.597585    36A     -0.556569
      37A     -0.529578    38A     -0.525824    39A     -0.513370
      40A     -0.478273    41A     -0.475310    42A     -0.462214
      43A     -0.454969    44A     -0.367154    45A     -0.362047

  @DF-RHF Final Energy: -1607.57501612140641

   => Energetics <=

    Nuclear Repulsion Energy =            615.1543910944167237
    One-Electron Energy =               -3438.1728711339214897
    Two-Electron Energy =                1215.4434639180981321
    Total Energy =                      -1607.5750161214064065
  Basis Set: (AUG-CC-PVTZ AUX)
    Blend: AUG-CC-PVTZ-RI
    Molecular point group: c1

    Geometry (in Angstrom), charge = 0, multiplicity = 1:

       Center              X                  Y                   Z               Mass
    ------------   -----------------  -----------------  -----------------  -----------------
         CL          -2.743939376890    -1.491619324557     0.000024315584    34.968852682000
         CL           0.074154623110     3.112269675443    -0.000079684416    34.968852682000
         CL           2.652205623110    -1.630206324557     0.000064315584    34.968852682000
         C           -1.131220476890    -0.614940524557    -0.000010584416    12.000000000000
         C            0.029588623110     1.377250675443    -0.000060684416    12.000000000000
         C            1.171909623110    -0.724106324557     0.000071315584    12.000000000000
         C           -1.206469376890     0.731709675443    -0.000040684416    12.000000000000
         C           -0.041991376890    -1.410388324557     0.000023315584    12.000000000000
         C            1.230885623110     0.669124675443    -0.000011684416    12.000000000000
         H           -2.131861376890     1.298153675443    -0.000022684416     1.007825032230
         H           -0.069848376890    -2.495022324557     0.000061315584     1.007825032230
         H            2.184137623110     1.187306675443    -0.000003684416     1.007825032230

  Basis Set: AUG-CC-PVTZ
    Blend: AUG-CC-PVTZ
  Basis Set: (AUG-CC-PVTZ AUX)
    Blend: AUG-CC-PVTZ-JKFIT
	 Reference Energy          =   -1607.5750161214064065 [Eh]
	 Singles Energy            =      -0.0000000000000000 [Eh]
	 Same-Spin Energy          =      -0.4507573791262314 [Eh]
	 Opposite-Spin Energy      =      -1.3055263343522148 [Eh]
	 Correlation Energy        =      -1.7562837134784461 [Eh]
	 Total Energy              =   -1609.3312998348849305 [Eh]

	 ================> DF-SCS-MP2 Energies <==================
	-----------------------------------------------------------
	 SCS Same-Spin Scale       =       0.3333333333333333 [-]
	 SCS Opposite-Spin Scale   =       1.2000000000000000 [-]
	 SCS Same-Spin Energy      =      -0.1502524597087438 [Eh]
	 SCS Opposite-Spin Energy  =      -1.5666316012226578 [Eh]
	 SCS Correlation Energy    =      -1.7168840609314016 [Eh]
	 SCS Total Energy          =   -1609.2919001823377130 [Eh]
	-----------------------------------------------------------

  Dipole Moment: [D]
     X:     0.5031      Y:     0.2735      Z:     0.0000     Total:     0.5726

*** Psi4 exiting successfully. Buy a developer a beer!
