                               Psi4 1.4a3.dev225

  ==> Input File <==

--------------------------------------------------------------------------
#psi4
#
memory 32 gb

molecule  {
0 1
 Cl       -3.1169330    -0.0000020     0.0000000
 Cl        1.5584670     2.6993450     0.0000000
 Cl        1.5584650    -2.6993450     0.0000000
  C       -1.3808510     0.0000010     0.0000000
  C        0.6904270     1.1958530     0.0000000
  C        0.6904270    -1.1958530     0.0000000
  C       -0.7037920     1.2190070     0.0000000
  C       -0.7037920    -1.2190040     0.0000000
  C        1.4075860     0.0000000     0.0000000
  H       -1.2563690     2.1760945     0.0000000
  H       -1.2463710    -2.1587710     0.0000000
  H        2.4927370     0.0000050     0.0000000
units angstrom
no_reorient  #important for SAPT in psi4, default
symmetry c1  #important for SAPT in psi4, default
}

set PROPERTIES_ORIGIN ["COM"]
properties('MP2/aug-cc-pvtz', properties = ['dipole'])
--------------------------------------------------------------------------

    Molecular point group: c1
  Charge       = 0
  Multiplicity = 1
  Basis Set: AUG-CC-PVTZ
    Blend: AUG-CC-PVTZ
  Basis Set: (AUG-CC-PVTZ AUX)
    Blend: AUG-CC-PVTZ-JKFIT

    Orbital Energies [Eh]
    ---------------------

    Doubly Occupied:

       1A   -104.860722     2A   -104.860671     3A   -104.860671
       4A    -11.334096     5A    -11.334088     6A    -11.334000
       7A    -11.278001     8A    -11.275999     9A    -11.275973
      10A    -10.584514    11A    -10.584463    12A    -10.584463
      13A     -8.051429    14A     -8.051377    15A     -8.051377
      16A     -8.049446    17A     -8.049436    18A     -8.049394
      19A     -8.049393    20A     -8.049384    21A     -8.049383
      22A     -1.234940    23A     -1.174870    24A     -1.174812
      25A     -1.093606    26A     -1.018081    27A     -1.017186
      28A     -0.841096    29A     -0.840144    30A     -0.723276
      31A     -0.699468    32A     -0.642951    33A     -0.614739
      34A     -0.612692    35A     -0.591148    36A     -0.549047
      37A     -0.547859    38A     -0.522953    39A     -0.522925
      40A     -0.478558    41A     -0.478536    42A     -0.464928
      43A     -0.453418    44A     -0.357054    45A     -0.357016

  @DF-RHF Final Energy: -1607.58149461317748

   => Energetics <=

    Nuclear Repulsion Energy =            614.3666522483399604
    One-Electron Energy =               -3436.6371234986786476
    Two-Electron Energy =                1214.6889766371612041
    Total Energy =                      -1607.5814946131774832
  Basis Set: (AUG-CC-PVTZ AUX)
    Blend: AUG-CC-PVTZ-RI
    Molecular point group: c1

    Geometry (in Angstrom), charge = 0, multiplicity = 1:

       Center              X                  Y                   Z               Mass
    ------------   -----------------  -----------------  -----------------  -----------------
         CL          -3.116877110261    -0.000098938560     0.000000000000    34.968852682000
         CL           1.558522889739     2.699248061440     0.000000000000    34.968852682000
         CL           1.558520889739    -2.699441938560     0.000000000000    34.968852682000
         C           -1.380795110261    -0.000095938560     0.000000000000    12.000000000000
         C            0.690482889739     1.195756061440     0.000000000000    12.000000000000
         C            0.690482889739    -1.195949938560     0.000000000000    12.000000000000
         C           -0.703736110261     1.218910061440     0.000000000000    12.000000000000
         C           -0.703736110261    -1.219100938560     0.000000000000    12.000000000000
         C            1.407641889739    -0.000096938560     0.000000000000    12.000000000000
         H           -1.256313110261     2.175997561440     0.000000000000     1.007825032230
         H           -1.246315110261    -2.158867938560     0.000000000000     1.007825032230
         H            2.492792889739    -0.000091938560     0.000000000000     1.007825032230

  Basis Set: AUG-CC-PVTZ
    Blend: AUG-CC-PVTZ
  Basis Set: (AUG-CC-PVTZ AUX)
    Blend: AUG-CC-PVTZ-JKFIT
	 Reference Energy          =   -1607.5814946131774832 [Eh]
	 Singles Energy            =      -0.0000000000000000 [Eh]
	 Same-Spin Energy          =      -0.4511980416500186 [Eh]
	 Opposite-Spin Energy      =      -1.3062141302772123 [Eh]
	 Correlation Energy        =      -1.7574121719272309 [Eh]
	 Total Energy              =   -1609.3389067851046548 [Eh]

	 ================> DF-SCS-MP2 Energies <==================
	-----------------------------------------------------------
	 SCS Same-Spin Scale       =       0.3333333333333333 [-]
	 SCS Opposite-Spin Scale   =       1.2000000000000000 [-]
	 SCS Same-Spin Energy      =      -0.1503993472166729 [Eh]
	 SCS Opposite-Spin Energy  =      -1.5674569563326548 [Eh]
	 SCS Correlation Energy    =      -1.7178563035493277 [Eh]
	 SCS Total Energy          =   -1609.2993509167267803 [Eh]
	-----------------------------------------------------------

  Dipole Moment: [D]
     X:    -0.0022      Y:     0.0038      Z:    -0.0000     Total:     0.0044

*** Psi4 exiting successfully. Buy a developer a beer!
