                               Psi4 1.4a3.dev225

  ==> Input File <==

--------------------------------------------------------------------------
#psi4
#
memory 32 gb

molecule  {
0 1
 Cl       -3.1169330    -0.0000020     0.0000000
 Cl        1.5584670     2.6993450     0.0000000
 Cl        1.5584650    -2.6993450     0.0000000
  C       -1.3808510     0.0000010     0.0000000
  C        0.6904270     1.1958530     0.0000000
  C        0.6904270    -1.1958530     0.0000000
  C       -0.7037920     1.2190070     0.0000000
  C       -0.7037920    -1.2190040     0.0000000
  C        1.4075860     0.0000000     0.0000000
  H       -1.2213689     2.1154728     0.0000000
  H       -1.2463710    -2.1587710     0.0000000
  H        2.4927370     0.0000050     0.0000000
units angstrom
no_reorient  #important for SAPT in psi4, default
symmetry c1  #important for SAPT in psi4, default
}

set PROPERTIES_ORIGIN ["COM"]
properties('MP2/aug-cc-pvtz', properties = ['dipole'])
--------------------------------------------------------------------------

    Molecular point group: c1
  Charge       = 0
  Multiplicity = 1
  Basis Set: AUG-CC-PVTZ
    Blend: AUG-CC-PVTZ
  Basis Set: (AUG-CC-PVTZ AUX)
    Blend: AUG-CC-PVTZ-JKFIT

    Orbital Energies [Eh]
    ---------------------

    Doubly Occupied:

       1A   -104.860828     2A   -104.860828     3A   -104.860710
       4A    -11.334015     5A    -11.333801     6A    -11.333795
       7A    -11.275736     8A    -11.275710     9A    -11.270527
      10A    -10.584621    11A    -10.584621    12A    -10.584503
      13A     -8.051537    14A     -8.051537    15A     -8.051417
      16A     -8.049554    17A     -8.049554    18A     -8.049544
      19A     -8.049544    20A     -8.049434    21A     -8.049424
      22A     -1.235195    23A     -1.175126    24A     -1.174950
      25A     -1.093679    26A     -1.020501    27A     -1.017954
      28A     -0.843600    29A     -0.840886    30A     -0.730959
      31A     -0.699372    32A     -0.644254    33A     -0.619438
      34A     -0.614645    35A     -0.591051    36A     -0.551487
      37A     -0.548927    38A     -0.523032    39A     -0.522972
      40A     -0.478585    41A     -0.478544    42A     -0.464968
      43A     -0.453430    44A     -0.357032    45A     -0.356918

  @DF-RHF Final Energy: -1607.58148123327055

   => Energetics <=

    Nuclear Repulsion Energy =            614.7650121174337983
    One-Electron Energy =               -3437.3954974403850429
    Two-Electron Energy =                1215.0490040896806931
    Total Energy =                      -1607.5814812332705515
  Basis Set: (AUG-CC-PVTZ AUX)
    Blend: AUG-CC-PVTZ-RI
    Molecular point group: c1

    Geometry (in Angstrom), charge = 0, multiplicity = 1:

       Center              X                  Y                   Z               Mass
    ------------   -----------------  -----------------  -----------------  -----------------
         CL          -3.117073153002     0.000240616019     0.000000000000    34.968852682000
         CL           1.558326846998     2.699587616019     0.000000000000    34.968852682000
         CL           1.558324846998    -2.699102383981     0.000000000000    34.968852682000
         C           -1.380991153002     0.000243616019     0.000000000000    12.000000000000
         C            0.690286846998     1.196095616019     0.000000000000    12.000000000000
         C            0.690286846998    -1.195610383981     0.000000000000    12.000000000000
         C           -0.703932153002     1.219249616019     0.000000000000    12.000000000000
         C           -0.703932153002    -1.218761383981     0.000000000000    12.000000000000
         C            1.407445846998     0.000242616019     0.000000000000    12.000000000000
         H           -1.221509053002     2.115715416019     0.000000000000     1.007825032230
         H           -1.246511153002    -2.158528383981     0.000000000000     1.007825032230
         H            2.492596846998     0.000247616019     0.000000000000     1.007825032230

  Basis Set: AUG-CC-PVTZ
    Blend: AUG-CC-PVTZ
  Basis Set: (AUG-CC-PVTZ AUX)
    Blend: AUG-CC-PVTZ-JKFIT
	 Reference Energy          =   -1607.5814812332705515 [Eh]
	 Singles Energy            =      -0.0000000000000000 [Eh]
	 Same-Spin Energy          =      -0.4509919475904883 [Eh]
	 Opposite-Spin Energy      =      -1.3057830438894409 [Eh]
	 Correlation Energy        =      -1.7567749914799293 [Eh]
	 Total Energy              =   -1609.3382562247504666 [Eh]

	 ================> DF-SCS-MP2 Energies <==================
	-----------------------------------------------------------
	 SCS Same-Spin Scale       =       0.3333333333333333 [-]
	 SCS Opposite-Spin Scale   =       1.2000000000000000 [-]
	 SCS Same-Spin Energy      =      -0.1503306491968294 [Eh]
	 SCS Opposite-Spin Energy  =      -1.5669396526673289 [Eh]
	 SCS Correlation Energy    =      -1.7172703018641584 [Eh]
	 SCS Total Energy          =   -1609.2987515351346701 [Eh]
	-----------------------------------------------------------

  Dipole Moment: [D]
     X:     0.0060      Y:    -0.0105      Z:    -0.0000     Total:     0.0121

*** Psi4 exiting successfully. Buy a developer a beer!
