                               Psi4 1.3.2 release

  ==> Input File <==

--------------------------------------------------------------------------
#psi4
#
memory 32 gb

molecule  {
0 1
 Cl       -2.7380800    -1.4884340     0.0000240
 Cl        0.0800140     3.1154550    -0.0000800
 Cl        2.6580650    -1.6270210     0.0000640
  C       -1.2132190    -0.6595150    -0.0000090
  C        0.0354480     1.3804360    -0.0000610
  C        1.1777690    -0.7209210     0.0000710
  C       -1.1519535     0.7336055    -0.0000404
  C       -0.0361320    -1.4072030     0.0000230
  C        1.2367450     0.6723100    -0.0000120
  H       -2.1260020     1.3013390    -0.0000230
  H       -0.0639890    -2.4918370     0.0000610
  H        2.1899970     1.1904920    -0.0000040
units angstrom
no_reorient  #important for SAPT in psi4, default
symmetry c1  #important for SAPT in psi4, default
}

set PROPERTIES_ORIGIN ["COM"]
properties('MP2/aug-cc-pvtz', properties = ['dipole'])
--------------------------------------------------------------------------

    Molecular point group: c1
  Charge       = 0
  Multiplicity = 1
  Basis Set: AUG-CC-PVTZ
    Blend: AUG-CC-PVTZ
  Basis Set: (AUG-CC-PVTZ AUX)
    Blend: AUG-CC-PVTZ-JKFIT

    Orbital Energies [Eh]
    ---------------------

    Doubly Occupied:

       1A   -104.862944     2A   -104.860654     3A   -104.860001
       4A    -11.333437     5A    -11.332575     6A    -11.328489
       7A    -11.275888     8A    -11.275630     9A    -11.274137
      10A    -10.586573    11A    -10.584439    12A    -10.583805
      13A     -8.053492    14A     -8.051500    15A     -8.051489
      16A     -8.051358    17A     -8.050724    18A     -8.049361
      19A     -8.049356    20A     -8.048737    21A     -8.048731
      22A     -1.237734    23A     -1.176308    24A     -1.174581
      25A     -1.095839    26A     -1.020295    27A     -1.017345
      28A     -0.846817    29A     -0.837921    30A     -0.721160
      31A     -0.701915    32A     -0.642848    33A     -0.615396
      34A     -0.607880    35A     -0.593411    36A     -0.553095
      37A     -0.541231    38A     -0.523861    39A     -0.523118
      40A     -0.479453    41A     -0.478812    42A     -0.465561
      43A     -0.454732    44A     -0.360635    45A     -0.355586

  @DF-RHF Final Energy: -1607.57941007093382

   => Energetics <=

    Nuclear Repulsion Energy =            615.2947444387795031
    One-Electron Energy =               -3438.4706085226748655
    Two-Electron Energy =                1215.5964540129614306
    Total Energy =                      -1607.5794100709338181
  Basis Set: (AUG-CC-PVTZ AUX)
    Blend: AUG-CC-PVTZ-RI
    Molecular point group: c1

    Geometry (in Angstrom), charge = 0, multiplicity = 1:

       Center              X                  Y                   Z               Mass
    ------------   -----------------  -----------------  -----------------  -----------------
         CL          -2.741324933977    -1.488348099683     0.000024148853    34.968852682000
         CL           0.076769066023     3.115540900317    -0.000079851147    34.968852682000
         CL           2.654820066023    -1.626935099683     0.000064148853    34.968852682000
         C           -1.216463933977    -0.659429099683    -0.000008851147    12.000000000000
         C            0.032203066023     1.380521900317    -0.000060851147    12.000000000000
         C            1.174524066023    -0.720835099683     0.000071148853    12.000000000000
         C           -1.155198433977     0.733691400317    -0.000040251147    12.000000000000
         C           -0.039376933977    -1.407117099683     0.000023148853    12.000000000000
         C            1.233500066023     0.672395900317    -0.000011851147    12.000000000000
         H           -2.129246933977     1.301424900317    -0.000022851147     1.007825032230
         H           -0.067233933977    -2.491751099683     0.000061148853     1.007825032230
         H            2.186752066023     1.190577900317    -0.000003851147     1.007825032230

  Basis Set: AUG-CC-PVTZ
    Blend: AUG-CC-PVTZ
  Basis Set: (AUG-CC-PVTZ AUX)
    Blend: AUG-CC-PVTZ-JKFIT
	 Reference Energy          =   -1607.5794100709338181 [Eh]
	 Singles Energy            =      -0.0000000000000000 [Eh]
	 Same-Spin Energy          =      -0.4511743131778432 [Eh]
	 Opposite-Spin Energy      =      -1.3060125689472932 [Eh]
	 Correlation Energy        =      -1.7571868821251364 [Eh]
	 Total Energy              =   -1609.3365969530589155 [Eh]

	 ================> DF-SCS-MP2 Energies <==================
	-----------------------------------------------------------
	 SCS Same-Spin Scale       =       0.3333333333333333 [-]
	 SCS Opposite-Spin Scale   =       1.2000000000000000 [-]
	 SCS Same-Spin Energy      =      -0.1503914377259477 [Eh]
	 SCS Opposite-Spin Energy  =      -1.5672150827367519 [Eh]
	 SCS Correlation Energy    =      -1.7176065204626996 [Eh]
	 SCS Total Energy          =   -1609.2970165913964138 [Eh]
	-----------------------------------------------------------

  Dipole Moment: [D]
     X:    -0.0546      Y:    -0.0400      Z:     0.0000     Total:     0.0677

*** Psi4 exiting successfully. Buy a developer a beer!
