                               Psi4 1.3.2 release

  ==> Input File <==

--------------------------------------------------------------------------
#psi4
#
memory 32 gb

molecule  {
0 1
 Cl       -2.7380800    -1.4884340     0.0000240
 Cl        0.0800140     3.1154550    -0.0000800
 Cl        2.6580650    -1.6270210     0.0000640
  C       -1.2132190    -0.6595150    -0.0000090
  C        0.0354480     1.3804360    -0.0000610
  C        1.1777690    -0.7209210     0.0000710
  C       -1.2249477     0.7349027    -0.0000413
  C       -0.0361320    -1.4072030     0.0000230
  C        1.2367450     0.6723100    -0.0000120
  H       -2.1260020     1.3013390    -0.0000230
  H       -0.0639890    -2.4918370     0.0000610
  H        2.1899970     1.1904920    -0.0000040
units angstrom
no_reorient  #important for SAPT in psi4, default
symmetry c1  #important for SAPT in psi4, default
}

set PROPERTIES_ORIGIN ["COM"]
properties('MP2/aug-cc-pvtz', properties = ['dipole'])
--------------------------------------------------------------------------

    Molecular point group: c1
  Charge       = 0
  Multiplicity = 1
  Basis Set: AUG-CC-PVTZ
    Blend: AUG-CC-PVTZ
  Basis Set: (AUG-CC-PVTZ AUX)
    Blend: AUG-CC-PVTZ-JKFIT

    Orbital Energies [Eh]
    ---------------------

    Doubly Occupied:

       1A   -104.861081     2A   -104.860749     3A   -104.859573
       4A    -11.336568     5A    -11.334668     6A    -11.334320
       7A    -11.276724     8A    -11.275978     9A    -11.275861
      10A    -10.584884    11A    -10.584560    12A    -10.583465
      13A     -8.051798    14A     -8.051473    15A     -8.050379
      16A     -8.049815    17A     -8.049802    18A     -8.049494
      19A     -8.049482    20A     -8.048397    21A     -8.048388
      22A     -1.233865    23A     -1.175261    24A     -1.174426
      25A     -1.092610    26A     -1.018273    27A     -1.017026
      28A     -0.842642    29A     -0.838262    30A     -0.727728
      31A     -0.698166    32A     -0.644111    33A     -0.617867
      34A     -0.614483    35A     -0.590125    36A     -0.552179
      37A     -0.546943    38A     -0.522984    39A     -0.522639
      40A     -0.478386    41A     -0.478115    42A     -0.464397
      43A     -0.452745    44A     -0.357649    45A     -0.355169

  @DF-RHF Final Energy: -1607.58113714504111

   => Energetics <=

    Nuclear Repulsion Energy =            614.1788938311213997
    One-Electron Energy =               -3436.2530455764858743
    Two-Electron Energy =                1214.4930146003232494
    Total Energy =                      -1607.5811371450411116
  Basis Set: (AUG-CC-PVTZ AUX)
    Blend: AUG-CC-PVTZ-RI
    Molecular point group: c1

    Geometry (in Angstrom), charge = 0, multiplicity = 1:

       Center              X                  Y                   Z               Mass
    ------------   -----------------  -----------------  -----------------  -----------------
         CL          -2.736456761696    -1.488434613311     0.000024208876    34.968852682000
         CL           0.081637238304     3.115454386689    -0.000079791124    34.968852682000
         CL           2.659688238304    -1.627021613311     0.000064208876    34.968852682000
         C           -1.211595761696    -0.659515613311    -0.000008791124    12.000000000000
         C            0.037071238304     1.380435386689    -0.000060791124    12.000000000000
         C            1.179392238304    -0.720921613311     0.000071208876    12.000000000000
         C           -1.223324461696     0.734902086689    -0.000041091124    12.000000000000
         C           -0.034508761696    -1.407203613311     0.000023208876    12.000000000000
         C            1.238368238304     0.672309386689    -0.000011791124    12.000000000000
         H           -2.124378761696     1.301338386689    -0.000022791124     1.007825032230
         H           -0.062365761696    -2.491837613311     0.000061208876     1.007825032230
         H            2.191620238304     1.190491386689    -0.000003791124     1.007825032230

  Basis Set: AUG-CC-PVTZ
    Blend: AUG-CC-PVTZ
  Basis Set: (AUG-CC-PVTZ AUX)
    Blend: AUG-CC-PVTZ-JKFIT
	 Reference Energy          =   -1607.5811371450411116 [Eh]
	 Singles Energy            =      -0.0000000000000000 [Eh]
	 Same-Spin Energy          =      -0.4511617707176133 [Eh]
	 Opposite-Spin Energy      =      -1.3062260948471076 [Eh]
	 Correlation Energy        =      -1.7573878655647208 [Eh]
	 Total Energy              =   -1609.3385250106057356 [Eh]

	 ================> DF-SCS-MP2 Energies <==================
	-----------------------------------------------------------
	 SCS Same-Spin Scale       =       0.3333333333333333 [-]
	 SCS Opposite-Spin Scale   =       1.2000000000000000 [-]
	 SCS Same-Spin Energy      =      -0.1503872569058711 [Eh]
	 SCS Opposite-Spin Energy  =      -1.5674713138165290 [Eh]
	 SCS Correlation Energy    =      -1.7178585707224001 [Eh]
	 SCS Total Energy          =   -1609.2989957157635672 [Eh]
	-----------------------------------------------------------

  Dipole Moment: [D]
     X:     0.0290      Y:     0.0181      Z:     0.0000     Total:     0.0342

*** Psi4 exiting successfully. Buy a developer a beer!
