                               Psi4 1.3.2 release

  ==> Input File <==

--------------------------------------------------------------------------
#psi4
#
memory 32 gb

molecule  {
0 1
 Cl       -2.7380800    -1.4884340     0.0000240
 Cl        0.0800140     3.1154550    -0.0000800
 Cl        2.6580650    -1.6270210     0.0000640
  C       -1.0673944    -0.6531943    -0.0000140
  C        0.0354480     1.3804360    -0.0000610
  C        1.1777690    -0.7209210     0.0000710
  C       -1.2006100     0.7348950    -0.0000410
  C       -0.0361320    -1.4072030     0.0000230
  C        1.2367450     0.6723100    -0.0000120
  H       -2.1260020     1.3013390    -0.0000230
  H       -0.0639890    -2.4918370     0.0000610
  H        2.1899970     1.1904920    -0.0000040
units angstrom
no_reorient  #important for SAPT in psi4, default
symmetry c1  #important for SAPT in psi4, default
}

set PROPERTIES_ORIGIN ["COM"]
properties('MP2/aug-cc-pvtz', properties = ['dipole'])
--------------------------------------------------------------------------

    Molecular point group: c1
  Charge       = 0
  Multiplicity = 1
  Basis Set: AUG-CC-PVTZ
    Blend: AUG-CC-PVTZ
  Basis Set: (AUG-CC-PVTZ AUX)
    Blend: AUG-CC-PVTZ-JKFIT

    Orbital Energies [Eh]
    ---------------------

    Doubly Occupied:

       1A   -104.864903     2A   -104.863249     3A   -104.843106
       4A    -11.340664     5A    -11.338417     6A    -11.332379
       7A    -11.281772     8A    -11.279299     9A    -11.269014
      10A    -10.588715    11A    -10.587129    12A    -10.565793
      13A     -8.055622    14A     -8.054038    15A     -8.053645
      16A     -8.053621    17A     -8.052059    18A     -8.052038
      19A     -8.032442    20A     -8.030801    21A     -8.030779
      22A     -1.247627    23A     -1.180330    24A     -1.160564
      25A     -1.088736    26A     -1.039712    27A     -1.018676
      28A     -0.854423    29A     -0.837594    30A     -0.736792
      31A     -0.709806    32A     -0.638388    33A     -0.634007
      34A     -0.609977    35A     -0.600765    36A     -0.559328
      37A     -0.526931    38A     -0.521186    39A     -0.511736
      40A     -0.477397    41A     -0.475134    42A     -0.459119
      43A     -0.454638    44A     -0.376027    45A     -0.358811

  @DF-RHF Final Energy: -1607.56222791143659

   => Energetics <=

    Nuclear Repulsion Energy =            615.4147384232579725
    One-Electron Energy =               -3438.6595557360310522
    Two-Electron Energy =                1215.6825894013365996
    Total Energy =                      -1607.5622279114365938
  Basis Set: (AUG-CC-PVTZ AUX)
    Blend: AUG-CC-PVTZ-RI
    Molecular point group: c1

    Geometry (in Angstrom), charge = 0, multiplicity = 1:

       Center              X                  Y                   Z               Mass
    ------------   -----------------  -----------------  -----------------  -----------------
         CL          -2.747805326270    -1.488855643634     0.000024522332    34.968852682000
         CL           0.070288673730     3.115033356366    -0.000079477668    34.968852682000
         CL           2.648339673730    -1.627442643634     0.000064522332    34.968852682000
         C           -1.077119726270    -0.653615943634    -0.000013477668    12.000000000000
         C            0.025722673730     1.380014356366    -0.000060477668    12.000000000000
         C            1.168043673730    -0.721342643634     0.000071522332    12.000000000000
         C           -1.210335326270     0.734473356366    -0.000040477668    12.000000000000
         C           -0.045857326270    -1.407624643634     0.000023522332    12.000000000000
         C            1.227019673730     0.671888356366    -0.000011477668    12.000000000000
         H           -2.135727326270     1.300917356366    -0.000022477668     1.007825032230
         H           -0.073714326270    -2.492258643634     0.000061522332     1.007825032230
         H            2.180271673730     1.190070356366    -0.000003477668     1.007825032230

  Basis Set: AUG-CC-PVTZ
    Blend: AUG-CC-PVTZ
  Basis Set: (AUG-CC-PVTZ AUX)
    Blend: AUG-CC-PVTZ-JKFIT
	 Reference Energy          =   -1607.5622279114365938 [Eh]
	 Singles Energy            =      -0.0000000000000000 [Eh]
	 Same-Spin Energy          =      -0.4505800875597589 [Eh]
	 Opposite-Spin Energy      =      -1.3057172870686187 [Eh]
	 Correlation Energy        =      -1.7562973746283776 [Eh]
	 Total Energy              =   -1609.3185252860648689 [Eh]

	 ================> DF-SCS-MP2 Energies <==================
	-----------------------------------------------------------
	 SCS Same-Spin Scale       =       0.3333333333333333 [-]
	 SCS Opposite-Spin Scale   =       1.2000000000000000 [-]
	 SCS Same-Spin Energy      =      -0.1501933625199196 [Eh]
	 SCS Opposite-Spin Energy  =      -1.5668607444823424 [Eh]
	 SCS Correlation Energy    =      -1.7170541070022620 [Eh]
	 SCS Total Energy          =   -1609.2792820184388347 [Eh]
	-----------------------------------------------------------

  Dipole Moment: [D]
     X:     0.7111      Y:     0.2932      Z:     0.0000     Total:     0.7692

*** Psi4 exiting successfully. Buy a developer a beer!
