                               Psi4 1.3.2 release

  ==> Input File <==

--------------------------------------------------------------------------
#psi4
#
memory 32 gb

molecule  {
0 1
 Cl       -2.7660800    -1.4347122     0.0000230
 Cl        0.0800140     3.1154550    -0.0000800
 Cl        2.6580650    -1.6270210     0.0000640
  C       -1.2132190    -0.6595150    -0.0000090
  C        0.0354480     1.3804360    -0.0000610
  C        1.1777690    -0.7209210     0.0000710
  C       -1.2006100     0.7348950    -0.0000410
  C       -0.0361320    -1.4072030     0.0000230
  C        1.2367450     0.6723100    -0.0000120
  H       -2.1260020     1.3013390    -0.0000230
  H       -0.0639890    -2.4918370     0.0000610
  H        2.1899970     1.1904920    -0.0000040
units angstrom
no_reorient  #important for SAPT in psi4, default
symmetry c1  #important for SAPT in psi4, default
}

set PROPERTIES_ORIGIN ["COM"]
properties('MP2/aug-cc-pvtz', properties = ['dipole'])
--------------------------------------------------------------------------

    Molecular point group: c1
  Charge       = 0
  Multiplicity = 1
  Basis Set: AUG-CC-PVTZ
    Blend: AUG-CC-PVTZ
  Basis Set: (AUG-CC-PVTZ AUX)
    Blend: AUG-CC-PVTZ-JKFIT

    Orbital Energies [Eh]
    ---------------------

    Doubly Occupied:

       1A   -104.860919     2A   -104.860680     3A   -104.860477
       4A    -11.334280     5A    -11.333946     6A    -11.333596
       7A    -11.276623     8A    -11.275843     9A    -11.275069
      10A    -10.584715    11A    -10.584491    12A    -10.584288
      13A     -8.051631    14A     -8.051406    15A     -8.051204
      16A     -8.049645    17A     -8.049635    18A     -8.049420
      19A     -8.049411    20A     -8.049221    21A     -8.049210
      22A     -1.235044    23A     -1.175393    24A     -1.174683
      25A     -1.093615    26A     -1.018575    27A     -1.017365
      28A     -0.841144    29A     -0.840863    30A     -0.725351
      31A     -0.699441    32A     -0.643374    33A     -0.615010
      34A     -0.614438    35A     -0.591130    36A     -0.549402
      37A     -0.548728    38A     -0.523255    39A     -0.522781
      40A     -0.478866    41A     -0.478172    42A     -0.464841
      43A     -0.453363    44A     -0.357298    45A     -0.356559

  @DF-RHF Final Energy: -1607.58191713039741

   => Energetics <=

    Nuclear Repulsion Energy =            614.5699311869483381
    One-Electron Energy =               -3437.0348976197738011
    Two-Electron Energy =                1214.8830493024279349
    Total Energy =                      -1607.5819171303974144
  Basis Set: (AUG-CC-PVTZ AUX)
    Blend: AUG-CC-PVTZ-RI
    Molecular point group: c1

    Geometry (in Angstrom), charge = 0, multiplicity = 1:

       Center              X                  Y                   Z               Mass
    ------------   -----------------  -----------------  -----------------  -----------------
         CL          -2.760638191426    -1.445152967615     0.000023383216    34.968852682000
         CL           0.085455808574     3.105014232385    -0.000079616784    34.968852682000
         CL           2.663506808574    -1.637461767615     0.000064383216    34.968852682000
         C           -1.207777191426    -0.669955767615    -0.000008616784    12.000000000000
         C            0.040889808574     1.369995232385    -0.000060616784    12.000000000000
         C            1.183210808574    -0.731361767615     0.000071383216    12.000000000000
         C           -1.195168191426     0.724454232385    -0.000040616784    12.000000000000
         C           -0.030690191426    -1.417643767615     0.000023383216    12.000000000000
         C            1.242186808574     0.661869232385    -0.000011616784    12.000000000000
         H           -2.120560191426     1.290898232385    -0.000022616784     1.007825032230
         H           -0.058547191426    -2.502277767615     0.000061383216     1.007825032230
         H            2.195438808574     1.180051232385    -0.000003616784     1.007825032230

  Basis Set: AUG-CC-PVTZ
    Blend: AUG-CC-PVTZ
  Basis Set: (AUG-CC-PVTZ AUX)
    Blend: AUG-CC-PVTZ-JKFIT
	 Reference Energy          =   -1607.5819171303974144 [Eh]
	 Singles Energy            =      -0.0000000000000000 [Eh]
	 Same-Spin Energy          =      -0.4511613724379051 [Eh]
	 Opposite-Spin Energy      =      -1.3060934956664745 [Eh]
	 Correlation Energy        =      -1.7572548681043796 [Eh]
	 Total Energy              =   -1609.3391719985017971 [Eh]

	 ================> DF-SCS-MP2 Energies <==================
	-----------------------------------------------------------
	 SCS Same-Spin Scale       =       0.3333333333333333 [-]
	 SCS Opposite-Spin Scale   =       1.2000000000000000 [-]
	 SCS Same-Spin Energy      =      -0.1503871241459683 [Eh]
	 SCS Opposite-Spin Energy  =      -1.5673121947997692 [Eh]
	 SCS Correlation Energy    =      -1.7176993189457375 [Eh]
	 SCS Total Energy          =   -1609.2996164493431479 [Eh]
	-----------------------------------------------------------

  Dipole Moment: [D]
     X:     0.0118      Y:    -0.0216      Z:     0.0000     Total:     0.0246

*** Psi4 exiting successfully. Buy a developer a beer!
