                               Psi4 1.3.2 release

  ==> Input File <==

--------------------------------------------------------------------------
#psi4
#
memory 32 gb

molecule  {
0 1
 Cl       -2.6430810    -1.6432845     0.0000267
 Cl        0.0800140     3.1154550    -0.0000800
 Cl        2.6580650    -1.6270210     0.0000640
  C       -1.2132190    -0.6595150    -0.0000090
  C        0.0354480     1.3804360    -0.0000610
  C        1.1777690    -0.7209210     0.0000710
  C       -1.2006100     0.7348950    -0.0000410
  C       -0.0361320    -1.4072030     0.0000230
  C        1.2367450     0.6723100    -0.0000120
  H       -2.1260020     1.3013390    -0.0000230
  H       -0.0639890    -2.4918370     0.0000610
  H        2.1899970     1.1904920    -0.0000040
units angstrom
no_reorient  #important for SAPT in psi4, default
symmetry c1  #important for SAPT in psi4, default
}

set PROPERTIES_ORIGIN ["COM"]
properties('MP2/aug-cc-pvtz', properties = ['dipole'])
--------------------------------------------------------------------------

    Molecular point group: c1
  Charge       = 0
  Multiplicity = 1
  Basis Set: AUG-CC-PVTZ
    Blend: AUG-CC-PVTZ
  Basis Set: (AUG-CC-PVTZ AUX)
    Blend: AUG-CC-PVTZ-JKFIT

    Orbital Energies [Eh]
    ---------------------

    Doubly Occupied:

       1A   -104.861325     2A   -104.860504     3A   -104.860002
       4A    -11.334876     5A    -11.333913     6A    -11.332814
       7A    -11.278173     8A    -11.275812     9A    -11.273514
      10A    -10.585107    11A    -10.584375    12A    -10.583827
      13A     -8.052024    14A     -8.051284    15A     -8.050742
      16A     -8.050035    17A     -8.050026    18A     -8.049288
      19A     -8.049287    20A     -8.048763    21A     -8.048751
      22A     -1.235195    23A     -1.176302    24A     -1.174111
      25A     -1.093575    26A     -1.019638    27A     -1.015980
      28A     -0.841453    29A     -0.840589    30A     -0.725417
      31A     -0.699585    32A     -0.643336    33A     -0.615499
      34A     -0.613763    35A     -0.591190    36A     -0.550100
      37A     -0.547964    38A     -0.523767    39A     -0.522328
      40A     -0.479346    41A     -0.477250    42A     -0.464291
      43A     -0.453297    44A     -0.357974    45A     -0.355742

  @DF-RHF Final Energy: -1607.57969883396936

   => Energetics <=

    Nuclear Repulsion Energy =            614.7925709355765775
    One-Electron Energy =               -3437.4802679182785141
    Two-Electron Energy =                1215.1079981487323494
    Total Energy =                      -1607.5796988339693598
  Basis Set: (AUG-CC-PVTZ AUX)
    Blend: AUG-CC-PVTZ-RI
    Molecular point group: c1

    Geometry (in Angstrom), charge = 0, multiplicity = 1:

       Center              X                  Y                   Z               Mass
    ------------   -----------------  -----------------  -----------------  -----------------
         CL          -2.661543671606    -1.613189877804     0.000026364132    34.968852682000
         CL           0.061551328394     3.145549622196    -0.000080335868    34.968852682000
         CL           2.639602328394    -1.596926377804     0.000063664132    34.968852682000
         C           -1.231681671606    -0.629420377804    -0.000009335868    12.000000000000
         C            0.016985328394     1.410530622196    -0.000061335868    12.000000000000
         C            1.159306328394    -0.690826377804     0.000070664132    12.000000000000
         C           -1.219072671606     0.764989622196    -0.000041335868    12.000000000000
         C           -0.054594671606    -1.377108377804     0.000022664132    12.000000000000
         C            1.218282328394     0.702404622196    -0.000012335868    12.000000000000
         H           -2.144464671606     1.331433622196    -0.000023335868     1.007825032230
         H           -0.082451671606    -2.461742377804     0.000060664132     1.007825032230
         H            2.171534328394     1.220586622196    -0.000004335868     1.007825032230

  Basis Set: AUG-CC-PVTZ
    Blend: AUG-CC-PVTZ
  Basis Set: (AUG-CC-PVTZ AUX)
    Blend: AUG-CC-PVTZ-JKFIT
	 Reference Energy          =   -1607.5796988339693598 [Eh]
	 Singles Energy            =      -0.0000000000000000 [Eh]
	 Same-Spin Energy          =      -0.4512649628739444 [Eh]
	 Opposite-Spin Energy      =      -1.3062843589848248 [Eh]
	 Correlation Energy        =      -1.7575493218587690 [Eh]
	 Total Energy              =   -1609.3372481558280924 [Eh]

	 ================> DF-SCS-MP2 Energies <==================
	-----------------------------------------------------------
	 SCS Same-Spin Scale       =       0.3333333333333333 [-]
	 SCS Opposite-Spin Scale   =       1.2000000000000000 [-]
	 SCS Same-Spin Energy      =      -0.1504216542913148 [Eh]
	 SCS Opposite-Spin Energy  =      -1.5675412307817898 [Eh]
	 SCS Correlation Energy    =      -1.7179628850731046 [Eh]
	 SCS Total Energy          =   -1609.2976617190424804 [Eh]
	-----------------------------------------------------------

  Dipole Moment: [D]
     X:    -0.0352      Y:     0.0646      Z:     0.0000     Total:     0.0735

*** Psi4 exiting successfully. Buy a developer a beer!
