                               Psi4 1.3.2 release

  ==> Input File <==

--------------------------------------------------------------------------
#psi4
#
memory 32 gb

molecule  {
0 1
 Cl       -2.7380800    -1.4884340     0.0000240
 Cl        0.0800140     3.1154550    -0.0000800
 Cl        2.6580650    -1.6270210     0.0000640
  C       -1.0375033    -0.5639954    -0.0000128
  C        0.0354480     1.3804360    -0.0000610
  C        1.1777690    -0.7209210     0.0000710
  C       -1.2006100     0.7348950    -0.0000410
  C       -0.0361320    -1.4072030     0.0000230
  C        1.2367450     0.6723100    -0.0000120
  H       -2.1260020     1.3013390    -0.0000230
  H       -0.0639890    -2.4918370     0.0000610
  H        2.1899970     1.1904920    -0.0000040
units angstrom
no_reorient  #important for SAPT in psi4, default
symmetry c1  #important for SAPT in psi4, default
}

set PROPERTIES_ORIGIN ["COM"]
properties('MP2/aug-cc-pvtz', properties = ['dipole'])
--------------------------------------------------------------------------

    Molecular point group: c1
  Charge       = 0
  Multiplicity = 1
  Basis Set: AUG-CC-PVTZ
    Blend: AUG-CC-PVTZ
  Basis Set: (AUG-CC-PVTZ AUX)
    Blend: AUG-CC-PVTZ-JKFIT

    Orbital Energies [Eh]
    ---------------------

    Doubly Occupied:

       1A   -104.866330     2A   -104.866330     3A   -104.831613
       4A    -11.343426     5A    -11.343419     6A    -11.335486
       7A    -11.281189     8A    -11.277252     9A    -11.277203
      10A    -10.590193    11A    -10.590193    12A    -10.554207
      13A     -8.057097    14A     -8.057097    15A     -8.055119
      16A     -8.055119    17A     -8.055090    18A     -8.055090
      19A     -8.020760    20A     -8.019253    21A     -8.019220
      22A     -1.255961    23A     -1.183749    24A     -1.158894
      25A     -1.082068    26A     -1.046701    27A     -1.023908
      28A     -0.853442    29A     -0.844201    30A     -0.742746
      31A     -0.718093    32A     -0.643010    33A     -0.639535
      34A     -0.609856    35A     -0.607183    36A     -0.563609
      37A     -0.529363    38A     -0.509147    39A     -0.508743
      40A     -0.476259    41A     -0.472705    42A     -0.451744
      43A     -0.451556    44A     -0.375795    45A     -0.368384

  @DF-RHF Final Energy: -1607.55073909545013

   => Energetics <=

    Nuclear Repulsion Energy =            615.9333442142622062
    One-Electron Energy =               -3439.6334926039348829
    Two-Electron Energy =                1216.1494092942227780
    Total Energy =                      -1607.5507390954501261
  Basis Set: (AUG-CC-PVTZ AUX)
    Blend: AUG-CC-PVTZ-RI
    Molecular point group: c1

    Geometry (in Angstrom), charge = 0, multiplicity = 1:

       Center              X                  Y                   Z               Mass
    ------------   -----------------  -----------------  -----------------  -----------------
         CL          -2.749798841159    -1.494804549335     0.000024442300    34.968852682000
         CL           0.068295158841     3.109084450665    -0.000079557700    34.968852682000
         CL           2.646346158841    -1.633391549335     0.000064442300    34.968852682000
         C           -1.049222141159    -0.570365949335    -0.000012357700    12.000000000000
         C            0.023729158841     1.374065450665    -0.000060557700    12.000000000000
         C            1.166050158841    -0.727291549335     0.000071442300    12.000000000000
         C           -1.212328841159     0.728524450665    -0.000040557700    12.000000000000
         C           -0.047850841159    -1.413573549335     0.000023442300    12.000000000000
         C            1.225026158841     0.665939450665    -0.000011557700    12.000000000000
         H           -2.137720841159     1.294968450665    -0.000022557700     1.007825032230
         H           -0.075707841159    -2.498207549335     0.000061442300     1.007825032230
         H            2.178278158841     1.184121450665    -0.000003557700     1.007825032230

  Basis Set: AUG-CC-PVTZ
    Blend: AUG-CC-PVTZ
  Basis Set: (AUG-CC-PVTZ AUX)
    Blend: AUG-CC-PVTZ-JKFIT
	 Reference Energy          =   -1607.5507390954501261 [Eh]
	 Singles Energy            =      -0.0000000000000000 [Eh]
	 Same-Spin Energy          =      -0.4511947009622503 [Eh]
	 Opposite-Spin Energy      =      -1.3060690498918612 [Eh]
	 Correlation Energy        =      -1.7572637508541116 [Eh]
	 Total Energy              =   -1609.3080028463041344 [Eh]

	 ================> DF-SCS-MP2 Energies <==================
	-----------------------------------------------------------
	 SCS Same-Spin Scale       =       0.3333333333333333 [-]
	 SCS Opposite-Spin Scale   =       1.2000000000000000 [-]
	 SCS Same-Spin Energy      =      -0.1503982336540834 [Eh]
	 SCS Opposite-Spin Energy  =      -1.5672828598702335 [Eh]
	 SCS Correlation Energy    =      -1.7176810935243170 [Eh]
	 SCS Total Energy          =   -1609.2684201889744600 [Eh]
	-----------------------------------------------------------

  Dipole Moment: [D]
     X:     1.0495      Y:     0.5705      Z:     0.0000     Total:     1.1945

*** Psi4 exiting successfully. Buy a developer a beer!
