                               Psi4 1.3.2 release

  ==> Input File <==

--------------------------------------------------------------------------
#psi4
#
memory 32 gb

molecule  {
0 1
 Cl       -2.7233811    -1.5149202     0.0000245
 Cl        0.0800140     3.1154550    -0.0000800
 Cl        2.6580650    -1.6270210     0.0000640
  C       -1.2132190    -0.6595150    -0.0000090
  C        0.0354480     1.3804360    -0.0000610
  C        1.1777690    -0.7209210     0.0000710
  C       -1.2006100     0.7348950    -0.0000410
  C       -0.0361320    -1.4072030     0.0000230
  C        1.2367450     0.6723100    -0.0000120
  H       -2.1260020     1.3013390    -0.0000230
  H       -0.0639890    -2.4918370     0.0000610
  H        2.1899970     1.1904920    -0.0000040
units angstrom
no_reorient  #important for SAPT in psi4, default
symmetry c1  #important for SAPT in psi4, default
}

set PROPERTIES_ORIGIN ["COM"]
properties('MP2/aug-cc-pvtz', properties = ['dipole'])
--------------------------------------------------------------------------

    Molecular point group: c1
  Charge       = 0
  Multiplicity = 1
  Basis Set: AUG-CC-PVTZ
    Blend: AUG-CC-PVTZ
  Basis Set: (AUG-CC-PVTZ AUX)
    Blend: AUG-CC-PVTZ-JKFIT

    Orbital Energies [Eh]
    ---------------------

    Doubly Occupied:

       1A   -104.860811     2A   -104.860697     3A   -104.860591
       4A    -11.334118     5A    -11.333949     6A    -11.333775
       7A    -11.276235     8A    -11.275846     9A    -11.275457
      10A    -10.584612    11A    -10.584502    12A    -10.584398
      13A     -8.051528    14A     -8.051418    15A     -8.051314
      16A     -8.049542    17A     -8.049532    18A     -8.049433
      19A     -8.049423    20A     -8.049330    21A     -8.049319
      22A     -1.235030    23A     -1.175200    24A     -1.174845
      25A     -1.093619    26A     -1.018288    27A     -1.017682
      28A     -0.841073    29A     -0.840931    30A     -0.725345
      31A     -0.699427    32A     -0.643378    33A     -0.614876
      34A     -0.614589    35A     -0.591125    36A     -0.549236
      37A     -0.548901    38A     -0.523134    39A     -0.522897
      40A     -0.478713    41A     -0.478367    42A     -0.464891
      43A     -0.453369    44A     -0.357121    45A     -0.356750

  @DF-RHF Final Energy: -1607.58212354435318

   => Energetics <=

    Nuclear Repulsion Energy =            614.5490818083655995
    One-Electron Energy =               -3436.9931854262085835
    Two-Electron Energy =                1214.8619800734900309
    Total Energy =                      -1607.5821235443531805
  Basis Set: (AUG-CC-PVTZ AUX)
    Blend: AUG-CC-PVTZ-RI
    Molecular point group: c1

    Geometry (in Angstrom), charge = 0, multiplicity = 1:

       Center              X                  Y                   Z               Mass
    ------------   -----------------  -----------------  -----------------  -----------------
         CL          -2.726237692298    -1.509772787660     0.000024591695    34.968852682000
         CL           0.077157407702     3.120602412340    -0.000079908305    34.968852682000
         CL           2.655208407702    -1.621873587660     0.000064091695    34.968852682000
         C           -1.216075592298    -0.654367587660    -0.000008908305    12.000000000000
         C            0.032591407702     1.385583412340    -0.000060908305    12.000000000000
         C            1.174912407702    -0.715773587660     0.000071091695    12.000000000000
         C           -1.203466592298     0.740042412340    -0.000040908305    12.000000000000
         C           -0.038988592298    -1.402055587660     0.000023091695    12.000000000000
         C            1.233888407702     0.677457412340    -0.000011908305    12.000000000000
         H           -2.128858592298     1.306486412340    -0.000022908305     1.007825032230
         H           -0.066845592298    -2.486689587660     0.000061091695     1.007825032230
         H            2.187140407702     1.195639412340    -0.000003908305     1.007825032230

  Basis Set: AUG-CC-PVTZ
    Blend: AUG-CC-PVTZ
  Basis Set: (AUG-CC-PVTZ AUX)
    Blend: AUG-CC-PVTZ-JKFIT
	 Reference Energy          =   -1607.5821235443531805 [Eh]
	 Singles Energy            =      -0.0000000000000000 [Eh]
	 Same-Spin Energy          =      -0.4511518228443325 [Eh]
	 Opposite-Spin Energy      =      -1.3060757251596298 [Eh]
	 Correlation Energy        =      -1.7572275480039623 [Eh]
	 Total Energy              =   -1609.3393510923572194 [Eh]

	 ================> DF-SCS-MP2 Energies <==================
	-----------------------------------------------------------
	 SCS Same-Spin Scale       =       0.3333333333333333 [-]
	 SCS Opposite-Spin Scale   =       1.2000000000000000 [-]
	 SCS Same-Spin Energy      =      -0.1503839409481108 [Eh]
	 SCS Opposite-Spin Energy  =      -1.5672908701915558 [Eh]
	 SCS Correlation Energy    =      -1.7176748111396667 [Eh]
	 SCS Total Energy          =   -1609.2997983554928396 [Eh]
	-----------------------------------------------------------

  Dipole Moment: [D]
     X:    -0.0059      Y:     0.0108      Z:     0.0000     Total:     0.0123

*** Psi4 exiting successfully. Buy a developer a beer!
