                               Psi4 1.3.2 release

  ==> Input File <==

--------------------------------------------------------------------------
#psi4
#
memory 32 gb

molecule  {
0 1
 Cl       -2.7380800    -1.4884340     0.0000240
 Cl        0.0800140     3.1154550    -0.0000800
 Cl        2.6580650    -1.6270210     0.0000640
  C       -1.2618755    -0.6582255    -0.0000074
  C        0.0354480     1.3804360    -0.0000610
  C        1.1777690    -0.7209210     0.0000710
  C       -1.2006100     0.7348950    -0.0000410
  C       -0.0361320    -1.4072030     0.0000230
  C        1.2367450     0.6723100    -0.0000120
  H       -2.1260020     1.3013390    -0.0000230
  H       -0.0639890    -2.4918370     0.0000610
  H        2.1899970     1.1904920    -0.0000040
units angstrom
no_reorient  #important for SAPT in psi4, default
symmetry c1  #important for SAPT in psi4, default
}

set PROPERTIES_ORIGIN ["COM"]
properties('MP2/aug-cc-pvtz', properties = ['dipole'])
--------------------------------------------------------------------------

    Molecular point group: c1
  Charge       = 0
  Multiplicity = 1
  Basis Set: AUG-CC-PVTZ
    Blend: AUG-CC-PVTZ
  Basis Set: (AUG-CC-PVTZ AUX)
    Blend: AUG-CC-PVTZ-JKFIT

    Orbital Energies [Eh]
    ---------------------

    Doubly Occupied:

       1A   -104.865318     2A   -104.860015     3A   -104.859539
       4A    -11.335193     5A    -11.332812     6A    -11.332145
       7A    -11.278121     8A    -11.274816     9A    -11.274358
      10A    -10.589776    11A    -10.583792    12A    -10.583337
      13A     -8.056801    14A     -8.054675    15A     -8.054651
      16A     -8.050709    17A     -8.050255    18A     -8.048722
      19A     -8.048715    20A     -8.048267    21A     -8.048262
      22A     -1.233320    23A     -1.183294    24A     -1.173629
      25A     -1.092904    26A     -1.017735    27A     -1.011183
      28A     -0.842298    29A     -0.836281    30A     -0.721933
      31A     -0.696632    32A     -0.648666    33A     -0.615759
      34A     -0.609067    35A     -0.589479    36A     -0.555316
      37A     -0.545823    38A     -0.528150    39A     -0.521952
      40A     -0.479892    41A     -0.477991    42A     -0.464293
      43A     -0.451898    44A     -0.356663    45A     -0.350658

  @DF-RHF Final Energy: -1607.57856589808625

   => Energetics <=

    Nuclear Repulsion Energy =            614.3493758270375338
    One-Electron Energy =               -3436.5856863534272634
    Two-Electron Energy =                1214.6577446283035897
    Total Energy =                      -1607.5785658980862536
  Basis Set: (AUG-CC-PVTZ AUX)
    Blend: AUG-CC-PVTZ-RI
    Molecular point group: c1

    Geometry (in Angstrom), charge = 0, multiplicity = 1:

       Center              X                  Y                   Z               Mass
    ------------   -----------------  -----------------  -----------------  -----------------
         CL          -2.734834877928    -1.488520099873     0.000024082160    34.968852682000
         CL           0.083259122072     3.115368900127    -0.000079917840    34.968852682000
         CL           2.661310122072    -1.627107099873     0.000064082160    34.968852682000
         C           -1.258630377928    -0.658311599873    -0.000007317840    12.000000000000
         C            0.038693122072     1.380349900127    -0.000060917840    12.000000000000
         C            1.181014122072    -0.721007099873     0.000071082160    12.000000000000
         C           -1.197364877928     0.734808900127    -0.000040917840    12.000000000000
         C           -0.032886877928    -1.407289099873     0.000023082160    12.000000000000
         C            1.239990122072     0.672223900127    -0.000011917840    12.000000000000
         H           -2.122756877928     1.301252900127    -0.000022917840     1.007825032230
         H           -0.060743877928    -2.491923099873     0.000061082160     1.007825032230
         H            2.193242122072     1.190405900127    -0.000003917840     1.007825032230

  Basis Set: AUG-CC-PVTZ
    Blend: AUG-CC-PVTZ
  Basis Set: (AUG-CC-PVTZ AUX)
    Blend: AUG-CC-PVTZ-JKFIT
	 Reference Energy          =   -1607.5785658980862536 [Eh]
	 Singles Energy            =      -0.0000000000000000 [Eh]
	 Same-Spin Energy          =      -0.4515759234619148 [Eh]
	 Opposite-Spin Energy      =      -1.3067550121575060 [Eh]
	 Correlation Energy        =      -1.7583309356194208 [Eh]
	 Total Energy              =   -1609.3368968337056231 [Eh]

	 ================> DF-SCS-MP2 Energies <==================
	-----------------------------------------------------------
	 SCS Same-Spin Scale       =       0.3333333333333333 [-]
	 SCS Opposite-Spin Scale   =       1.2000000000000000 [-]
	 SCS Same-Spin Energy      =      -0.1505253078206382 [Eh]
	 SCS Opposite-Spin Energy  =      -1.5681060145890071 [Eh]
	 SCS Correlation Energy    =      -1.7186313224096454 [Eh]
	 SCS Total Energy          =   -1609.2971972204959457 [Eh]
	-----------------------------------------------------------

  Dipole Moment: [D]
     X:    -0.2168      Y:    -0.0952      Z:     0.0000     Total:     0.2368

*** Psi4 exiting successfully. Buy a developer a beer!
