                               Psi4 1.3.2 release

  ==> Input File <==

--------------------------------------------------------------------------
#psi4
#
memory 32 gb

molecule  {
0 1
 Cl       -2.7380800    -1.4884340     0.0000240
 Cl        0.0800140     3.1154550    -0.0000800
 Cl        2.6580650    -1.6270210     0.0000640
  C       -1.2132190    -0.6595150    -0.0000090
  C        0.0354480     1.3804360    -0.0000610
  C        1.1777690    -0.7209210     0.0000710
  C       -1.2006100     0.7348950    -0.0000410
  C       -0.0361320    -1.4072030     0.0000230
  C        1.2367450     0.6723100    -0.0000120
  H       -2.2112922     1.3535462    -0.0000213
  H       -0.0639890    -2.4918370     0.0000610
  H        2.1899970     1.1904920    -0.0000040
units angstrom
no_reorient  #important for SAPT in psi4, default
symmetry c1  #important for SAPT in psi4, default
}

set PROPERTIES_ORIGIN ["COM"]
properties('MP2/aug-cc-pvtz', properties = ['dipole'])
--------------------------------------------------------------------------

    Molecular point group: c1
  Charge       = 0
  Multiplicity = 1
  Basis Set: AUG-CC-PVTZ
    Blend: AUG-CC-PVTZ
  Basis Set: (AUG-CC-PVTZ AUX)
    Blend: AUG-CC-PVTZ-JKFIT

    Orbital Energies [Eh]
    ---------------------

    Doubly Occupied:

       1A   -104.860769     2A   -104.860494     3A   -104.860494
       4A    -11.334496     5A    -11.334487     6A    -11.334003
       7A    -11.285913     8A    -11.276287     9A    -11.276261
      10A    -10.584572    11A    -10.584295    12A    -10.584295
      13A     -8.051489    14A     -8.051209    15A     -8.051209
      16A     -8.049503    17A     -8.049494    18A     -8.049223
      19A     -8.049223    20A     -8.049212    21A     -8.049212
      22A     -1.234828    23A     -1.174927    24A     -1.174695
      25A     -1.093599    26A     -1.018216    27A     -1.014337
      28A     -0.841369    29A     -0.837228    30A     -0.716215
      31A     -0.699636    32A     -0.642147    33A     -0.614908
      34A     -0.604461    35A     -0.591319    36A     -0.549296
      37A     -0.542206    38A     -0.523025    39A     -0.522872
      40A     -0.478601    41A     -0.478455    42A     -0.464871
      43A     -0.453388    44A     -0.357168    45A     -0.357022

  @DF-RHF Final Energy: -1607.57450049853287

   => Energetics <=

    Nuclear Repulsion Energy =            614.0077557029035233
    One-Electron Energy =               -3435.9426613610930872
    Two-Electron Energy =                1214.3604051596566933
    Total Energy =                      -1607.5745004985328706
  Basis Set: (AUG-CC-PVTZ AUX)
    Blend: AUG-CC-PVTZ-RI
    Molecular point group: c1

    Geometry (in Angstrom), charge = 0, multiplicity = 1:

       Center              X                  Y                   Z               Mass
    ------------   -----------------  -----------------  -----------------  -----------------
         CL          -2.737602178044    -1.488726523017     0.000024179347    34.968852682000
         CL           0.080491821956     3.115162476983    -0.000079820653    34.968852682000
         CL           2.658542821956    -1.627313523017     0.000064179347    34.968852682000
         C           -1.212741178044    -0.659807523017    -0.000008820653    12.000000000000
         C            0.035925821956     1.380143476983    -0.000060820653    12.000000000000
         C            1.178246821956    -0.721213523017     0.000071179347    12.000000000000
         C           -1.200132178044     0.734602476983    -0.000040820653    12.000000000000
         C           -0.035654178044    -1.407495523017     0.000023179347    12.000000000000
         C            1.237222821956     0.672017476983    -0.000011820653    12.000000000000
         H           -2.210814378044     1.353253676983    -0.000021120653     1.007825032230
         H           -0.063511178044    -2.492129523017     0.000061179347     1.007825032230
         H            2.190474821956     1.190199476983    -0.000003820653     1.007825032230

  Basis Set: AUG-CC-PVTZ
    Blend: AUG-CC-PVTZ
  Basis Set: (AUG-CC-PVTZ AUX)
    Blend: AUG-CC-PVTZ-JKFIT
	 Reference Energy          =   -1607.5745004985328706 [Eh]
	 Singles Energy            =      -0.0000000000000000 [Eh]
	 Same-Spin Energy          =      -0.4514979185977503 [Eh]
	 Opposite-Spin Energy      =      -1.3069602269015173 [Eh]
	 Correlation Energy        =      -1.7584581454992676 [Eh]
	 Total Energy              =   -1609.3329586440320327 [Eh]

	 ================> DF-SCS-MP2 Energies <==================
	-----------------------------------------------------------
	 SCS Same-Spin Scale       =       0.3333333333333333 [-]
	 SCS Opposite-Spin Scale   =       1.2000000000000000 [-]
	 SCS Same-Spin Energy      =      -0.1504993061992501 [Eh]
	 SCS Opposite-Spin Energy  =      -1.5683522722818206 [Eh]
	 SCS Correlation Energy    =      -1.7188515784810707 [Eh]
	 SCS Total Energy          =   -1609.2933520770138784 [Eh]
	-----------------------------------------------------------

  Dipole Moment: [D]
     X:    -0.0162      Y:     0.0099      Z:     0.0000     Total:     0.0190

*** Psi4 exiting successfully. Buy a developer a beer!
