                               Psi4 1.3.2 release

  ==> Input File <==

--------------------------------------------------------------------------
#psi4
#
memory 32 gb

molecule  {
0 1
 Cl       -2.7523144    -1.4616953     0.0000235
 Cl        0.0800140     3.1154550    -0.0000800
 Cl        2.6580650    -1.6270210     0.0000640
  C       -1.2132190    -0.6595150    -0.0000090
  C        0.0354480     1.3804360    -0.0000610
  C        1.1777690    -0.7209210     0.0000710
  C       -1.2006100     0.7348950    -0.0000410
  C       -0.0361320    -1.4072030     0.0000230
  C        1.2367450     0.6723100    -0.0000120
  H       -2.1260020     1.3013390    -0.0000230
  H       -0.0639890    -2.4918370     0.0000610
  H        2.1899970     1.1904920    -0.0000040
units angstrom
no_reorient  #important for SAPT in psi4, default
symmetry c1  #important for SAPT in psi4, default
}

set PROPERTIES_ORIGIN ["COM"]
properties('MP2/aug-cc-pvtz', properties = ['dipole'])
--------------------------------------------------------------------------

    Molecular point group: c1
  Charge       = 0
  Multiplicity = 1
  Basis Set: AUG-CC-PVTZ
    Blend: AUG-CC-PVTZ
  Basis Set: (AUG-CC-PVTZ AUX)
    Blend: AUG-CC-PVTZ-JKFIT

    Orbital Energies [Eh]
    ---------------------

    Doubly Occupied:

       1A   -104.860812     2A   -104.860697     3A   -104.860591
       4A    -11.334118     5A    -11.333949     6A    -11.333776
       7A    -11.276235     8A    -11.275846     9A    -11.275457
      10A    -10.584612    11A    -10.584502    12A    -10.584398
      13A     -8.051528    14A     -8.051418    15A     -8.051314
      16A     -8.049542    17A     -8.049532    18A     -8.049433
      19A     -8.049423    20A     -8.049330    21A     -8.049319
      22A     -1.235030    23A     -1.175199    24A     -1.174845
      25A     -1.093619    26A     -1.018287    27A     -1.017683
      28A     -0.841072    29A     -0.840932    30A     -0.725345
      31A     -0.699427    32A     -0.643378    33A     -0.614875
      34A     -0.614590    35A     -0.591125    36A     -0.549236
      37A     -0.548901    38A     -0.523133    39A     -0.522897
      40A     -0.478713    41A     -0.478367    42A     -0.464891
      43A     -0.453369    44A     -0.357120    45A     -0.356751

  @DF-RHF Final Energy: -1607.58212339673173

   => Energetics <=

    Nuclear Repulsion Energy =            614.5490875391624286
    One-Electron Energy =               -3436.9931968269106619
    Two-Electron Energy =                1214.8619858910165021
    Total Energy =                      -1607.5821233967317312
  Basis Set: (AUG-CC-PVTZ AUX)
    Blend: AUG-CC-PVTZ-RI
    Molecular point group: c1

    Geometry (in Angstrom), charge = 0, multiplicity = 1:

       Center              X                  Y                   Z               Mass
    ------------   -----------------  -----------------  -----------------  -----------------
         CL          -2.749547893765    -1.466891984500     0.000023786042    34.968852682000
         CL           0.082780506235     3.110258315500    -0.000079713958    34.968852682000
         CL           2.660831506235    -1.632217684500     0.000064286042    34.968852682000
         C           -1.210452493765    -0.664711684500    -0.000008713958    12.000000000000
         C            0.038214506235     1.375239315500    -0.000060713958    12.000000000000
         C            1.180535506235    -0.726117684500     0.000071286042    12.000000000000
         C           -1.197843493765     0.729698315500    -0.000040713958    12.000000000000
         C           -0.033365493765    -1.412399684500     0.000023286042    12.000000000000
         C            1.239511506235     0.667113315500    -0.000011713958    12.000000000000
         H           -2.123235493765     1.296142315500    -0.000022713958     1.007825032230
         H           -0.061222493765    -2.497033684500     0.000061286042     1.007825032230
         H            2.192763506235     1.185295315500    -0.000003713958     1.007825032230

  Basis Set: AUG-CC-PVTZ
    Blend: AUG-CC-PVTZ
  Basis Set: (AUG-CC-PVTZ AUX)
    Blend: AUG-CC-PVTZ-JKFIT
	 Reference Energy          =   -1607.5821233967317312 [Eh]
	 Singles Energy            =      -0.0000000000000000 [Eh]
	 Same-Spin Energy          =      -0.4511518296171484 [Eh]
	 Opposite-Spin Energy      =      -1.3060757361955024 [Eh]
	 Correlation Energy        =      -1.7572275658126508 [Eh]
	 Total Energy              =   -1609.3393509625443585 [Eh]

	 ================> DF-SCS-MP2 Energies <==================
	-----------------------------------------------------------
	 SCS Same-Spin Scale       =       0.3333333333333333 [-]
	 SCS Opposite-Spin Scale   =       1.2000000000000000 [-]
	 SCS Same-Spin Energy      =      -0.1503839432057161 [Eh]
	 SCS Opposite-Spin Energy  =      -1.5672908834346029 [Eh]
	 SCS Correlation Energy    =      -1.7176748266403190 [Eh]
	 SCS Total Energy          =   -1609.2997982233721359 [Eh]
	-----------------------------------------------------------

  Dipole Moment: [D]
     X:     0.0059      Y:    -0.0108      Z:     0.0000     Total:     0.0123

*** Psi4 exiting successfully. Buy a developer a beer!
