                               Psi4 1.3.2 release

  ==> Input File <==

--------------------------------------------------------------------------
#psi4
#
memory 32 gb

molecule  {
0 1
 Cl       -2.7380800    -1.4884340     0.0000240
 Cl        0.0800140     3.1154550    -0.0000800
 Cl        2.6580650    -1.6270210     0.0000640
  C       -1.2132190    -0.6595150    -0.0000090
  C        0.0354480     1.3804360    -0.0000610
  C        1.1777690    -0.7209210     0.0000710
  C       -1.1033716     0.7306187    -0.0000397
  C       -0.0361320    -1.4072030     0.0000230
  C        1.2367450     0.6723100    -0.0000120
  H       -2.1260020     1.3013390    -0.0000230
  H       -0.0639890    -2.4918370     0.0000610
  H        2.1899970     1.1904920    -0.0000040
units angstrom
no_reorient  #important for SAPT in psi4, default
symmetry c1  #important for SAPT in psi4, default
}

set PROPERTIES_ORIGIN ["COM"]
properties('MP2/aug-cc-pvtz', properties = ['dipole'])
--------------------------------------------------------------------------

    Molecular point group: c1
  Charge       = 0
  Multiplicity = 1
  Basis Set: AUG-CC-PVTZ
    Blend: AUG-CC-PVTZ
  Basis Set: (AUG-CC-PVTZ AUX)
    Blend: AUG-CC-PVTZ-JKFIT

    Orbital Energies [Eh]
    ---------------------

    Doubly Occupied:

       1A   -104.865140     2A   -104.860682     3A   -104.859381
       4A    -11.333222     5A    -11.331294     6A    -11.322848
       7A    -11.276038     8A    -11.275512     9A    -11.272512
      10A    -10.588601    11A    -10.584442    12A    -10.583187
      13A     -8.055522    14A     -8.053521    15A     -8.053511
      16A     -8.051363    17A     -8.050107    18A     -8.049354
      19A     -8.049352    20A     -8.048118    21A     -8.048116
      22A     -1.241009    23A     -1.177740    24A     -1.174212
      25A     -1.098301    26A     -1.023086    27A     -1.016604
      28A     -0.852856    29A     -0.835101    30A     -0.717772
      31A     -0.704220    32A     -0.643048    33A     -0.616289
      34A     -0.601424    35A     -0.596134    36A     -0.556782
      37A     -0.531014    38A     -0.524844    39A     -0.523276
      40A     -0.480293    41A     -0.478988    42A     -0.465882
      43A     -0.456242    44A     -0.364506    45A     -0.354354

  @DF-RHF Final Energy: -1607.56997984644863

   => Energetics <=

    Nuclear Repulsion Energy =            616.0801631918239991
    One-Electron Energy =               -3440.0086853984780646
    Two-Electron Energy =                1216.3585423602055471
    Total Energy =                      -1607.5699798464486321
  Basis Set: (AUG-CC-PVTZ AUX)
    Blend: AUG-CC-PVTZ-RI
    Molecular point group: c1

    Geometry (in Angstrom), charge = 0, multiplicity = 1:

       Center              X                  Y                   Z               Mass
    ------------   -----------------  -----------------  -----------------  -----------------
         CL          -2.744564986735    -1.488148902254     0.000024102168    34.968852682000
         CL           0.073529013265     3.115740097746    -0.000079897832    34.968852682000
         CL           2.651580013265    -1.626735902254     0.000064102168    34.968852682000
         C           -1.219703986735    -0.659229902254    -0.000008897832    12.000000000000
         C            0.028963013265     1.380721097746    -0.000060897832    12.000000000000
         C            1.171284013265    -0.720635902254     0.000071102168    12.000000000000
         C           -1.109856586735     0.730903797746    -0.000039597832    12.000000000000
         C           -0.042616986735    -1.406917902254     0.000023102168    12.000000000000
         C            1.230260013265     0.672595097746    -0.000011897832    12.000000000000
         H           -2.132486986735     1.301624097746    -0.000022897832     1.007825032230
         H           -0.070473986735    -2.491551902254     0.000061102168     1.007825032230
         H            2.183512013265     1.190777097746    -0.000003897832     1.007825032230

  Basis Set: AUG-CC-PVTZ
    Blend: AUG-CC-PVTZ
  Basis Set: (AUG-CC-PVTZ AUX)
    Blend: AUG-CC-PVTZ-JKFIT
	 Reference Energy          =   -1607.5699798464486321 [Eh]
	 Singles Energy            =      -0.0000000000000000 [Eh]
	 Same-Spin Energy          =      -0.4512717702706979 [Eh]
	 Opposite-Spin Energy      =      -1.3062823337695619 [Eh]
	 Correlation Energy        =      -1.7575541040402598 [Eh]
	 Total Energy              =   -1609.3275339504889416 [Eh]

	 ================> DF-SCS-MP2 Energies <==================
	-----------------------------------------------------------
	 SCS Same-Spin Scale       =       0.3333333333333333 [-]
	 SCS Opposite-Spin Scale   =       1.2000000000000000 [-]
	 SCS Same-Spin Energy      =      -0.1504239234235659 [Eh]
	 SCS Opposite-Spin Energy  =      -1.5675388005234743 [Eh]
	 SCS Correlation Energy    =      -1.7179627239470403 [Eh]
	 SCS Total Energy          =   -1609.2879425703956713 [Eh]
	-----------------------------------------------------------

  Dipole Moment: [D]
     X:    -0.1030      Y:    -0.0851      Z:     0.0000     Total:     0.1336

*** Psi4 exiting successfully. Buy a developer a beer!
