                               Psi4 1.3.2 release

  ==> Input File <==

--------------------------------------------------------------------------
#psi4
#
memory 32 gb

molecule  {
0 1
 Cl       -2.7380800    -1.4884340     0.0000240
 Cl        0.0800140     3.1154550    -0.0000800
 Cl        2.6580650    -1.6270210     0.0000640
  C       -1.3010769    -0.7072748    -0.0000071
  C        0.0354480     1.3804360    -0.0000610
  C        1.1777690    -0.7209210     0.0000710
  C       -1.2006100     0.7348950    -0.0000410
  C       -0.0361320    -1.4072030     0.0000230
  C        1.2367450     0.6723100    -0.0000120
  H       -2.1260020     1.3013390    -0.0000230
  H       -0.0639890    -2.4918370     0.0000610
  H        2.1899970     1.1904920    -0.0000040
units angstrom
no_reorient  #important for SAPT in psi4, default
symmetry c1  #important for SAPT in psi4, default
}

set PROPERTIES_ORIGIN ["COM"]
properties('MP2/aug-cc-pvtz', properties = ['dipole'])
--------------------------------------------------------------------------

    Molecular point group: c1
  Charge       = 0
  Multiplicity = 1
  Basis Set: AUG-CC-PVTZ
    Blend: AUG-CC-PVTZ
  Basis Set: (AUG-CC-PVTZ AUX)
    Blend: AUG-CC-PVTZ-JKFIT

    Orbital Energies [Eh]
    ---------------------

    Doubly Occupied:

       1A   -104.871189     2A   -104.858566     3A   -104.858566
       4A    -11.337813     5A    -11.330661     6A    -11.330654
       7A    -11.277088     8A    -11.277069     9A    -11.273194
      10A    -10.596831    11A    -10.582330    12A    -10.582330
      13A     -8.064034    14A     -8.061667    15A     -8.061618
      16A     -8.049251    17A     -8.049251    18A     -8.047259
      19A     -8.047258    20A     -8.047258    21A     -8.047257
      22A     -1.234461    23A     -1.195183    24A     -1.171861
      25A     -1.090471    26A     -1.011508    27A     -1.007501
      28A     -0.839039    29A     -0.834714    30A     -0.717239
      31A     -0.693481    32A     -0.658640    33A     -0.615104
      34A     -0.603246    35A     -0.588449    36A     -0.560491
      37A     -0.544183    38A     -0.535628    39A     -0.520585
      40A     -0.479380    41A     -0.477579    42A     -0.462737
      43A     -0.449445    44A     -0.352724    45A     -0.344898

  @DF-RHF Final Energy: -1607.56839666924270

   => Energetics <=

    Nuclear Repulsion Energy =            614.1534946380900237
    One-Electron Energy =               -3436.1644055013775869
    Two-Electron Energy =                1214.4425141940450885
    Total Energy =                      -1607.5683966692427020
  Basis Set: (AUG-CC-PVTZ AUX)
    Blend: AUG-CC-PVTZ-RI
    Molecular point group: c1

    Geometry (in Angstrom), charge = 0, multiplicity = 1:

       Center              X                  Y                   Z               Mass
    ------------   -----------------  -----------------  -----------------  -----------------
         CL          -2.732220435015    -1.485248874999     0.000024062153    34.968852682000
         CL           0.085873564985     3.118640125001    -0.000079937847    34.968852682000
         CL           2.663924564985    -1.623835874999     0.000064062153    34.968852682000
         C           -1.295217335015    -0.704089674999    -0.000007037847    12.000000000000
         C            0.041307564985     1.383621125001    -0.000060937847    12.000000000000
         C            1.183628564985    -0.717735874999     0.000071062153    12.000000000000
         C           -1.194750435015     0.738080125001    -0.000040937847    12.000000000000
         C           -0.030272435015    -1.404017874999     0.000023062153    12.000000000000
         C            1.242604564985     0.675495125001    -0.000011937847    12.000000000000
         H           -2.120142435015     1.304524125001    -0.000022937847     1.007825032230
         H           -0.058129435015    -2.488651874999     0.000061062153     1.007825032230
         H            2.195856564985     1.193677125001    -0.000003937847     1.007825032230

  Basis Set: AUG-CC-PVTZ
    Blend: AUG-CC-PVTZ
  Basis Set: (AUG-CC-PVTZ AUX)
    Blend: AUG-CC-PVTZ-JKFIT
	 Reference Energy          =   -1607.5683966692427020 [Eh]
	 Singles Energy            =      -0.0000000000000000 [Eh]
	 Same-Spin Energy          =      -0.4525405374668194 [Eh]
	 Opposite-Spin Energy      =      -1.3081223551708203 [Eh]
	 Correlation Energy        =      -1.7606628926376398 [Eh]
	 Total Energy              =   -1609.3290595618802854 [Eh]

	 ================> DF-SCS-MP2 Energies <==================
	-----------------------------------------------------------
	 SCS Same-Spin Scale       =       0.3333333333333333 [-]
	 SCS Opposite-Spin Scale   =       1.2000000000000000 [-]
	 SCS Same-Spin Energy      =      -0.1508468458222731 [Eh]
	 SCS Opposite-Spin Energy  =      -1.5697468262049843 [Eh]
	 SCS Correlation Energy    =      -1.7205936720272574 [Eh]
	 SCS Total Energy          =   -1609.2889903412699368 [Eh]
	-----------------------------------------------------------

  Dipole Moment: [D]
     X:    -0.4958      Y:    -0.2695      Z:     0.0000     Total:     0.5643

*** Psi4 exiting successfully. Buy a developer a beer!
