                               Psi4 1.3.2 release

  ==> Input File <==

--------------------------------------------------------------------------
#psi4
#
memory 32 gb

molecule  {
0 1
 Cl       -2.7380800    -1.4884340     0.0000240
 Cl        0.0800140     3.1154550    -0.0000800
 Cl        2.6580650    -1.6270210     0.0000640
  C       -1.1888813    -0.6595227    -0.0000098
  C        0.0354480     1.3804360    -0.0000610
  C        1.1777690    -0.7209210     0.0000710
  C       -1.2006100     0.7348950    -0.0000410
  C       -0.0361320    -1.4072030     0.0000230
  C        1.2367450     0.6723100    -0.0000120
  H       -2.1260020     1.3013390    -0.0000230
  H       -0.0639890    -2.4918370     0.0000610
  H        2.1899970     1.1904920    -0.0000040
units angstrom
no_reorient  #important for SAPT in psi4, default
symmetry c1  #important for SAPT in psi4, default
}

set PROPERTIES_ORIGIN ["COM"]
properties('MP2/aug-cc-pvtz', properties = ['dipole'])
--------------------------------------------------------------------------

    Molecular point group: c1
  Charge       = 0
  Multiplicity = 1
  Basis Set: AUG-CC-PVTZ
    Blend: AUG-CC-PVTZ
  Basis Set: (AUG-CC-PVTZ AUX)
    Blend: AUG-CC-PVTZ-JKFIT

    Orbital Energies [Eh]
    ---------------------

    Doubly Occupied:

       1A   -104.861316     2A   -104.861068     3A   -104.858206
       4A    -11.334912     5A    -11.334575     6A    -11.333432
       7A    -11.276668     8A    -11.276371     9A    -11.274660
      10A    -10.585122    11A    -10.584885    12A    -10.581734
      13A     -8.052036    14A     -8.051800    15A     -8.050054
      16A     -8.050041    17A     -8.049816    18A     -8.049804
      19A     -8.048599    20A     -8.046677    21A     -8.046674
      22A     -1.236409    23A     -1.175767    24A     -1.171324
      25A     -1.093641    26A     -1.021505    27A     -1.018120
      28A     -0.843331    29A     -0.840371    30A     -0.727112
      31A     -0.700949    32A     -0.641496    33A     -0.617756
      34A     -0.613984    35A     -0.592239    36A     -0.550817
      37A     -0.545276    38A     -0.523580    39A     -0.520606
      40A     -0.478695    41A     -0.477645    42A     -0.464901
      43A     -0.453996    44A     -0.360117    45A     -0.357126

  @DF-RHF Final Energy: -1607.58212246768539

   => Energetics <=

    Nuclear Repulsion Energy =            614.6568593099026430
    One-Electron Energy =               -3437.2075389191827526
    Two-Electron Energy =                1214.9685571415946015
    Total Energy =                      -1607.5821224676853944
  Basis Set: (AUG-CC-PVTZ AUX)
    Blend: AUG-CC-PVTZ-RI
    Molecular point group: c1

    Geometry (in Angstrom), charge = 0, multiplicity = 1:

       Center              X                  Y                   Z               Mass
    ------------   -----------------  -----------------  -----------------  -----------------
         CL          -2.739703050210    -1.488433586245     0.000024242223    34.968852682000
         CL           0.078390949790     3.115455413755    -0.000079757777    34.968852682000
         CL           2.656441949790    -1.627020586245     0.000064242223    34.968852682000
         C           -1.190504350210    -0.659522286245    -0.000009557777    12.000000000000
         C            0.033824949790     1.380436413755    -0.000060757777    12.000000000000
         C            1.176145949790    -0.720920586245     0.000071242223    12.000000000000
         C           -1.202233050210     0.734895413755    -0.000040757777    12.000000000000
         C           -0.037755050210    -1.407202586245     0.000023242223    12.000000000000
         C            1.235121949790     0.672310413755    -0.000011757777    12.000000000000
         H           -2.127625050210     1.301339413755    -0.000022757777     1.007825032230
         H           -0.065612050210    -2.491836586245     0.000061242223     1.007825032230
         H            2.188373949790     1.190492413755    -0.000003757777     1.007825032230

  Basis Set: AUG-CC-PVTZ
    Blend: AUG-CC-PVTZ
  Basis Set: (AUG-CC-PVTZ AUX)
    Blend: AUG-CC-PVTZ-JKFIT
	 Reference Energy          =   -1607.5821224676853944 [Eh]
	 Singles Energy            =      -0.0000000000000000 [Eh]
	 Same-Spin Energy          =      -0.4509784555796503 [Eh]
	 Opposite-Spin Energy      =      -1.3058429714262199 [Eh]
	 Correlation Energy        =      -1.7568214270058702 [Eh]
	 Total Energy              =   -1609.3389438946912833 [Eh]

	 ================> DF-SCS-MP2 Energies <==================
	-----------------------------------------------------------
	 SCS Same-Spin Scale       =       0.3333333333333333 [-]
	 SCS Opposite-Spin Scale   =       1.2000000000000000 [-]
	 SCS Same-Spin Energy      =      -0.1503261518598834 [Eh]
	 SCS Opposite-Spin Energy  =      -1.5670115657114638 [Eh]
	 SCS Correlation Energy    =      -1.7173377175713473 [Eh]
	 SCS Total Energy          =   -1609.2994601852567484 [Eh]
	-----------------------------------------------------------

  Dipole Moment: [D]
     X:     0.1111      Y:     0.0477      Z:     0.0000     Total:     0.1209

*** Psi4 exiting successfully. Buy a developer a beer!
