                               Psi4 1.3.2 release

  ==> Input File <==

--------------------------------------------------------------------------
#psi4
#
memory 32 gb

molecule  {
0 1
 Cl       -2.7082222    -1.5411459     0.0000249
 Cl        0.0800140     3.1154550    -0.0000800
 Cl        2.6580650    -1.6270210     0.0000640
  C       -1.2132190    -0.6595150    -0.0000090
  C        0.0354480     1.3804360    -0.0000610
  C        1.1777690    -0.7209210     0.0000710
  C       -1.2006100     0.7348950    -0.0000410
  C       -0.0361320    -1.4072030     0.0000230
  C        1.2367450     0.6723100    -0.0000120
  H       -2.1260020     1.3013390    -0.0000230
  H       -0.0639890    -2.4918370     0.0000610
  H        2.1899970     1.1904920    -0.0000040
units angstrom
no_reorient  #important for SAPT in psi4, default
symmetry c1  #important for SAPT in psi4, default
}

set PROPERTIES_ORIGIN ["COM"]
properties('MP2/aug-cc-pvtz', properties = ['dipole'])
--------------------------------------------------------------------------

    Molecular point group: c1
  Charge       = 0
  Multiplicity = 1
  Basis Set: AUG-CC-PVTZ
    Blend: AUG-CC-PVTZ
  Basis Set: (AUG-CC-PVTZ AUX)
    Blend: AUG-CC-PVTZ-JKFIT

    Orbital Energies [Eh]
    ---------------------

    Doubly Occupied:

       1A   -104.860919     2A   -104.860680     3A   -104.860477
       4A    -11.334281     5A    -11.333946     6A    -11.333595
       7A    -11.276623     8A    -11.275843     9A    -11.275069
      10A    -10.584715    11A    -10.584491    12A    -10.584288
      13A     -8.051631    14A     -8.051406    15A     -8.051204
      16A     -8.049645    17A     -8.049635    18A     -8.049420
      19A     -8.049411    20A     -8.049221    21A     -8.049210
      22A     -1.235044    23A     -1.175394    24A     -1.174682
      25A     -1.093615    26A     -1.018576    27A     -1.017364
      28A     -0.841145    29A     -0.840862    30A     -0.725351
      31A     -0.699441    32A     -0.643374    33A     -0.615011
      34A     -0.614437    35A     -0.591130    36A     -0.549402
      37A     -0.548728    38A     -0.523255    39A     -0.522781
      40A     -0.478866    41A     -0.478172    42A     -0.464841
      43A     -0.453363    44A     -0.357299    45A     -0.356558

  @DF-RHF Final Energy: -1607.58191743128941

   => Energetics <=

    Nuclear Repulsion Energy =            614.5699175666554765
    One-Electron Energy =               -3437.0348704764132890
    Two-Electron Energy =                1214.8830354784684005
    Total Energy =                      -1607.5819174312894120
  Basis Set: (AUG-CC-PVTZ AUX)
    Blend: AUG-CC-PVTZ-RI
    Molecular point group: c1

    Geometry (in Angstrom), charge = 0, multiplicity = 1:

       Center              X                  Y                   Z               Mass
    ------------   -----------------  -----------------  -----------------  -----------------
         CL          -2.714024878238    -1.530901602923     0.000024913956    34.968852682000
         CL           0.074211321762     3.125699297077    -0.000079986044    34.968852682000
         CL           2.652262321762    -1.616776702923     0.000064013956    34.968852682000
         C           -1.219021678238    -0.649270702923    -0.000008986044    12.000000000000
         C            0.029645321762     1.390680297077    -0.000060986044    12.000000000000
         C            1.171966321762    -0.710676702923     0.000071013956    12.000000000000
         C           -1.206412678238     0.745139297077    -0.000040986044    12.000000000000
         C           -0.041934678238    -1.396958702923     0.000023013956    12.000000000000
         C            1.230942321762     0.682554297077    -0.000011986044    12.000000000000
         H           -2.131804678238     1.311583297077    -0.000022986044     1.007825032230
         H           -0.069791678238    -2.481592702923     0.000061013956     1.007825032230
         H            2.184194321762     1.200736297077    -0.000003986044     1.007825032230

  Basis Set: AUG-CC-PVTZ
    Blend: AUG-CC-PVTZ
  Basis Set: (AUG-CC-PVTZ AUX)
    Blend: AUG-CC-PVTZ-JKFIT
	 Reference Energy          =   -1607.5819174312894120 [Eh]
	 Singles Energy            =      -0.0000000000000000 [Eh]
	 Same-Spin Energy          =      -0.4511613582399994 [Eh]
	 Opposite-Spin Energy      =      -1.3060934721798567 [Eh]
	 Correlation Energy        =      -1.7572548304198561 [Eh]
	 Total Energy              =   -1609.3391722617093365 [Eh]

	 ================> DF-SCS-MP2 Energies <==================
	-----------------------------------------------------------
	 SCS Same-Spin Scale       =       0.3333333333333333 [-]
	 SCS Opposite-Spin Scale   =       1.2000000000000000 [-]
	 SCS Same-Spin Energy      =      -0.1503871194133331 [Eh]
	 SCS Opposite-Spin Energy  =      -1.5673121666158281 [Eh]
	 SCS Correlation Energy    =      -1.7176992860291611 [Eh]
	 SCS Total Energy          =   -1609.2996167173184858 [Eh]
	-----------------------------------------------------------

  Dipole Moment: [D]
     X:    -0.0118      Y:     0.0216      Z:     0.0000     Total:     0.0246

*** Psi4 exiting successfully. Buy a developer a beer!
