                               Psi4 1.3.2 release

  ==> Input File <==

--------------------------------------------------------------------------
#psi4
#
memory 32 gb

molecule  {
0 1
 Cl       -2.8163723    -1.3245017     0.0000210
 Cl        0.0800140     3.1154550    -0.0000800
 Cl        2.6580650    -1.6270210     0.0000640
  C       -1.2132190    -0.6595150    -0.0000090
  C        0.0354480     1.3804360    -0.0000610
  C        1.1777690    -0.7209210     0.0000710
  C       -1.2006100     0.7348950    -0.0000410
  C       -0.0361320    -1.4072030     0.0000230
  C        1.2367450     0.6723100    -0.0000120
  H       -2.1260020     1.3013390    -0.0000230
  H       -0.0639890    -2.4918370     0.0000610
  H        2.1899970     1.1904920    -0.0000040
units angstrom
no_reorient  #important for SAPT in psi4, default
symmetry c1  #important for SAPT in psi4, default
}

set PROPERTIES_ORIGIN ["COM"]
properties('MP2/aug-cc-pvtz', properties = ['dipole'])
--------------------------------------------------------------------------

    Molecular point group: c1
  Charge       = 0
  Multiplicity = 1
  Basis Set: AUG-CC-PVTZ
    Blend: AUG-CC-PVTZ
  Basis Set: (AUG-CC-PVTZ AUX)
    Blend: AUG-CC-PVTZ-JKFIT

    Orbital Energies [Eh]
    ---------------------

    Doubly Occupied:

       1A   -104.861326     2A   -104.860504     3A   -104.860002
       4A    -11.334876     5A    -11.333913     6A    -11.332814
       7A    -11.278173     8A    -11.275812     9A    -11.273514
      10A    -10.585107    11A    -10.584375    12A    -10.583827
      13A     -8.052024    14A     -8.051284    15A     -8.050742
      16A     -8.050035    17A     -8.050026    18A     -8.049288
      19A     -8.049286    20A     -8.048763    21A     -8.048751
      22A     -1.235195    23A     -1.176301    24A     -1.174112
      25A     -1.093575    26A     -1.019637    27A     -1.015981
      28A     -0.841453    29A     -0.840590    30A     -0.725417
      31A     -0.699585    32A     -0.643336    33A     -0.615498
      34A     -0.613764    35A     -0.591190    36A     -0.550101
      37A     -0.547964    38A     -0.523767    39A     -0.522329
      40A     -0.479346    41A     -0.477250    42A     -0.464291
      43A     -0.453297    44A     -0.357973    45A     -0.355743

  @DF-RHF Final Energy: -1607.57969788559512

   => Energetics <=

    Nuclear Repulsion Energy =            614.7926277171942502
    One-Electron Energy =               -3437.4803812014361029
    Two-Electron Energy =                1215.1080555986468426
    Total Energy =                      -1607.5796978855951238
  Basis Set: (AUG-CC-PVTZ AUX)
    Blend: AUG-CC-PVTZ-RI
    Molecular point group: c1

    Geometry (in Angstrom), charge = 0, multiplicity = 1:

       Center              X                  Y                   Z               Mass
    ------------   -----------------  -----------------  -----------------  -----------------
         CL          -2.801156336445    -1.356361541859     0.000021771909    34.968852682000
         CL           0.095229963555     3.083595158141    -0.000079228091    34.968852682000
         CL           2.673280963555    -1.658880841859     0.000064771909    34.968852682000
         C           -1.198003036445    -0.691374841859    -0.000008228091    12.000000000000
         C            0.050663963555     1.348576158141    -0.000060228091    12.000000000000
         C            1.192984963555    -0.752780841859     0.000071771909    12.000000000000
         C           -1.185394036445     0.703035158141    -0.000040228091    12.000000000000
         C           -0.020916036445    -1.439062841859     0.000023771909    12.000000000000
         C            1.251960963555     0.640450158141    -0.000011228091    12.000000000000
         H           -2.110786036445     1.269479158141    -0.000022228091     1.007825032230
         H           -0.048773036445    -2.523696841859     0.000061771909     1.007825032230
         H            2.205212963555     1.158632158141    -0.000003228091     1.007825032230

  Basis Set: AUG-CC-PVTZ
    Blend: AUG-CC-PVTZ
  Basis Set: (AUG-CC-PVTZ AUX)
    Blend: AUG-CC-PVTZ-JKFIT
	 Reference Energy          =   -1607.5796978855951238 [Eh]
	 Singles Energy            =      -0.0000000000000000 [Eh]
	 Same-Spin Energy          =      -0.4512650099653248 [Eh]
	 Opposite-Spin Energy      =      -1.3062844310819921 [Eh]
	 Correlation Energy        =      -1.7575494410473169 [Eh]
	 Total Energy              =   -1609.3372473266424549 [Eh]

	 ================> DF-SCS-MP2 Energies <==================
	-----------------------------------------------------------
	 SCS Same-Spin Scale       =       0.3333333333333333 [-]
	 SCS Opposite-Spin Scale   =       1.2000000000000000 [-]
	 SCS Same-Spin Energy      =      -0.1504216699884416 [Eh]
	 SCS Opposite-Spin Energy  =      -1.5675413172983905 [Eh]
	 SCS Correlation Energy    =      -1.7179629872868321 [Eh]
	 SCS Total Energy          =   -1609.2976608728820338 [Eh]
	-----------------------------------------------------------

  Dipole Moment: [D]
     X:     0.0351      Y:    -0.0646      Z:     0.0000     Total:     0.0735

*** Psi4 exiting successfully. Buy a developer a beer!
