                               Psi4 1.3.2 release

  ==> Input File <==

--------------------------------------------------------------------------
#psi4
#
memory 32 gb

molecule  {
0 1
 Cl       -2.7380800    -1.4884340     0.0000240
 Cl        0.0800140     3.1154550    -0.0000800
 Cl        2.6580650    -1.6270210     0.0000640
  C       -1.3589055    -0.6505583    -0.0000043
  C        0.0354480     1.3804360    -0.0000610
  C        1.1777690    -0.7209210     0.0000710
  C       -1.2006100     0.7348950    -0.0000410
  C       -0.0361320    -1.4072030     0.0000230
  C        1.2367450     0.6723100    -0.0000120
  H       -2.1260020     1.3013390    -0.0000230
  H       -0.0639890    -2.4918370     0.0000610
  H        2.1899970     1.1904920    -0.0000040
units angstrom
no_reorient  #important for SAPT in psi4, default
symmetry c1  #important for SAPT in psi4, default
}

set PROPERTIES_ORIGIN ["COM"]
properties('MP2/aug-cc-pvtz', properties = ['dipole'])
--------------------------------------------------------------------------

    Molecular point group: c1
  Charge       = 0
  Multiplicity = 1
  Basis Set: AUG-CC-PVTZ
    Blend: AUG-CC-PVTZ
  Basis Set: (AUG-CC-PVTZ AUX)
    Blend: AUG-CC-PVTZ-JKFIT

    Orbital Energies [Eh]
    ---------------------

    Doubly Occupied:

       1A   -104.873511     2A   -104.858748     3A   -104.857349
       4A    -11.338269     5A    -11.330895     6A    -11.328827
       7A    -11.281829     8A    -11.272740     9A    -11.271929
      10A    -10.599660    11A    -10.582468    12A    -10.581140
      13A     -8.066937    14A     -8.064459    15A     -8.064403
      16A     -8.049389    17A     -8.048061    18A     -8.047397
      19A     -8.047395    20A     -8.046070    21A     -8.046066
      22A     -1.236986    23A     -1.198884    24A     -1.171136
      25A     -1.089927    26A     -1.017275    27A     -0.998683
      28A     -0.844943    29A     -0.826884    30A     -0.715531
      31A     -0.692487    32A     -0.663639    33A     -0.615742
      34A     -0.599451    35A     -0.588909    36A     -0.563073
      37A     -0.542179    38A     -0.538646    39A     -0.519994
      40A     -0.479514    41A     -0.475059    42A     -0.460764
      43A     -0.448564    44A     -0.356373    45A     -0.338648

  @DF-RHF Final Energy: -1607.55698339290689

   => Energetics <=

    Nuclear Repulsion Energy =            614.1028117610516119
    One-Electron Energy =               -3436.0379215526254484
    Two-Electron Energy =                1214.3781263986668364
    Total Energy =                      -1607.5569833929068864
  Basis Set: (AUG-CC-PVTZ AUX)
    Blend: AUG-CC-PVTZ-RI
    Molecular point group: c1

    Geometry (in Angstrom), charge = 0, multiplicity = 1:

       Center              X                  Y                   Z               Mass
    ------------   -----------------  -----------------  -----------------  -----------------
         CL          -2.728363695882    -1.489031445302     0.000023875413    34.968852682000
         CL           0.089730304118     3.114857554698    -0.000080124587    34.968852682000
         CL           2.667781304118    -1.627618445302     0.000063875413    34.968852682000
         C           -1.349189195882    -0.651155745302    -0.000004424587    12.000000000000
         C            0.045164304118     1.379838554698    -0.000061124587    12.000000000000
         C            1.187485304118    -0.721518445302     0.000070875413    12.000000000000
         C           -1.190893695882     0.734297554698    -0.000041124587    12.000000000000
         C           -0.026415695882    -1.407800445302     0.000022875413    12.000000000000
         C            1.246461304118     0.671712554698    -0.000012124587    12.000000000000
         H           -2.116285695882     1.300741554698    -0.000023124587     1.007825032230
         H           -0.054272695882    -2.492434445302     0.000060875413     1.007825032230
         H            2.199713304118     1.189894554698    -0.000004124587     1.007825032230

  Basis Set: AUG-CC-PVTZ
    Blend: AUG-CC-PVTZ
  Basis Set: (AUG-CC-PVTZ AUX)
    Blend: AUG-CC-PVTZ-JKFIT
	 Reference Energy          =   -1607.5569833929068864 [Eh]
	 Singles Energy            =      -0.0000000000000000 [Eh]
	 Same-Spin Energy          =      -0.4527678412081912 [Eh]
	 Opposite-Spin Energy      =      -1.3090900482497605 [Eh]
	 Correlation Energy        =      -1.7618578894579517 [Eh]
	 Total Energy              =   -1609.3188412823649287 [Eh]

	 ================> DF-SCS-MP2 Energies <==================
	-----------------------------------------------------------
	 SCS Same-Spin Scale       =       0.3333333333333333 [-]
	 SCS Opposite-Spin Scale   =       1.2000000000000000 [-]
	 SCS Same-Spin Energy      =      -0.1509226137360637 [Eh]
	 SCS Opposite-Spin Energy  =      -1.5709080578997126 [Eh]
	 SCS Correlation Energy    =      -1.7218306716357763 [Eh]
	 SCS Total Energy          =   -1609.2788140645427575 [Eh]
	-----------------------------------------------------------

  Dipole Moment: [D]
     X:    -0.6382      Y:    -0.2870      Z:     0.0000     Total:     0.6998

*** Psi4 exiting successfully. Buy a developer a beer!
