                               Psi4 1.3.2 release

  ==> Input File <==

--------------------------------------------------------------------------
#psi4
#
memory 32 gb

molecule  {
0 1
 Cl       -2.7380800    -1.4884340     0.0000240
 Cl        0.0800140     3.1154550    -0.0000800
 Cl        2.6580650    -1.6270210     0.0000640
  C       -1.2132190    -0.6595150    -0.0000090
  C        0.0354480     1.3804360    -0.0000610
  C        1.1777690    -0.7209210     0.0000710
  C       -1.1762761     0.7344626    -0.0000407
  C       -0.0361320    -1.4072030     0.0000230
  C        1.2367450     0.6723100    -0.0000120
  H       -2.1260020     1.3013390    -0.0000230
  H       -0.0639890    -2.4918370     0.0000610
  H        2.1899970     1.1904920    -0.0000040
units angstrom
no_reorient  #important for SAPT in psi4, default
symmetry c1  #important for SAPT in psi4, default
}

set PROPERTIES_ORIGIN ["COM"]
properties('MP2/aug-cc-pvtz', properties = ['dipole'])
--------------------------------------------------------------------------

    Molecular point group: c1
  Charge       = 0
  Multiplicity = 1
  Basis Set: AUG-CC-PVTZ
    Blend: AUG-CC-PVTZ
  Basis Set: (AUG-CC-PVTZ AUX)
    Blend: AUG-CC-PVTZ-JKFIT

    Orbital Energies [Eh]
    ---------------------

    Doubly Occupied:

       1A   -104.861827     2A   -104.860670     3A   -104.860342
       4A    -11.333656     5A    -11.333251     6A    -11.331251
       7A    -11.275855     8A    -11.275729     9A    -11.274983
      10A    -10.585543    11A    -10.584465    12A    -10.584146
      13A     -8.052460    14A     -8.051382    15A     -8.051063
      16A     -8.050472    17A     -8.050461    18A     -8.049392
      19A     -8.049384    20A     -8.049077    21A     -8.049069
      22A     -1.236312    23A     -1.175645    24A     -1.174790
      25A     -1.094697    26A     -1.019080    27A     -1.017680
      28A     -0.843865    29A     -0.839427    30A     -0.723153
      31A     -0.700681    32A     -0.642987    33A     -0.615038
      34A     -0.611338    35A     -0.592216    36A     -0.551122
      37A     -0.545438    38A     -0.523421    39A     -0.523059
      40A     -0.478999    41A     -0.478690    42A     -0.465287
      43A     -0.454033    44A     -0.358761    45A     -0.356248

  @DF-RHF Final Energy: -1607.58162330191340

   => Energetics <=

    Nuclear Repulsion Energy =            614.9141774807461616
    One-Electron Energy =               -3437.7187070816407868
    Two-Electron Energy =                1215.2229062989811155
    Total Energy =                      -1607.5816233019133961
  Basis Set: (AUG-CC-PVTZ AUX)
    Blend: AUG-CC-PVTZ-RI
    Molecular point group: c1

    Geometry (in Angstrom), charge = 0, multiplicity = 1:

       Center              X                  Y                   Z               Mass
    ------------   -----------------  -----------------  -----------------  -----------------
         CL          -2.739702796778    -1.488405261902     0.000024168861    34.968852682000
         CL           0.078391203222     3.115483738098    -0.000079831139    34.968852682000
         CL           2.656442203222    -1.626992261902     0.000064168861    34.968852682000
         C           -1.214841796778    -0.659486261902    -0.000008831139    12.000000000000
         C            0.033825203222     1.380464738098    -0.000060831139    12.000000000000
         C            1.176146203222    -0.720892261902     0.000071168861    12.000000000000
         C           -1.177898896778     0.734491338098    -0.000040531139    12.000000000000
         C           -0.037754796778    -1.407174261902     0.000023168861    12.000000000000
         C            1.235122203222     0.672338738098    -0.000011831139    12.000000000000
         H           -2.127624796778     1.301367738098    -0.000022831139     1.007825032230
         H           -0.065611796778    -2.491808261902     0.000061168861     1.007825032230
         H            2.188374203222     1.190520738098    -0.000003831139     1.007825032230

  Basis Set: AUG-CC-PVTZ
    Blend: AUG-CC-PVTZ
  Basis Set: (AUG-CC-PVTZ AUX)
    Blend: AUG-CC-PVTZ-JKFIT
	 Reference Energy          =   -1607.5816233019133961 [Eh]
	 Singles Energy            =      -0.0000000000000000 [Eh]
	 Same-Spin Energy          =      -0.4511527797986605 [Eh]
	 Opposite-Spin Energy      =      -1.3059991376149189 [Eh]
	 Correlation Energy        =      -1.7571519174135795 [Eh]
	 Total Energy              =   -1609.3387752193268625 [Eh]

	 ================> DF-SCS-MP2 Energies <==================
	-----------------------------------------------------------
	 SCS Same-Spin Scale       =       0.3333333333333333 [-]
	 SCS Opposite-Spin Scale   =       1.2000000000000000 [-]
	 SCS Same-Spin Energy      =      -0.1503842599328868 [Eh]
	 SCS Opposite-Spin Energy  =      -1.5671989651379026 [Eh]
	 SCS Correlation Energy    =      -1.7175832250707894 [Eh]
	 SCS Total Energy          =   -1609.2992065269841078 [Eh]
	-----------------------------------------------------------

  Dipole Moment: [D]
     X:    -0.0279      Y:    -0.0193      Z:     0.0000     Total:     0.0340

*** Psi4 exiting successfully. Buy a developer a beer!
