                               Psi4 1.3.2 release

  ==> Input File <==

--------------------------------------------------------------------------
#psi4
#
memory 32 gb

molecule  {
0 1
 Cl       -2.7380800    -1.4884340     0.0000240
 Cl        0.0800140     3.1154550    -0.0000800
 Cl        2.6580650    -1.6270210     0.0000640
  C       -1.2132190    -0.6595150    -0.0000090
  C        0.0354480     1.3804360    -0.0000610
  C        1.1777690    -0.7209210     0.0000710
  C       -1.0549235     0.7259383    -0.0000390
  C       -0.0361320    -1.4072030     0.0000230
  C        1.2367450     0.6723100    -0.0000120
  H       -2.1260020     1.3013390    -0.0000230
  H       -0.0639890    -2.4918370     0.0000610
  H        2.1899970     1.1904920    -0.0000040
units angstrom
no_reorient  #important for SAPT in psi4, default
symmetry c1  #important for SAPT in psi4, default
}

set PROPERTIES_ORIGIN ["COM"]
properties('MP2/aug-cc-pvtz', properties = ['dipole'])
--------------------------------------------------------------------------

    Molecular point group: c1
  Charge       = 0
  Multiplicity = 1
  Basis Set: AUG-CC-PVTZ
    Blend: AUG-CC-PVTZ
  Basis Set: (AUG-CC-PVTZ AUX)
    Blend: AUG-CC-PVTZ-JKFIT

    Orbital Energies [Eh]
    ---------------------

    Doubly Occupied:

       1A   -104.867270     2A   -104.860799     3A   -104.858856
       4A    -11.333302     5A    -11.330119     6A    -11.317183
       7A    -11.276311     8A    -11.275540     9A    -11.271030
      10A    -10.590571    11A    -10.584532    12A    -10.582662
      13A     -8.057494    14A     -8.055481    15A     -8.055473
      16A     -8.051454    17A     -8.049584    18A     -8.049433
      19A     -8.049432    20A     -8.047594    21A     -8.047592
      22A     -1.244907    23A     -1.179306    24A     -1.173911
      25A     -1.100968    26A     -1.026334    27A     -1.015783
      28A     -0.858875    29A     -0.832540    30A     -0.715258
      31A     -0.706138    32A     -0.643589    33A     -0.617437
      34A     -0.599352    35A     -0.596135    36A     -0.560116
      37A     -0.525970    38A     -0.523485    39A     -0.518648
      40A     -0.480859    41A     -0.479032    42A     -0.466012
      43A     -0.457906    44A     -0.368493    45A     -0.353272

  @DF-RHF Final Energy: -1607.55379133314182

   => Energetics <=

    Nuclear Repulsion Energy =            616.8952889983901287
    One-Electron Energy =               -3441.5860813963686269
    Two-Electron Energy =                1217.1370010648365678
    Total Energy =                      -1607.5537913331418167
  Basis Set: (AUG-CC-PVTZ AUX)
    Blend: AUG-CC-PVTZ-RI
    Molecular point group: c1

    Geometry (in Angstrom), charge = 0, multiplicity = 1:

       Center              X                  Y                   Z               Mass
    ------------   -----------------  -----------------  -----------------  -----------------
         CL          -2.747796116023    -1.487836754254     0.000024055483    34.968852682000
         CL           0.070297883977     3.116052245746    -0.000079944517    34.968852682000
         CL           2.648348883977    -1.626423754254     0.000064055483    34.968852682000
         C           -1.222935116023    -0.658917754254    -0.000008944517    12.000000000000
         C            0.025731883977     1.381033245746    -0.000060944517    12.000000000000
         C            1.168052883977    -0.720323754254     0.000071055483    12.000000000000
         C           -1.064639616023     0.726535545746    -0.000038944517    12.000000000000
         C           -0.045848116023    -1.406605754254     0.000023055483    12.000000000000
         C            1.227028883977     0.672907245746    -0.000011944517    12.000000000000
         H           -2.135718116023     1.301936245746    -0.000022944517     1.007825032230
         H           -0.073705116023    -2.491239754254     0.000061055483     1.007825032230
         H            2.180280883977     1.191089245746    -0.000003944517     1.007825032230

  Basis Set: AUG-CC-PVTZ
    Blend: AUG-CC-PVTZ
  Basis Set: (AUG-CC-PVTZ AUX)
    Blend: AUG-CC-PVTZ-JKFIT
	 Reference Energy          =   -1607.5537913331418167 [Eh]
	 Singles Energy            =      -0.0000000000000000 [Eh]
	 Same-Spin Energy          =      -0.4514485599175295 [Eh]
	 Opposite-Spin Energy      =      -1.3068574936014994 [Eh]
	 Correlation Energy        =      -1.7583060535190289 [Eh]
	 Total Energy              =   -1609.3120973866607528 [Eh]

	 ================> DF-SCS-MP2 Energies <==================
	-----------------------------------------------------------
	 SCS Same-Spin Scale       =       0.3333333333333333 [-]
	 SCS Opposite-Spin Scale   =       1.2000000000000000 [-]
	 SCS Same-Spin Energy      =      -0.1504828533058432 [Eh]
	 SCS Opposite-Spin Energy  =      -1.5682289923217991 [Eh]
	 SCS Correlation Energy    =      -1.7187118456276422 [Eh]
	 SCS Total Energy          =   -1609.2725031787695116 [Eh]
	-----------------------------------------------------------

  Dipole Moment: [D]
     X:    -0.1432      Y:    -0.1355      Z:     0.0000     Total:     0.1972

*** Psi4 exiting successfully. Buy a developer a beer!
