                               Psi4 1.3.2 release

  ==> Input File <==

--------------------------------------------------------------------------
#psi4
#
memory 32 gb

molecule  {
0 1
 Cl       -2.7380800    -1.4884340     0.0000240
 Cl        0.0800140     3.1154550    -0.0000800
 Cl        2.6580650    -1.6270210     0.0000640
  C       -1.3104574    -0.6552387    -0.0000059
  C        0.0354480     1.3804360    -0.0000610
  C        1.1777690    -0.7209210     0.0000710
  C       -1.2006100     0.7348950    -0.0000410
  C       -0.0361320    -1.4072030     0.0000230
  C        1.2367450     0.6723100    -0.0000120
  H       -2.1260020     1.3013390    -0.0000230
  H       -0.0639890    -2.4918370     0.0000610
  H        2.1899970     1.1904920    -0.0000040
units angstrom
no_reorient  #important for SAPT in psi4, default
symmetry c1  #important for SAPT in psi4, default
}

set PROPERTIES_ORIGIN ["COM"]
properties('MP2/aug-cc-pvtz', properties = ['dipole'])
--------------------------------------------------------------------------

    Molecular point group: c1
  Charge       = 0
  Multiplicity = 1
  Basis Set: AUG-CC-PVTZ
    Blend: AUG-CC-PVTZ
  Basis Set: (AUG-CC-PVTZ AUX)
    Blend: AUG-CC-PVTZ-JKFIT

    Orbital Energies [Eh]
    ---------------------

    Doubly Occupied:

       1A   -104.869547     2A   -104.859370     3A   -104.858432
       4A    -11.336650     5A    -11.331803     6A    -11.330455
       7A    -11.280154     8A    -11.273786     9A    -11.273056
      10A    -10.594789    11A    -10.583118    12A    -10.582226
      13A     -8.061935    14A     -8.059646    15A     -8.059606
      16A     -8.050037    17A     -8.049146    18A     -8.048048
      19A     -8.048044    20A     -8.047154    21A     -8.047153
      22A     -1.233588    23A     -1.191785    24A     -1.172347
      25A     -1.091585    26A     -1.017495    27A     -1.004731
      28A     -0.843618    29A     -0.831547    30A     -0.718669
      31A     -0.694259    32A     -0.655672    33A     -0.616058
      34A     -0.603962    35A     -0.588689    36A     -0.559888
      37A     -0.543347    38A     -0.533468    39A     -0.520954
      40A     -0.480177    41A     -0.476960    42A     -0.462986
      43A     -0.450261    44A     -0.356488    45A     -0.344542

  @DF-RHF Final Energy: -1607.57008775975669

   => Energetics <=

    Nuclear Repulsion Energy =            614.2039536097219070
    One-Electron Energy =               -3436.2736226914785220
    Two-Electron Energy =                1214.4995813220000400
    Total Energy =                      -1607.5700877597566887
  Basis Set: (AUG-CC-PVTZ AUX)
    Blend: AUG-CC-PVTZ-RI
    Molecular point group: c1

    Geometry (in Angstrom), charge = 0, multiplicity = 1:

       Center              X                  Y                   Z               Mass
    ------------   -----------------  -----------------  -----------------  -----------------
         CL          -2.731594825171    -1.488719297302     0.000023982122    34.968852682000
         CL           0.086499174829     3.115169702698    -0.000080017878    34.968852682000
         CL           2.664550174829    -1.627306297302     0.000063982122    34.968852682000
         C           -1.303972225171    -0.655523997302    -0.000005917878    12.000000000000
         C            0.041933174829     1.380150702698    -0.000061017878    12.000000000000
         C            1.184254174829    -0.721206297302     0.000070982122    12.000000000000
         C           -1.194124825171     0.734609702698    -0.000041017878    12.000000000000
         C           -0.029646825171    -1.407488297302     0.000022982122    12.000000000000
         C            1.243230174829     0.672024702698    -0.000012017878    12.000000000000
         H           -2.119516825171     1.301053702698    -0.000023017878     1.007825032230
         H           -0.057503825171    -2.492122297302     0.000060982122     1.007825032230
         H            2.196482174829     1.190206702698    -0.000004017878     1.007825032230

  Basis Set: AUG-CC-PVTZ
    Blend: AUG-CC-PVTZ
  Basis Set: (AUG-CC-PVTZ AUX)
    Blend: AUG-CC-PVTZ-JKFIT
	 Reference Energy          =   -1607.5700877597566887 [Eh]
	 Singles Energy            =      -0.0000000000000000 [Eh]
	 Same-Spin Energy          =      -0.4521163126497072 [Eh]
	 Opposite-Spin Energy      =      -1.3077611462565353 [Eh]
	 Correlation Energy        =      -1.7598774589062425 [Eh]
	 Total Energy              =   -1609.3299652186628919 [Eh]

	 ================> DF-SCS-MP2 Energies <==================
	-----------------------------------------------------------
	 SCS Same-Spin Scale       =       0.3333333333333333 [-]
	 SCS Opposite-Spin Scale   =       1.2000000000000000 [-]
	 SCS Same-Spin Energy      =      -0.1507054375499024 [Eh]
	 SCS Opposite-Spin Energy  =      -1.5693133755078423 [Eh]
	 SCS Correlation Energy    =      -1.7200188130577447 [Eh]
	 SCS Total Energy          =   -1609.2901065728144658 [Eh]
	-----------------------------------------------------------

  Dipole Moment: [D]
     X:    -0.4288      Y:    -0.1907      Z:     0.0000     Total:     0.4693

*** Psi4 exiting successfully. Buy a developer a beer!
