                               Psi4 1.3.2 release

  ==> Input File <==

--------------------------------------------------------------------------
#psi4
#
memory 32 gb

molecule  {
0 1
 Cl       -2.7380800    -1.4884340     0.0000240
 Cl        0.0800140     3.1154550    -0.0000800
 Cl        2.6580650    -1.6270210     0.0000640
  C       -1.1645471    -0.6591056    -0.0000106
  C        0.0354480     1.3804360    -0.0000610
  C        1.1777690    -0.7209210     0.0000710
  C       -1.2006100     0.7348950    -0.0000410
  C       -0.0361320    -1.4072030     0.0000230
  C        1.2367450     0.6723100    -0.0000120
  H       -2.1260020     1.3013390    -0.0000230
  H       -0.0639890    -2.4918370     0.0000610
  H        2.1899970     1.1904920    -0.0000040
units angstrom
no_reorient  #important for SAPT in psi4, default
symmetry c1  #important for SAPT in psi4, default
}

set PROPERTIES_ORIGIN ["COM"]
properties('MP2/aug-cc-pvtz', properties = ['dipole'])
--------------------------------------------------------------------------

    Molecular point group: c1
  Charge       = 0
  Multiplicity = 1
  Basis Set: AUG-CC-PVTZ
    Blend: AUG-CC-PVTZ
  Basis Set: (AUG-CC-PVTZ AUX)
    Blend: AUG-CC-PVTZ-JKFIT

    Orbital Energies [Eh]
    ---------------------

    Doubly Occupied:

       1A   -104.861957     2A   -104.861452     3A   -104.855560
       4A    -11.335925     5A    -11.335242     6A    -11.332999
       7A    -11.277548     8A    -11.276908     9A    -11.273465
      10A    -10.585765    11A    -10.585283    12A    -10.578848
      13A     -8.052678    14A     -8.052196    15A     -8.050697
      16A     -8.050682    17A     -8.050214    18A     -8.050200
      19A     -8.045664    20A     -8.043804    21A     -8.043802
      22A     -1.238094    23A     -1.176561    24A     -1.168068
      25A     -1.093374    26A     -1.025079    27A     -1.018250
      28A     -0.845632    29A     -0.839758    30A     -0.728931
      31A     -0.702558    32A     -0.640105    33A     -0.620881
      34A     -0.613134    35A     -0.593548    36A     -0.552581
      37A     -0.541051    38A     -0.524174    39A     -0.518355
      40A     -0.478752    41A     -0.476740    42A     -0.464601
      43A     -0.454509    44A     -0.363311    45A     -0.357355

  @DF-RHF Final Energy: -1607.58076843134745

   => Energetics <=

    Nuclear Repulsion Energy =            614.7839492963374823
    One-Electron Energy =               -3437.4568545600104699
    Two-Electron Energy =                1215.0921368323254228
    Total Energy =                      -1607.5807684313474510
  Basis Set: (AUG-CC-PVTZ AUX)
    Blend: AUG-CC-PVTZ-RI
    Molecular point group: c1

    Geometry (in Angstrom), charge = 0, multiplicity = 1:

       Center              X                  Y                   Z               Mass
    ------------   -----------------  -----------------  -----------------  -----------------
         CL          -2.741325961043    -1.488461403724     0.000024295577    34.968852682000
         CL           0.076768038957     3.115427596276    -0.000079704423    34.968852682000
         CL           2.654819038957    -1.627048403724     0.000064295577    34.968852682000
         C           -1.167793061043    -0.659133003724    -0.000010304423    12.000000000000
         C            0.032202038957     1.380408596276    -0.000060704423    12.000000000000
         C            1.174523038957    -0.720948403724     0.000071295577    12.000000000000
         C           -1.203855961043     0.734867596276    -0.000040704423    12.000000000000
         C           -0.039377961043    -1.407230403724     0.000023295577    12.000000000000
         C            1.233499038957     0.672282596276    -0.000011704423    12.000000000000
         H           -2.129247961043     1.301311596276    -0.000022704423     1.007825032230
         H           -0.067234961043    -2.491864403724     0.000061295577     1.007825032230
         H            2.186751038957     1.190464596276    -0.000003704423     1.007825032230

  Basis Set: AUG-CC-PVTZ
    Blend: AUG-CC-PVTZ
  Basis Set: (AUG-CC-PVTZ AUX)
    Blend: AUG-CC-PVTZ-JKFIT
	 Reference Energy          =   -1607.5807684313474510 [Eh]
	 Singles Energy            =      -0.0000000000000000 [Eh]
	 Same-Spin Energy          =      -0.4508378469436389 [Eh]
	 Opposite-Spin Energy      =      -1.3056891865958473 [Eh]
	 Correlation Energy        =      -1.7565270335394862 [Eh]
	 Total Energy              =   -1609.3372954648868927 [Eh]

	 ================> DF-SCS-MP2 Energies <==================
	-----------------------------------------------------------
	 SCS Same-Spin Scale       =       0.3333333333333333 [-]
	 SCS Opposite-Spin Scale   =       1.2000000000000000 [-]
	 SCS Same-Spin Energy      =      -0.1502792823145463 [Eh]
	 SCS Opposite-Spin Energy  =      -1.5668270239150168 [Eh]
	 SCS Correlation Energy    =      -1.7171063062295631 [Eh]
	 SCS Total Energy          =   -1609.2978747375771036 [Eh]
	-----------------------------------------------------------

  Dipole Moment: [D]
     X:     0.2245      Y:     0.0956      Z:     0.0000     Total:     0.2440

*** Psi4 exiting successfully. Buy a developer a beer!
