                               Psi4 1.4a3.dev225

  ==> Input File <==

--------------------------------------------------------------------------
#psi4
#
memory 32 gb

molecule  {
0 1
 Cl       -3.1169330    -0.0000020     0.0000000
 Cl        1.5584670     2.6993450     0.0000000
 Cl        1.5584650    -2.6993450     0.0000000
  C       -1.4008510     0.0000010     0.0000000
  C        0.6904270     1.1958530     0.0000000
  C        0.6904270    -1.1958530     0.0000000
  C       -0.7037920     1.2190070     0.0000000
  C       -0.7037920    -1.2190040     0.0000000
  C        1.4075860     0.0000000     0.0000000
  H       -1.2463690     2.1587740     0.0000000
  H       -1.2463710    -2.1587710     0.0000000
  H        2.4927370     0.0000050     0.0000000
units angstrom
no_reorient  #important for SAPT in psi4, default
symmetry c1  #important for SAPT in psi4, default
}

set PROPERTIES_ORIGIN ["COM"]
properties('MP2/aug-cc-pvtz', properties = ['dipole'])
--------------------------------------------------------------------------

    Molecular point group: c1
  Charge       = 0
  Multiplicity = 1
  Basis Set: AUG-CC-PVTZ
    Blend: AUG-CC-PVTZ
  Basis Set: (AUG-CC-PVTZ AUX)
    Blend: AUG-CC-PVTZ-JKFIT

    Orbital Energies [Eh]
    ---------------------

    Doubly Occupied:

       1A   -104.862952     2A   -104.860271     3A   -104.860270
       4A    -11.334576     5A    -11.333291     6A    -11.333284
       7A    -11.276118     8A    -11.276094     9A    -11.275414
      10A    -10.587037    11A    -10.584056    12A    -10.584055
      13A     -8.054003    14A     -8.051955    15A     -8.051939
      16A     -8.050971    17A     -8.050971    18A     -8.048987
      19A     -8.048986    20A     -8.048978    21A     -8.048978
      22A     -1.233983    23A     -1.178686    24A     -1.174225
      25A     -1.093365    26A     -1.016921    27A     -1.015771
      28A     -0.840678    29A     -0.839772    30A     -0.723697
      31A     -0.698079    32A     -0.645506    33A     -0.615075
      34A     -0.612179    35A     -0.590228    36A     -0.551982
      37A     -0.547648    38A     -0.525328    39A     -0.522451
      40A     -0.479227    41A     -0.478416    42A     -0.464753
      43A     -0.452749    44A     -0.356109    45A     -0.354757

  @DF-RHF Final Energy: -1607.58124203832472

   => Energetics <=

    Nuclear Repulsion Energy =            614.3798756187627532
    One-Electron Energy =               -3436.6526899792370386
    Two-Electron Energy =                1214.6915723221497956
    Total Energy =                      -1607.5812420383247172
  Basis Set: (AUG-CC-PVTZ AUX)
    Blend: AUG-CC-PVTZ-RI
    Molecular point group: c1

    Geometry (in Angstrom), charge = 0, multiplicity = 1:

       Center              X                  Y                   Z               Mass
    ------------   -----------------  -----------------  -----------------  -----------------
         CL          -3.115599270505    -0.000001922886     0.000000000000    34.968852682000
         CL           1.559800729495     2.699345077114     0.000000000000    34.968852682000
         CL           1.559798729495    -2.699344922886     0.000000000000    34.968852682000
         C           -1.399517270505     0.000001077114     0.000000000000    12.000000000000
         C            0.691760729495     1.195853077114     0.000000000000    12.000000000000
         C            0.691760729495    -1.195852922886     0.000000000000    12.000000000000
         C           -0.702458270505     1.219007077114     0.000000000000    12.000000000000
         C           -0.702458270505    -1.219003922886     0.000000000000    12.000000000000
         C            1.408919729495     0.000000077114     0.000000000000    12.000000000000
         H           -1.245035270505     2.158774077114     0.000000000000     1.007825032230
         H           -1.245037270505    -2.158770922886     0.000000000000     1.007825032230
         H            2.494070729495     0.000005077114     0.000000000000     1.007825032230

  Basis Set: AUG-CC-PVTZ
    Blend: AUG-CC-PVTZ
  Basis Set: (AUG-CC-PVTZ AUX)
    Blend: AUG-CC-PVTZ-JKFIT
	 Reference Energy          =   -1607.5812420383247172 [Eh]
	 Singles Energy            =      -0.0000000000000000 [Eh]
	 Same-Spin Energy          =      -0.4513280590607385 [Eh]
	 Opposite-Spin Energy      =      -1.3063478930740091 [Eh]
	 Correlation Energy        =      -1.7576759521347476 [Eh]
	 Total Energy              =   -1609.3389179904595494 [Eh]

	 ================> DF-SCS-MP2 Energies <==================
	-----------------------------------------------------------
	 SCS Same-Spin Scale       =       0.3333333333333333 [-]
	 SCS Opposite-Spin Scale   =       1.2000000000000000 [-]
	 SCS Same-Spin Energy      =      -0.1504426863535795 [Eh]
	 SCS Opposite-Spin Energy  =      -1.5676174716888109 [Eh]
	 SCS Correlation Energy    =      -1.7180601580423904 [Eh]
	 SCS Total Energy          =   -1609.2993021963670799 [Eh]
	-----------------------------------------------------------

  Dipole Moment: [D]
     X:    -0.1121      Y:    -0.0000      Z:    -0.0000     Total:     0.1121

*** Psi4 exiting successfully. Buy a developer a beer!
