                               Psi4 1.3.2 release

  ==> Input File <==

--------------------------------------------------------------------------
#psi4
#
memory 32 gb

molecule  {
0 1
 Cl       -2.7380800    -1.4884340     0.0000240
 Cl        0.0800140     3.1154550    -0.0000800
 Cl        2.6580650    -1.6270210     0.0000640
  C       -1.2132190    -0.6595150    -0.0000090
  C        0.0354480     1.3804360    -0.0000610
  C        1.1777690    -0.7209210     0.0000710
  C       -1.3464346     0.7285743    -0.0000427
  C       -0.0361320    -1.4072030     0.0000230
  C        1.2367450     0.6723100    -0.0000120
  H       -2.1260020     1.3013390    -0.0000230
  H       -0.0639890    -2.4918370     0.0000610
  H        2.1899970     1.1904920    -0.0000040
units angstrom
no_reorient  #important for SAPT in psi4, default
symmetry c1  #important for SAPT in psi4, default
}

set PROPERTIES_ORIGIN ["COM"]
properties('MP2/aug-cc-pvtz', properties = ['dipole'])
--------------------------------------------------------------------------

    Molecular point group: c1
  Charge       = 0
  Multiplicity = 1
  Basis Set: AUG-CC-PVTZ
    Blend: AUG-CC-PVTZ
  Basis Set: (AUG-CC-PVTZ AUX)
    Blend: AUG-CC-PVTZ-JKFIT

    Orbital Energies [Eh]
    ---------------------

    Doubly Occupied:

       1A   -104.863216     2A   -104.861096     3A   -104.853997
       4A    -11.347937     5A    -11.338551     6A    -11.337392
       7A    -11.281441     8A    -11.276611     9A    -11.276227
      10A    -10.587005    11A    -10.584913    12A    -10.578353
      13A     -8.053913    14A     -8.051935    15A     -8.051911
      16A     -8.051812    17A     -8.049863    18A     -8.049832
      19A     -8.045254    20A     -8.043279    21A     -8.043276
      22A     -1.229708    23A     -1.176808    24A     -1.171941
      25A     -1.088626    26A     -1.019311    27A     -1.014102
      28A     -0.851977    29A     -0.827528    30A     -0.742168
      31A     -0.693316    32A     -0.652691    33A     -0.624950
      34A     -0.613813    35A     -0.586357    36A     -0.562141
      37A     -0.535593    38A     -0.523120    39A     -0.521136
      40A     -0.477502    41A     -0.476516    42A     -0.458959
      43A     -0.450114    44A     -0.361444    45A     -0.347293

  @DF-RHF Final Energy: -1607.55242404466367

   => Energetics <=

    Nuclear Repulsion Energy =            612.5005925022363726
    One-Electron Energy =               -3432.8361814682607474
    Two-Electron Energy =                1212.7831649213605942
    Total Energy =                      -1607.5524240446636668
  Basis Set: (AUG-CC-PVTZ AUX)
    Blend: AUG-CC-PVTZ-RI
    Molecular point group: c1

    Geometry (in Angstrom), charge = 0, multiplicity = 1:

       Center              X                  Y                   Z               Mass
    ------------   -----------------  -----------------  -----------------  -----------------
         CL          -2.728354485636    -1.488012555922     0.000024302246    34.968852682000
         CL           0.089739514364     3.115876444078    -0.000079697754    34.968852682000
         CL           2.667790514364    -1.626599555922     0.000064302246    34.968852682000
         C           -1.203493485636    -0.659093555922    -0.000008697754    12.000000000000
         C            0.045173514364     1.380857444078    -0.000060697754    12.000000000000
         C            1.187494514364    -0.720499555922     0.000071302246    12.000000000000
         C           -1.336709085636     0.728995744078    -0.000042397754    12.000000000000
         C           -0.026406485636    -1.406781555922     0.000023302246    12.000000000000
         C            1.246470514364     0.672731444078    -0.000011697754    12.000000000000
         H           -2.116276485636     1.301760444078    -0.000022697754     1.007825032230
         H           -0.054263485636    -2.491415555922     0.000061302246     1.007825032230
         H            2.199722514364     1.190913444078    -0.000003697754     1.007825032230

  Basis Set: AUG-CC-PVTZ
    Blend: AUG-CC-PVTZ
  Basis Set: (AUG-CC-PVTZ AUX)
    Blend: AUG-CC-PVTZ-JKFIT
	 Reference Energy          =   -1607.5524240446636668 [Eh]
	 Singles Energy            =      -0.0000000000000000 [Eh]
	 Same-Spin Energy          =      -0.4514970972111304 [Eh]
	 Opposite-Spin Energy      =      -1.3082751223929225 [Eh]
	 Correlation Energy        =      -1.7597722196040531 [Eh]
	 Total Energy              =   -1609.3121962642676408 [Eh]

	 ================> DF-SCS-MP2 Energies <==================
	-----------------------------------------------------------
	 SCS Same-Spin Scale       =       0.3333333333333333 [-]
	 SCS Opposite-Spin Scale   =       1.2000000000000000 [-]
	 SCS Same-Spin Energy      =      -0.1504990324037101 [Eh]
	 SCS Opposite-Spin Energy  =      -1.5699301468715070 [Eh]
	 SCS Correlation Energy    =      -1.7204291792752171 [Eh]
	 SCS Total Energy          =   -1609.2728532239389097 [Eh]
	-----------------------------------------------------------

  Dipole Moment: [D]
     X:     0.1823      Y:     0.0893      Z:     0.0000     Total:     0.2030

*** Psi4 exiting successfully. Buy a developer a beer!
