                               Psi4 1.4a3.dev225

  ==> Input File <==

--------------------------------------------------------------------------
#psi4
#
memory 32 gb

molecule  {
0 1
 Cl       -3.1169330    -0.0000020     0.0000000
 Cl        1.5584670     2.6993450     0.0000000
 Cl        1.5584650    -2.6993450     0.0000000
  C       -1.3808510     0.0000010     0.0000000
  C        0.6904270     1.1958530     0.0000000
  C        0.6904270    -1.1958530     0.0000000
  C       -0.7037920     1.2190070     0.0000000
  C       -0.7037920    -1.2190040     0.0000000
  C        1.4075860     0.0000000     0.0000000
  H       -1.2363690     2.1414535     0.0000000
  H       -1.2463710    -2.1587710     0.0000000
  H        2.4927370     0.0000050     0.0000000
units angstrom
no_reorient  #important for SAPT in psi4, default
symmetry c1  #important for SAPT in psi4, default
}

set PROPERTIES_ORIGIN ["COM"]
properties('MP2/aug-cc-pvtz', properties = ['dipole'])
--------------------------------------------------------------------------

    Molecular point group: c1
  Charge       = 0
  Multiplicity = 1
  Basis Set: AUG-CC-PVTZ
    Blend: AUG-CC-PVTZ
  Basis Set: (AUG-CC-PVTZ AUX)
    Blend: AUG-CC-PVTZ-JKFIT

    Orbital Energies [Eh]
    ---------------------

    Doubly Occupied:

       1A   -104.860759     2A   -104.860759     3A   -104.860711
       4A    -11.334002     5A    -11.333915     6A    -11.333909
       7A    -11.275844     8A    -11.275819     9A    -11.273779
      10A    -10.584552    11A    -10.584552    12A    -10.584503
      13A     -8.051467    14A     -8.051467    15A     -8.051418
      16A     -8.049484    17A     -8.049484    18A     -8.049474
      19A     -8.049474    20A     -8.049434    21A     -8.049424
      22A     -1.235068    23A     -1.174979    24A     -1.174914
      25A     -1.093639    26A     -1.018967    27A     -1.018004
      28A     -0.841996    29A     -0.840970    30A     -0.727502
      31A     -0.699406    32A     -0.643626    33A     -0.616665
      34A     -0.614682    35A     -0.591087    36A     -0.550064
      37A     -0.548973    38A     -0.522986    39A     -0.522960
      40A     -0.478566    41A     -0.478547    42A     -0.464949
      43A     -0.453422    44A     -0.357015    45A     -0.356973

  @DF-RHF Final Energy: -1607.58235600137027

   => Energetics <=

    Nuclear Repulsion Energy =            614.5907756879314547
    One-Electron Energy =               -3437.0658839411344161
    Two-Electron Energy =                1214.8927522518326896
    Total Energy =                      -1607.5823560013702718
  Basis Set: (AUG-CC-PVTZ AUX)
    Blend: AUG-CC-PVTZ-RI
    Molecular point group: c1

    Geometry (in Angstrom), charge = 0, multiplicity = 1:

       Center              X                  Y                   Z               Mass
    ------------   -----------------  -----------------  -----------------  -----------------
         CL          -3.116989134364     0.000095092788     0.000000000000    34.968852682000
         CL           1.558410865636     2.699442092788     0.000000000000    34.968852682000
         CL           1.558408865636    -2.699247907212     0.000000000000    34.968852682000
         C           -1.380907134364     0.000098092788     0.000000000000    12.000000000000
         C            0.690370865636     1.195950092788     0.000000000000    12.000000000000
         C            0.690370865636    -1.195755907212     0.000000000000    12.000000000000
         C           -0.703848134364     1.219104092788     0.000000000000    12.000000000000
         C           -0.703848134364    -1.218906907212     0.000000000000    12.000000000000
         C            1.407529865636     0.000097092788     0.000000000000    12.000000000000
         H           -1.236425134364     2.141550592788     0.000000000000     1.007825032230
         H           -1.246427134364    -2.158673907212     0.000000000000     1.007825032230
         H            2.492680865636     0.000102092788     0.000000000000     1.007825032230

  Basis Set: AUG-CC-PVTZ
    Blend: AUG-CC-PVTZ
  Basis Set: (AUG-CC-PVTZ AUX)
    Blend: AUG-CC-PVTZ-JKFIT
	 Reference Energy          =   -1607.5823560013702718 [Eh]
	 Singles Energy            =      -0.0000000000000000 [Eh]
	 Same-Spin Energy          =      -0.4510743399115047 [Eh]
	 Opposite-Spin Energy      =      -1.3059408470788518 [Eh]
	 Correlation Energy        =      -1.7570151869903565 [Eh]
	 Total Energy              =   -1609.3393711883607011 [Eh]

	 ================> DF-SCS-MP2 Energies <==================
	-----------------------------------------------------------
	 SCS Same-Spin Scale       =       0.3333333333333333 [-]
	 SCS Opposite-Spin Scale   =       1.2000000000000000 [-]
	 SCS Same-Spin Energy      =      -0.1503581133038349 [Eh]
	 SCS Opposite-Spin Energy  =      -1.5671290164946221 [Eh]
	 SCS Correlation Energy    =      -1.7174871297984571 [Eh]
	 SCS Total Energy          =   -1609.2998431311687000 [Eh]
	-----------------------------------------------------------

  Dipole Moment: [D]
     X:     0.0023      Y:    -0.0040      Z:    -0.0000     Total:     0.0046

*** Psi4 exiting successfully. Buy a developer a beer!
