                               Psi4 1.4a3.dev225

  ==> Input File <==

--------------------------------------------------------------------------
#psi4
#
memory 32 gb

molecule  {
0 1
 Cl       -3.1169330    -0.0000020     0.0000000
 Cl        1.5584670     2.6993450     0.0000000
 Cl        1.5584650    -2.6993450     0.0000000
  C       -1.3608510     0.0000010     0.0000000
  C        0.6904270     1.1958530     0.0000000
  C        0.6904270    -1.1958530     0.0000000
  C       -0.7037920     1.2190070     0.0000000
  C       -0.7037920    -1.2190040     0.0000000
  C        1.4075860     0.0000000     0.0000000
  H       -1.2463690     2.1587740     0.0000000
  H       -1.2463710    -2.1587710     0.0000000
  H        2.4927370     0.0000050     0.0000000
units angstrom
no_reorient  #important for SAPT in psi4, default
symmetry c1  #important for SAPT in psi4, default
}

set PROPERTIES_ORIGIN ["COM"]
properties('MP2/aug-cc-pvtz', properties = ['dipole'])
--------------------------------------------------------------------------

    Molecular point group: c1
  Charge       = 0
  Multiplicity = 1
  Basis Set: AUG-CC-PVTZ
    Blend: AUG-CC-PVTZ
  Basis Set: (AUG-CC-PVTZ AUX)
    Blend: AUG-CC-PVTZ-JKFIT

    Orbital Energies [Eh]
    ---------------------

    Doubly Occupied:

       1A   -104.861172     2A   -104.861172     3A   -104.858383
       4A    -11.334745     5A    -11.334738     6A    -11.333534
       7A    -11.276393     8A    -11.275763     9A    -11.275735
      10A    -10.584973    11A    -10.584972    12A    -10.581918
      13A     -8.051886    14A     -8.051886    15A     -8.049904
      16A     -8.049904    17A     -8.049892    18A     -8.049892
      19A     -8.048785    20A     -8.046861    21A     -8.046857
      22A     -1.236277    23A     -1.175584    24A     -1.171435
      25A     -1.093632    26A     -1.020409    27A     -1.019074
      28A     -0.842291    29A     -0.841368    30A     -0.726981
      31A     -0.700875    32A     -0.641481    33A     -0.617340
      34A     -0.614212    35A     -0.592148    36A     -0.550460
      37A     -0.545686    38A     -0.523475    39A     -0.520704
      40A     -0.478644    41A     -0.477764    42A     -0.464953
      43A     -0.454000    44A     -0.359194    45A     -0.357951

  @DF-RHF Final Energy: -1607.58229899867433

   => Energetics <=

    Nuclear Repulsion Energy =            614.5842327335968776
    One-Electron Energy =               -3437.0624554174478362
    Two-Electron Energy =                1214.8959236851767400
    Total Energy =                      -1607.5822989986743323
  Basis Set: (AUG-CC-PVTZ AUX)
    Blend: AUG-CC-PVTZ-RI
    Molecular point group: c1

    Geometry (in Angstrom), charge = 0, multiplicity = 1:

       Center              X                  Y                   Z               Mass
    ------------   -----------------  -----------------  -----------------  -----------------
         CL          -3.118266974120    -0.000001922886     0.000000000000    34.968852682000
         CL           1.557133025880     2.699345077114     0.000000000000    34.968852682000
         CL           1.557131025880    -2.699344922886     0.000000000000    34.968852682000
         C           -1.362184974120     0.000001077114     0.000000000000    12.000000000000
         C            0.689093025880     1.195853077114     0.000000000000    12.000000000000
         C            0.689093025880    -1.195852922886     0.000000000000    12.000000000000
         C           -0.705125974120     1.219007077114     0.000000000000    12.000000000000
         C           -0.705125974120    -1.219003922886     0.000000000000    12.000000000000
         C            1.406252025880     0.000000077114     0.000000000000    12.000000000000
         H           -1.247702974120     2.158774077114     0.000000000000     1.007825032230
         H           -1.247704974120    -2.158770922886     0.000000000000     1.007825032230
         H            2.491403025880     0.000005077114     0.000000000000     1.007825032230

  Basis Set: AUG-CC-PVTZ
    Blend: AUG-CC-PVTZ
  Basis Set: (AUG-CC-PVTZ AUX)
    Blend: AUG-CC-PVTZ-JKFIT
	 Reference Energy          =   -1607.5822989986743323 [Eh]
	 Singles Energy            =      -0.0000000000000000 [Eh]
	 Same-Spin Energy          =      -0.4509808988315807 [Eh]
	 Opposite-Spin Energy      =      -1.3058504752272020 [Eh]
	 Correlation Energy        =      -1.7568313740587826 [Eh]
	 Total Energy              =   -1609.3391303727330524 [Eh]

	 ================> DF-SCS-MP2 Energies <==================
	-----------------------------------------------------------
	 SCS Same-Spin Scale       =       0.3333333333333333 [-]
	 SCS Opposite-Spin Scale   =       1.2000000000000000 [-]
	 SCS Same-Spin Energy      =      -0.1503269662771936 [Eh]
	 SCS Opposite-Spin Energy  =      -1.5670205702726423 [Eh]
	 SCS Correlation Energy    =      -1.7173475365498359 [Eh]
	 SCS Total Energy          =   -1609.2996465352241557 [Eh]
	-----------------------------------------------------------

  Dipole Moment: [D]
     X:     0.1125      Y:    -0.0000      Z:    -0.0000     Total:     0.1125

*** Psi4 exiting successfully. Buy a developer a beer!
