                               Psi4 1.4a3.dev225

  ==> Input File <==

--------------------------------------------------------------------------
#psi4
#
memory 32 gb

molecule  {
0 1
 Cl       -3.1169330    -0.0000020     0.0000000
 Cl        1.5584670     2.6993450     0.0000000
 Cl        1.5584650    -2.6993450     0.0000000
  C       -1.4308510     0.0000009     0.0000000
  C        0.6904270     1.1958530     0.0000000
  C        0.6904270    -1.1958530     0.0000000
  C       -0.7037920     1.2190070     0.0000000
  C       -0.7037920    -1.2190040     0.0000000
  C        1.4075860     0.0000000     0.0000000
  H       -1.2463690     2.1587740     0.0000000
  H       -1.2463710    -2.1587710     0.0000000
  H        2.4927370     0.0000050     0.0000000
units angstrom
no_reorient  #important for SAPT in psi4, default
symmetry c1  #important for SAPT in psi4, default
}

set PROPERTIES_ORIGIN ["COM"]
properties('MP2/aug-cc-pvtz', properties = ['dipole'])
--------------------------------------------------------------------------

    Molecular point group: c1
  Charge       = 0
  Multiplicity = 1
  Basis Set: AUG-CC-PVTZ
    Blend: AUG-CC-PVTZ
  Basis Set: (AUG-CC-PVTZ AUX)
    Blend: AUG-CC-PVTZ-JKFIT

    Orbital Energies [Eh]
    ---------------------

    Doubly Occupied:

       1A   -104.866159     2A   -104.859625     3A   -104.859624
       4A    -11.335637     5A    -11.332279     6A    -11.332273
       7A    -11.276472     8A    -11.276451     9A    -11.274650
      10A    -10.590750    11A    -10.583398    12A    -10.583397
      13A     -8.057798    14A     -8.055643    15A     -8.055616
      16A     -8.050315    17A     -8.050315    18A     -8.048328
      19A     -8.048328    20A     -8.048323    21A     -8.048322
      22A     -1.233099    23A     -1.184827    24A     -1.173263
      25A     -1.092589    26A     -1.015077    27A     -1.012537
      28A     -0.840113    29A     -0.837883    30A     -0.721262
      31A     -0.696201    32A     -0.649692    33A     -0.615342
      34A     -0.608592    35A     -0.589194    36A     -0.555781
      37A     -0.545881    38A     -0.529067    39A     -0.521716
      40A     -0.479859    41A     -0.478152    42A     -0.464228
      43A     -0.451616    44A     -0.354816    45A     -0.351233

  @DF-RHF Final Energy: -1607.57818442205985

   => Energetics <=

    Nuclear Repulsion Energy =            614.2510694721202071
    One-Electron Energy =               -3436.3870632653665780
    Two-Electron Energy =                1214.5578093711867496
    Total Energy =                      -1607.5781844220598487
  Basis Set: (AUG-CC-PVTZ AUX)
    Blend: AUG-CC-PVTZ-RI
    Molecular point group: c1

    Geometry (in Angstrom), charge = 0, multiplicity = 1:

       Center              X                  Y                   Z               Mass
    ------------   -----------------  -----------------  -----------------  -----------------
         CL          -3.113598492793    -0.000001916217     0.000000000000    34.968852682000
         CL           1.561801507207     2.699345083783     0.000000000000    34.968852682000
         CL           1.561799507207    -2.699344916217     0.000000000000    34.968852682000
         C           -1.427516492793     0.000000983783     0.000000000000    12.000000000000
         C            0.693761507207     1.195853083783     0.000000000000    12.000000000000
         C            0.693761507207    -1.195852916217     0.000000000000    12.000000000000
         C           -0.700457492793     1.219007083783     0.000000000000    12.000000000000
         C           -0.700457492793    -1.219003916217     0.000000000000    12.000000000000
         C            1.410920507207     0.000000083783     0.000000000000    12.000000000000
         H           -1.243034492793     2.158774083783     0.000000000000     1.007825032230
         H           -1.243036492793    -2.158770916217     0.000000000000     1.007825032230
         H            2.496071507207     0.000005083783     0.000000000000     1.007825032230

  Basis Set: AUG-CC-PVTZ
    Blend: AUG-CC-PVTZ
  Basis Set: (AUG-CC-PVTZ AUX)
    Blend: AUG-CC-PVTZ-JKFIT
	 Reference Energy          =   -1607.5781844220598487 [Eh]
	 Singles Energy            =      -0.0000000000000000 [Eh]
	 Same-Spin Energy          =      -0.4516963726187745 [Eh]
	 Opposite-Spin Energy      =      -1.3068863446541741 [Eh]
	 Correlation Energy        =      -1.7585827172729487 [Eh]
	 Total Energy              =   -1609.3367671393327782 [Eh]

	 ================> DF-SCS-MP2 Energies <==================
	-----------------------------------------------------------
	 SCS Same-Spin Scale       =       0.3333333333333333 [-]
	 SCS Opposite-Spin Scale   =       1.2000000000000000 [-]
	 SCS Same-Spin Energy      =      -0.1505654575395915 [Eh]
	 SCS Opposite-Spin Energy  =      -1.5682636135850088 [Eh]
	 SCS Correlation Energy    =      -1.7188290711246004 [Eh]
	 SCS Total Energy          =   -1609.2970134931845223 [Eh]
	-----------------------------------------------------------

  Dipole Moment: [D]
     X:    -0.2805      Y:    -0.0000      Z:     0.0000     Total:     0.2805

*** Psi4 exiting successfully. Buy a developer a beer!
