                               Psi4 1.3.2 release

  ==> Input File <==

--------------------------------------------------------------------------
#psi4
#
memory 32 gb

molecule  {
0 1
 Cl       -2.7380800    -1.4884340     0.0000240
 Cl        0.0800140     3.1154550    -0.0000800
 Cl        2.6580650    -1.6270210     0.0000640
  C       -1.2132190    -0.6595150    -0.0000090
  C        0.0354480     1.3804360    -0.0000610
  C        1.1777690    -0.7209210     0.0000710
  C       -1.2006100     0.7348950    -0.0000410
  C       -0.0361320    -1.4072030     0.0000230
  C        1.2367450     0.6723100    -0.0000120
  H       -1.9554217     1.1969247    -0.0000263
  H       -0.0639890    -2.4918370     0.0000610
  H        2.1899970     1.1904920    -0.0000040
units angstrom
no_reorient  #important for SAPT in psi4, default
symmetry c1  #important for SAPT in psi4, default
}

set PROPERTIES_ORIGIN ["COM"]
properties('MP2/aug-cc-pvtz', properties = ['dipole'])
--------------------------------------------------------------------------

    Molecular point group: c1
  Charge       = 0
  Multiplicity = 1
  Basis Set: AUG-CC-PVTZ
    Blend: AUG-CC-PVTZ
  Basis Set: (AUG-CC-PVTZ AUX)
    Blend: AUG-CC-PVTZ-JKFIT

    Orbital Energies [Eh]
    ---------------------

    Doubly Occupied:

       1A   -104.861184     2A   -104.861184     3A   -104.860802
       4A    -11.334192     5A    -11.333492     6A    -11.333488
       7A    -11.275244     8A    -11.275219     9A    -11.253906
      10A    -10.584986    11A    -10.584986    12A    -10.584602
      13A     -8.051904    14A     -8.051904    15A     -8.051517
      16A     -8.049922    17A     -8.049921    18A     -8.049911
      19A     -8.049911    20A     -8.049534    21A     -8.049522
      22A     -1.236321    23A     -1.176326    24A     -1.175294
      25A     -1.094151    26A     -1.031311    27A     -1.017750
      28A     -0.855022    29A     -0.840597    30A     -0.750692
      31A     -0.699368    32A     -0.649201    33A     -0.629232
      34A     -0.614567    35A     -0.591001    36A     -0.556579
      37A     -0.548891    38A     -0.523331    39A     -0.523162
      40A     -0.478628    41A     -0.478597    42A     -0.465082
      43A     -0.453500    44A     -0.357289    45A     -0.356650

  @DF-RHF Final Energy: -1607.54719471589078

   => Energetics <=

    Nuclear Repulsion Energy =            615.7975254960128950
    One-Electron Energy =               -3439.2896897645291574
    Two-Electron Energy =                1215.9449695526254800
    Total Energy =                      -1607.5471947158907824
  Basis Set: (AUG-CC-PVTZ AUX)
    Blend: AUG-CC-PVTZ-RI
    Molecular point group: c1

    Geometry (in Angstrom), charge = 0, multiplicity = 1:

       Center              X                  Y                   Z               Mass
    ------------   -----------------  -----------------  -----------------  -----------------
         CL          -2.739035361211    -1.487849253861     0.000024207353    34.968852682000
         CL           0.079058638789     3.116039746139    -0.000079792647    34.968852682000
         CL           2.657109638789    -1.626436253861     0.000064207353    34.968852682000
         C           -1.214174361211    -0.658930253861    -0.000008792647    12.000000000000
         C            0.034492638789     1.381020746139    -0.000060792647    12.000000000000
         C            1.176813638789    -0.720336253861     0.000071207353    12.000000000000
         C           -1.201565361211     0.735479746139    -0.000040792647    12.000000000000
         C           -0.037087361211    -1.406618253861     0.000023207353    12.000000000000
         C            1.235789638789     0.672894746139    -0.000011792647    12.000000000000
         H           -1.956377061211     1.197509446139    -0.000026092647     1.007825032230
         H           -0.064944361211    -2.491252253861     0.000061207353     1.007825032230
         H            2.189041638789     1.191076746139    -0.000003792647     1.007825032230

  Basis Set: AUG-CC-PVTZ
    Blend: AUG-CC-PVTZ
  Basis Set: (AUG-CC-PVTZ AUX)
    Blend: AUG-CC-PVTZ-JKFIT
	 Reference Energy          =   -1607.5471947158907824 [Eh]
	 Singles Energy            =      -0.0000000000000000 [Eh]
	 Same-Spin Energy          =      -0.4507597639050342 [Eh]
	 Opposite-Spin Energy      =      -1.3056168449902947 [Eh]
	 Correlation Energy        =      -1.7563766088953290 [Eh]
	 Total Energy              =   -1609.3035713247861622 [Eh]

	 ================> DF-SCS-MP2 Energies <==================
	-----------------------------------------------------------
	 SCS Same-Spin Scale       =       0.3333333333333333 [-]
	 SCS Opposite-Spin Scale   =       1.2000000000000000 [-]
	 SCS Same-Spin Energy      =      -0.1502532546350114 [Eh]
	 SCS Opposite-Spin Energy  =      -1.5667402139883537 [Eh]
	 SCS Correlation Energy    =      -1.7169934686233652 [Eh]
	 SCS Total Energy          =   -1609.2641881845140688 [Eh]
	-----------------------------------------------------------

  Dipole Moment: [D]
     X:     0.0499      Y:    -0.0305      Z:     0.0000     Total:     0.0585

*** Psi4 exiting successfully. Buy a developer a beer!
