                               Psi4 1.3.2 release

  ==> Input File <==

--------------------------------------------------------------------------
#psi4
#
memory 32 gb

molecule  {
0 1
 Cl       -2.7380800    -1.4884340     0.0000240
 Cl        0.0800140     3.1154550    -0.0000800
 Cl        2.6580650    -1.6270210     0.0000640
  C       -1.3889347    -0.7550346    -0.0000052
  C        0.0354480     1.3804360    -0.0000610
  C        1.1777690    -0.7209210     0.0000710
  C       -1.2006100     0.7348950    -0.0000410
  C       -0.0361320    -1.4072030     0.0000230
  C        1.2367450     0.6723100    -0.0000120
  H       -2.1260020     1.3013390    -0.0000230
  H       -0.0639890    -2.4918370     0.0000610
  H        2.1899970     1.1904920    -0.0000040
units angstrom
no_reorient  #important for SAPT in psi4, default
symmetry c1  #important for SAPT in psi4, default
}

set PROPERTIES_ORIGIN ["COM"]
properties('MP2/aug-cc-pvtz', properties = ['dipole'])
--------------------------------------------------------------------------

    Molecular point group: c1
  Charge       = 0
  Multiplicity = 1
  Basis Set: AUG-CC-PVTZ
    Blend: AUG-CC-PVTZ
  Basis Set: (AUG-CC-PVTZ AUX)
    Blend: AUG-CC-PVTZ-JKFIT

    Orbital Energies [Eh]
    ---------------------

    Doubly Occupied:

       1A   -104.880874     2A   -104.856442     3A   -104.856442
       4A    -11.343529     5A    -11.327761     6A    -11.327755
       7A    -11.278298     8A    -11.278283     9A    -11.269600
      10A    -10.609430    11A    -10.580170    12A    -10.580169
      13A     -8.077025    14A     -8.074058    15A     -8.073950
      16A     -8.047094    17A     -8.047094    18A     -8.045100
      19A     -8.045100    20A     -8.045094    21A     -8.045093
      22A     -1.257176    23A     -1.205040    24A     -1.168872
      25A     -1.084485    26A     -1.002796    27A     -0.998697
      28A     -0.836636    29A     -0.828437    30A     -0.709137
      31A     -0.689724    32A     -0.680052    33A     -0.612547
      34A     -0.594643    35A     -0.592726    36A     -0.564794
      37A     -0.547429    38A     -0.547169    39A     -0.518171
      40A     -0.476023    41A     -0.472600    42A     -0.456196
      43A     -0.444795    44A     -0.349026    45A     -0.330948

  @DF-RHF Final Energy: -1607.52925831667085

   => Energetics <=

    Nuclear Repulsion Energy =            614.0495882543601738
    One-Electron Energy =               -3435.8447333911703936
    Two-Electron Energy =                1214.2658868201394853
    Total Energy =                      -1607.5292583166708482
  Basis Set: (AUG-CC-PVTZ AUX)
    Blend: AUG-CC-PVTZ-RI
    Molecular point group: c1

    Geometry (in Angstrom), charge = 0, multiplicity = 1:

       Center              X                  Y                   Z               Mass
    ------------   -----------------  -----------------  -----------------  -----------------
         CL          -2.726360970747    -1.482063650221     0.000023935437    34.968852682000
         CL           0.091733029253     3.121825349779    -0.000080064563    34.968852682000
         CL           2.669784029253    -1.620650650221     0.000063935437    34.968852682000
         C           -1.377215670747    -0.748664250221    -0.000005264563    12.000000000000
         C            0.047167029253     1.386806349779    -0.000061064563    12.000000000000
         C            1.189488029253    -0.714550650221     0.000070935437    12.000000000000
         C           -1.188890970747     0.741265349779    -0.000041064563    12.000000000000
         C           -0.024412970747    -1.400832650221     0.000022935437    12.000000000000
         C            1.248464029253     0.678680349779    -0.000012064563    12.000000000000
         H           -2.114282970747     1.307709349779    -0.000023064563     1.007825032230
         H           -0.052269970747    -2.485466650221     0.000060935437     1.007825032230
         H            2.201716029253     1.196862349779    -0.000004064563     1.007825032230

  Basis Set: AUG-CC-PVTZ
    Blend: AUG-CC-PVTZ
  Basis Set: (AUG-CC-PVTZ AUX)
    Blend: AUG-CC-PVTZ-JKFIT
	 Reference Energy          =   -1607.5292583166708482 [Eh]
	 Singles Energy            =      -0.0000000000000000 [Eh]
	 Same-Spin Energy          =      -0.4550221261025719 [Eh]
	 Opposite-Spin Energy      =      -1.3119165160673254 [Eh]
	 Correlation Energy        =      -1.7669386421698974 [Eh]
	 Total Energy              =   -1609.2961969588407101 [Eh]

	 ================> DF-SCS-MP2 Energies <==================
	-----------------------------------------------------------
	 SCS Same-Spin Scale       =       0.3333333333333333 [-]
	 SCS Opposite-Spin Scale   =       1.2000000000000000 [-]
	 SCS Same-Spin Energy      =      -0.1516740420341906 [Eh]
	 SCS Opposite-Spin Energy  =      -1.5742998192807904 [Eh]
	 SCS Correlation Energy    =      -1.7259738613149811 [Eh]
	 SCS Total Energy          =   -1609.2552321779858175 [Eh]
	-----------------------------------------------------------

  Dipole Moment: [D]
     X:    -1.0169      Y:    -0.5528      Z:     0.0000     Total:     1.1575

*** Psi4 exiting successfully. Buy a developer a beer!
