                               Psi4 1.3.2 release

  ==> Input File <==

--------------------------------------------------------------------------
#psi4
#
memory 32 gb

molecule  {
0 1
 Cl       -2.7380800    -1.4884340     0.0000240
 Cl        0.0800140     3.1154550    -0.0000800
 Cl        2.6580650    -1.6270210     0.0000640
  C       -1.2132190    -0.6595150    -0.0000090
  C        0.0354480     1.3804360    -0.0000610
  C        1.1777690    -0.7209210     0.0000710
  C       -1.2006100     0.7348950    -0.0000410
  C       -0.0361320    -1.4072030     0.0000230
  C        1.2367450     0.6723100    -0.0000120
  H       -2.2965823     1.4057533    -0.0000197
  H       -0.0639890    -2.4918370     0.0000610
  H        2.1899970     1.1904920    -0.0000040
units angstrom
no_reorient  #important for SAPT in psi4, default
symmetry c1  #important for SAPT in psi4, default
}

set PROPERTIES_ORIGIN ["COM"]
properties('MP2/aug-cc-pvtz', properties = ['dipole'])
--------------------------------------------------------------------------

    Molecular point group: c1
  Charge       = 0
  Multiplicity = 1
  Basis Set: AUG-CC-PVTZ
    Blend: AUG-CC-PVTZ
  Basis Set: (AUG-CC-PVTZ AUX)
    Blend: AUG-CC-PVTZ-JKFIT

    Orbital Energies [Eh]
    ---------------------

    Doubly Occupied:

       1A   -104.860911     2A   -104.860316     3A   -104.860316
       4A    -11.335206     5A    -11.335194     6A    -11.334170
       7A    -11.294899     8A    -11.276789     9A    -11.276763
      10A    -10.584715    11A    -10.584114    12A    -10.584113
      13A     -8.051631    14A     -8.051027    15A     -8.051027
      16A     -8.049645    17A     -8.049635    18A     -8.049038
      19A     -8.049037    20A     -8.049026    21A     -8.049025
      22A     -1.234843    23A     -1.174880    24A     -1.174536
      25A     -1.093680    26A     -1.018509    27A     -1.011964
      28A     -0.841831    29A     -0.834784    30A     -0.709773
      31A     -0.699958    32A     -0.641534    33A     -0.615140
      34A     -0.595154    35A     -0.591601    36A     -0.549596
      37A     -0.532125    38A     -0.523095    39A     -0.522753
      40A     -0.478704    41A     -0.478328    42A     -0.464864
      43A     -0.453458    44A     -0.357457    45A     -0.357263

  @DF-RHF Final Energy: -1607.55917983484233

   => Energetics <=

    Nuclear Repulsion Energy =            613.5181946646063125
    One-Electron Energy =               -3434.9698895257456570
    Two-Electron Energy =                1213.8925150262971329
    Total Energy =                      -1607.5591798348423254
  Basis Set: (AUG-CC-PVTZ AUX)
    Blend: AUG-CC-PVTZ-RI
    Molecular point group: c1

    Geometry (in Angstrom), charge = 0, multiplicity = 1:

       Center              X                  Y                   Z               Mass
    ------------   -----------------  -----------------  -----------------  -----------------
         CL          -2.737124450694    -1.489018945695     0.000024170385    34.968852682000
         CL           0.080969549306     3.114870054305    -0.000079829615    34.968852682000
         CL           2.659020549306    -1.627605945695     0.000064170385    34.968852682000
         C           -1.212263450694    -0.660099945695    -0.000008829615    12.000000000000
         C            0.036403549306     1.379851054305    -0.000060829615    12.000000000000
         C            1.178724549306    -0.721505945695     0.000071170385    12.000000000000
         C           -1.199654450694     0.734310054305    -0.000040829615    12.000000000000
         C           -0.035176450694    -1.407787945695     0.000023170385    12.000000000000
         C            1.237700549306     0.671725054305    -0.000011829615    12.000000000000
         H           -2.295626750694     1.405168354305    -0.000019529615     1.007825032230
         H           -0.063033450694    -2.492421945695     0.000061170385     1.007825032230
         H            2.190952549306     1.189907054305    -0.000003829615     1.007825032230

  Basis Set: AUG-CC-PVTZ
    Blend: AUG-CC-PVTZ
  Basis Set: (AUG-CC-PVTZ AUX)
    Blend: AUG-CC-PVTZ-JKFIT
	 Reference Energy          =   -1607.5591798348423254 [Eh]
	 Singles Energy            =      -0.0000000000000000 [Eh]
	 Same-Spin Energy          =      -0.4519074419131094 [Eh]
	 Opposite-Spin Energy      =      -1.3082105660967800 [Eh]
	 Correlation Energy        =      -1.7601180080098895 [Eh]
	 Total Energy              =   -1609.3192978428521656 [Eh]

	 ================> DF-SCS-MP2 Energies <==================
	-----------------------------------------------------------
	 SCS Same-Spin Scale       =       0.3333333333333333 [-]
	 SCS Opposite-Spin Scale   =       1.2000000000000000 [-]
	 SCS Same-Spin Energy      =      -0.1506358139710365 [Eh]
	 SCS Opposite-Spin Energy  =      -1.5698526793161360 [Eh]
	 SCS Correlation Energy    =      -1.7204884932871725 [Eh]
	 SCS Total Energy          =   -1609.2796683281294463 [Eh]
	-----------------------------------------------------------

  Dipole Moment: [D]
     X:    -0.0263      Y:     0.0162      Z:     0.0000     Total:     0.0309

*** Psi4 exiting successfully. Buy a developer a beer!
