                               Psi4 1.3.2 release

  ==> Input File <==

--------------------------------------------------------------------------
#psi4
#
memory 32 gb

molecule  {
0 1
  F       -1.9734470     0.4735540    -0.9939180
  F       -1.9413570    -1.5269070    -0.1417860
  F       -1.9373460     0.2097040     1.1676710
  C        0.0587940    -0.2544720    -0.0183930
  C        0.7415540     0.9772520     0.0078750
  C        0.7507890    -1.4682550    -0.0178400
  C        2.1403840     0.9368280     0.0127460
  C       -1.4402130    -0.2782400     0.0012850
  C        0.0310770     2.3081630    -0.0188960
  C        2.1451100    -1.4771990    -0.0107000
  C        2.8415060    -0.2700650     0.0090350
  H        0.1981450    -2.4017980    -0.0309650
  H        2.6907970     1.8755160     0.0309210
  H       -0.3505540     2.5311140    -1.0192600
  H       -0.8159800     2.3277740     0.6689790
  H        0.7236060     3.1036700     0.2672330
  H        2.6820350    -2.4210637    -0.2122706
  H        3.9287950    -0.2645730     0.0170060
units angstrom
no_reorient  #important for SAPT in psi4, default
symmetry c1  #important for SAPT in psi4, default
}

set PROPERTIES_ORIGIN ["COM"]
properties('MP2/aug-cc-pvtz', properties = ['dipole'])
--------------------------------------------------------------------------

    Molecular point group: c1
  Charge       = 0
  Multiplicity = 1
  Basis Set: AUG-CC-PVTZ
    Blend: AUG-CC-PVTZ
  Basis Set: (AUG-CC-PVTZ AUX)
    Blend: AUG-CC-PVTZ-JKFIT

    Orbital Energies [Eh]
    ---------------------

    Doubly Occupied:

       1A    -26.335504     2A    -26.331995     3A    -26.331021
       4A    -11.508728     5A    -11.270734     6A    -11.264935
       7A    -11.259998     8A    -11.256948     9A    -11.250296
      10A    -11.248379    11A    -11.234166    12A     -1.717416
      13A     -1.626669    14A     -1.623230    15A     -1.180702
      16A     -1.071841    17A     -1.057134    18A     -0.973590
      19A     -0.936913    20A     -0.862080    21A     -0.836900
      22A     -0.811564    23A     -0.803742    24A     -0.772907
      25A     -0.704682    26A     -0.704205    27A     -0.688380
      28A     -0.665946    29A     -0.656846    30A     -0.648466
      31A     -0.643934    32A     -0.634299    33A     -0.589524
      34A     -0.585508    35A     -0.579077    36A     -0.554067
      37A     -0.513323    38A     -0.509004    39A     -0.501281
      40A     -0.360620    41A     -0.344022

  @DF-RHF Final Energy:  -605.57498009981373

   => Energetics <=

    Nuclear Repulsion Energy =            631.9829636266626949
    One-Electron Energy =               -2088.2147381797262824
    Two-Electron Energy =                 850.6567944532498586
    Total Energy =                       -605.5749800998137289
  Basis Set: (AUG-CC-PVTZ AUX)
    Blend: AUG-CC-PVTZ-RI
    Molecular point group: c1

    Geometry (in Angstrom), charge = 0, multiplicity = 1:

       Center              X                  Y                   Z               Mass
    ------------   -----------------  -----------------  -----------------  -----------------
         F           -1.880814820128     0.508243329300    -0.993343999349    18.998403162730
         F           -1.848724820128    -1.492217670700    -0.141211999349    18.998403162730
         F           -1.844713820128     0.244393329300     1.168245000651    18.998403162730
         C            0.151426179872    -0.219782670700    -0.017818999349    12.000000000000
         C            0.834186179872     1.011941329300     0.008449000651    12.000000000000
         C            0.843421179872    -1.433565670700    -0.017265999349    12.000000000000
         C            2.233016179872     0.971517329300     0.013320000651    12.000000000000
         C           -1.347580820128    -0.243550670700     0.001859000651    12.000000000000
         C            0.123709179872     2.342852329300    -0.018321999349    12.000000000000
         C            2.237742179872    -1.442509670700    -0.010125999349    12.000000000000
         C            2.934138179872    -0.235375670700     0.009609000651    12.000000000000
         H            0.290777179872    -2.367108670700    -0.030390999349     1.007825032230
         H            2.783429179872     1.910205329300     0.031495000651     1.007825032230
         H           -0.257921820128     2.565803329300    -1.018685999349     1.007825032230
         H           -0.723347820128     2.362463329300     0.669553000651     1.007825032230
         H            0.816238179872     3.138359329300     0.267807000651     1.007825032230
         H            2.774667179872    -2.386374370700    -0.211696599349     1.007825032230
         H            4.021427179872    -0.229883670700     0.017580000651     1.007825032230

  Basis Set: AUG-CC-PVTZ
    Blend: AUG-CC-PVTZ
  Basis Set: (AUG-CC-PVTZ AUX)
    Blend: AUG-CC-PVTZ-JKFIT
	 Reference Energy          =    -605.5749800998137289 [Eh]
	 Singles Energy            =      -0.0000000000000000 [Eh]
	 Same-Spin Energy          =      -0.5634542896578492 [Eh]
	 Opposite-Spin Energy      =      -1.6975827284723144 [Eh]
	 Correlation Energy        =      -2.2610370181301636 [Eh]
	 Total Energy              =    -607.8360171179439249 [Eh]

	 ================> DF-SCS-MP2 Energies <==================
	-----------------------------------------------------------
	 SCS Same-Spin Scale       =       0.3333333333333333 [-]
	 SCS Opposite-Spin Scale   =       1.2000000000000000 [-]
	 SCS Same-Spin Energy      =      -0.1878180965526164 [Eh]
	 SCS Opposite-Spin Energy  =      -2.0370992741667773 [Eh]
	 SCS Correlation Energy    =      -2.2249173707193934 [Eh]
	 SCS Total Energy          =    -607.7998974705330966 [Eh]
	-----------------------------------------------------------

  Dipole Moment: [D]
     X:     2.5805      Y:     0.4626      Z:    -0.1869     Total:     2.6283

*** Psi4 exiting successfully. Buy a developer a beer!
