                               Psi4 1.3.2 release

  ==> Input File <==

--------------------------------------------------------------------------
#psi4
#
memory 32 gb

molecule  {
0 1
  F       -1.9734470     0.4735540    -0.9939180
  F       -1.9413570    -1.5269070    -0.1417860
  F       -1.9373460     0.2097040     1.1676710
  C        0.0587940    -0.2544720    -0.0183930
  C        0.7415540     0.9772520     0.0078750
  C        0.7507890    -1.4682550    -0.0178400
  C        2.1403840     0.9368280     0.0127460
  C       -1.4402130    -0.2782400     0.0012850
  C        0.0295793     2.3081664     0.0810928
  C        2.1451100    -1.4771990    -0.0107000
  C        2.8415060    -0.2700650     0.0090350
  H        0.1981450    -2.4017980    -0.0309650
  H        2.6907970     1.8755160     0.0309210
  H       -0.3505540     2.5311140    -1.0192600
  H       -0.8159800     2.3277740     0.6689790
  H        0.7236060     3.1036700     0.2672330
  H        2.6805350    -2.4229320    -0.0122850
  H        3.9287950    -0.2645730     0.0170060
units angstrom
no_reorient  #important for SAPT in psi4, default
symmetry c1  #important for SAPT in psi4, default
}

set PROPERTIES_ORIGIN ["COM"]
properties('MP2/aug-cc-pvtz', properties = ['dipole'])
--------------------------------------------------------------------------

    Molecular point group: c1
  Charge       = 0
  Multiplicity = 1
  Basis Set: AUG-CC-PVTZ
    Blend: AUG-CC-PVTZ
  Basis Set: (AUG-CC-PVTZ AUX)
    Blend: AUG-CC-PVTZ-JKFIT

    Orbital Energies [Eh]
    ---------------------

    Doubly Occupied:

       1A    -26.335497     2A    -26.331773     3A    -26.331436
       4A    -11.508711     5A    -11.271736     6A    -11.264562
       7A    -11.259810     8A    -11.256811     9A    -11.248323
      10A    -11.248196    11A    -11.236116    12A     -1.717478
      13A     -1.626645    14A     -1.623383    15A     -1.180620
      16A     -1.072016    17A     -1.057225    18A     -0.973923
      19A     -0.938118    20A     -0.862190    21A     -0.837423
      22A     -0.811644    23A     -0.803933    24A     -0.774560
      25A     -0.704671    26A     -0.704363    27A     -0.689606
      28A     -0.667546    29A     -0.656818    30A     -0.649975
      31A     -0.643927    32A     -0.636132    33A     -0.593039
      34A     -0.584925    35A     -0.575277    36A     -0.557924
      37A     -0.512534    38A     -0.510679    39A     -0.497431
      40A     -0.360568    41A     -0.342005

  @DF-RHF Final Energy:  -605.56833055225457

   => Energetics <=

    Nuclear Repulsion Energy =            632.0101635130361046
    One-Electron Energy =               -2088.2378885235398229
    Two-Electron Energy =                 850.6593944582491531
    Total Energy =                       -605.5683305522545652
  Basis Set: (AUG-CC-PVTZ AUX)
    Blend: AUG-CC-PVTZ-RI
    Molecular point group: c1

    Geometry (in Angstrom), charge = 0, multiplicity = 1:

       Center              X                  Y                   Z               Mass
    ------------   -----------------  -----------------  -----------------  -----------------
         F           -1.880693082299     0.508254838951    -1.002100114485    18.998403162730
         F           -1.848603082299    -1.492206161049    -0.149968114485    18.998403162730
         F           -1.844592082299     0.244404838951     1.159488885515    18.998403162730
         C            0.151547917701    -0.219771161049    -0.026575114485    12.000000000000
         C            0.834307917701     1.011952838951    -0.000307114485    12.000000000000
         C            0.843542917701    -1.433554161049    -0.026022114485    12.000000000000
         C            2.233137917701     0.971528838951     0.004563885515    12.000000000000
         C           -1.347459082299    -0.243539161049    -0.006897114485    12.000000000000
         C            0.122333217701     2.342867238951     0.072910685515    12.000000000000
         C            2.237863917701    -1.442498161049    -0.018882114485    12.000000000000
         C            2.934259917701    -0.235364161049     0.000852885515    12.000000000000
         H            0.290898917701    -2.367097161049    -0.039147114485     1.007825032230
         H            2.783550917701     1.910216838951     0.022738885515     1.007825032230
         H           -0.257800082299     2.565814838951    -1.027442114485     1.007825032230
         H           -0.723226082299     2.362474838951     0.660796885515     1.007825032230
         H            0.816359917701     3.138370838951     0.259050885515     1.007825032230
         H            2.773288917701    -2.388231161049    -0.020467114485     1.007825032230
         H            4.021548917701    -0.229872161049     0.008823885515     1.007825032230

  Basis Set: AUG-CC-PVTZ
    Blend: AUG-CC-PVTZ
  Basis Set: (AUG-CC-PVTZ AUX)
    Blend: AUG-CC-PVTZ-JKFIT
	 Reference Energy          =    -605.5683305522545652 [Eh]
	 Singles Energy            =      -0.0000000000000000 [Eh]
	 Same-Spin Energy          =      -0.5634391076743985 [Eh]
	 Opposite-Spin Energy      =      -1.6976662430767195 [Eh]
	 Correlation Energy        =      -2.2611053507511181 [Eh]
	 Total Energy              =    -607.8294359030056739 [Eh]

	 ================> DF-SCS-MP2 Energies <==================
	-----------------------------------------------------------
	 SCS Same-Spin Scale       =       0.3333333333333333 [-]
	 SCS Opposite-Spin Scale   =       1.2000000000000000 [-]
	 SCS Same-Spin Energy      =      -0.1878130358914662 [Eh]
	 SCS Opposite-Spin Energy  =      -2.0371994916920633 [Eh]
	 SCS Correlation Energy    =      -2.2250125275835293 [Eh]
	 SCS Total Energy          =    -607.7933430798381096 [Eh]
	-----------------------------------------------------------

  Dipole Moment: [D]
     X:     2.5898      Y:     0.4608      Z:    -0.0252     Total:     2.6306

*** Psi4 exiting successfully. Buy a developer a beer!
