                               Psi4 1.3.2 release

  ==> Input File <==

--------------------------------------------------------------------------
#psi4
#
memory 32 gb

molecule  {
0 1
  F       -1.9734470     0.4735540    -0.9939180
  F       -1.9413570    -1.5269070    -0.1417860
  F       -1.9373460     0.2097040     1.1676710
  C        0.0587940    -0.2544720    -0.0183930
  C        0.7415540     0.9772520     0.0078750
  C        0.7507890    -1.4682550    -0.0178400
  C        2.1403840     0.9368280     0.0127460
  C       -1.4409689    -0.2756142    -0.2487001
  C        0.0310770     2.3081630    -0.0188960
  C        2.1451100    -1.4771990    -0.0107000
  C        2.8415060    -0.2700650     0.0090350
  H        0.1981450    -2.4017980    -0.0309650
  H        2.6907970     1.8755160     0.0309210
  H       -0.3505540     2.5311140    -1.0192600
  H       -0.8159800     2.3277740     0.6689790
  H        0.7236060     3.1036700     0.2672330
  H        2.6805350    -2.4229320    -0.0122850
  H        3.9287950    -0.2645730     0.0170060
units angstrom
no_reorient  #important for SAPT in psi4, default
symmetry c1  #important for SAPT in psi4, default
}

set PROPERTIES_ORIGIN ["COM"]
properties('MP2/aug-cc-pvtz', properties = ['dipole'])
--------------------------------------------------------------------------

    Molecular point group: c1
  Charge       = 0
  Multiplicity = 1
  Basis Set: AUG-CC-PVTZ
    Blend: AUG-CC-PVTZ
  Basis Set: (AUG-CC-PVTZ AUX)
    Blend: AUG-CC-PVTZ-JKFIT

    Orbital Energies [Eh]
    ---------------------

    Doubly Occupied:

       1A    -26.409010     2A    -26.341672     3A    -26.240046
       4A    -11.519466     5A    -11.271434     6A    -11.270290
       7A    -11.260548     8A    -11.257156     9A    -11.249615
      10A    -11.249028    11A    -11.234160    12A     -1.812829
      13A     -1.660903    14A     -1.515650    15A     -1.181164
      16A     -1.073004    17A     -1.057967    18A     -0.991571
      19A     -0.948168    20A     -0.888173    21A     -0.864511
      22A     -0.838259    23A     -0.828335    24A     -0.788361
      25A     -0.721779    26A     -0.702683    27A     -0.688541
      28A     -0.662289    29A     -0.652381    30A     -0.620434
      31A     -0.597826    32A     -0.590013    33A     -0.587699
      34A     -0.575573    35A     -0.568396    36A     -0.551509
      37A     -0.513408    38A     -0.509214    39A     -0.499118
      40A     -0.358757    41A     -0.344701

  @DF-RHF Final Energy:  -605.52445634998821

   => Energetics <=

    Nuclear Repulsion Energy =            631.9446697056717994
    One-Electron Energy =               -2087.9469660193844902
    Two-Electron Energy =                 850.4778399637243638
    Total Energy =                       -605.5244563499882133
  Basis Set: (AUG-CC-PVTZ AUX)
    Blend: AUG-CC-PVTZ-RI
    Molecular point group: c1

    Geometry (in Angstrom), charge = 0, multiplicity = 1:

       Center              X                  Y                   Z               Mass
    ------------   -----------------  -----------------  -----------------  -----------------
         F           -1.880748699924     0.508058220376    -0.975860269430    18.998403162730
         F           -1.848658699924    -1.492402779624    -0.123728269430    18.998403162730
         F           -1.844647699924     0.244208220376     1.185728730570    18.998403162730
         C            0.151492300076    -0.219967779624    -0.000335269430    12.000000000000
         C            0.834252300076     1.011756220376     0.025932730570    12.000000000000
         C            0.843487300076    -1.433750779624     0.000217730570    12.000000000000
         C            2.233082300076     0.971332220376     0.030803730570    12.000000000000
         C           -1.348270599924    -0.241109979624    -0.230642369430    12.000000000000
         C            0.123775300076     2.342667220376    -0.000838269430    12.000000000000
         C            2.237808300076    -1.442694779624     0.007357730570    12.000000000000
         C            2.934204300076    -0.235560779624     0.027092730570    12.000000000000
         H            0.290843300076    -2.367293779624    -0.012907269430     1.007825032230
         H            2.783495300076     1.910020220376     0.048978730570     1.007825032230
         H           -0.257855699924     2.565618220376    -1.001202269430     1.007825032230
         H           -0.723281699924     2.362278220376     0.687036730570     1.007825032230
         H            0.816304300076     3.138174220376     0.285290730570     1.007825032230
         H            2.773233300076    -2.388427779624     0.005772730570     1.007825032230
         H            4.021493300076    -0.230068779624     0.035063730570     1.007825032230

  Basis Set: AUG-CC-PVTZ
    Blend: AUG-CC-PVTZ
  Basis Set: (AUG-CC-PVTZ AUX)
    Blend: AUG-CC-PVTZ-JKFIT
	 Reference Energy          =    -605.5244563499882133 [Eh]
	 Singles Energy            =      -0.0000000000000000 [Eh]
	 Same-Spin Energy          =      -0.5650976619951342 [Eh]
	 Opposite-Spin Energy      =      -1.6999908225371607 [Eh]
	 Correlation Energy        =      -2.2650884845322947 [Eh]
	 Total Energy              =    -607.7895448345204841 [Eh]

	 ================> DF-SCS-MP2 Energies <==================
	-----------------------------------------------------------
	 SCS Same-Spin Scale       =       0.3333333333333333 [-]
	 SCS Opposite-Spin Scale   =       1.2000000000000000 [-]
	 SCS Same-Spin Energy      =      -0.1883658873317114 [Eh]
	 SCS Opposite-Spin Energy  =      -2.0399889870445929 [Eh]
	 SCS Correlation Energy    =      -2.2283548743763042 [Eh]
	 SCS Total Energy          =    -607.7528112243645637 [Eh]
	-----------------------------------------------------------

  Dipole Moment: [D]
     X:     2.6074      Y:     0.4960      Z:    -1.9269     Total:     3.2798

*** Psi4 exiting successfully. Buy a developer a beer!
