                               Psi4 1.3.2 release

  ==> Input File <==

--------------------------------------------------------------------------
#psi4
#
memory 32 gb

molecule  {
0 1
  F       -1.9734470     0.4735540    -0.9939180
  F       -1.9413570    -1.5269070    -0.1417860
  F       -1.9373460     0.2097040     1.1676710
  C        0.0587940    -0.2544720    -0.0183930
  C        0.7415540     0.9772520     0.0078750
  C        0.7507890    -1.4682550    -0.0178400
  C        2.1403840     0.9368280     0.0127460
  C       -1.4402130    -0.2782400     0.0012850
  C        0.0303281     2.3081647     0.0310984
  C        2.1451100    -1.4771990    -0.0107000
  C        2.8415060    -0.2700650     0.0090350
  H        0.1981450    -2.4017980    -0.0309650
  H        2.6907970     1.8755160     0.0309210
  H       -0.3505540     2.5311140    -1.0192600
  H       -0.8159800     2.3277740     0.6689790
  H        0.7236060     3.1036700     0.2672330
  H        2.6805350    -2.4229320    -0.0122850
  H        3.9287950    -0.2645730     0.0170060
units angstrom
no_reorient  #important for SAPT in psi4, default
symmetry c1  #important for SAPT in psi4, default
}

set PROPERTIES_ORIGIN ["COM"]
properties('MP2/aug-cc-pvtz', properties = ['dipole'])
--------------------------------------------------------------------------

    Molecular point group: c1
  Charge       = 0
  Multiplicity = 1
  Basis Set: AUG-CC-PVTZ
    Blend: AUG-CC-PVTZ
  Basis Set: (AUG-CC-PVTZ AUX)
    Blend: AUG-CC-PVTZ-JKFIT

    Orbital Energies [Eh]
    ---------------------

    Doubly Occupied:

       1A    -26.335452     2A    -26.331809     3A    -26.331204
       4A    -11.508662     5A    -11.270846     6A    -11.264658
       7A    -11.259738     8A    -11.256691     9A    -11.248533
      10A    -11.248182    11A    -11.234675    12A     -1.717398
      13A     -1.626602    14A     -1.623264    15A     -1.180564
      16A     -1.071970    17A     -1.057120    18A     -0.973660
      19A     -0.937481    20A     -0.862038    21A     -0.837144
      22A     -0.811555    23A     -0.803803    24A     -0.774194
      25A     -0.704573    26A     -0.704299    27A     -0.689272
      28A     -0.666596    29A     -0.656776    30A     -0.649267
      31A     -0.643874    32A     -0.635218    33A     -0.590534
      34A     -0.582890    35A     -0.576511    36A     -0.559824
      37A     -0.510446    38A     -0.509780    39A     -0.503405
      40A     -0.360484    41A     -0.343279

  @DF-RHF Final Energy:  -605.57524199527734

   => Energetics <=

    Nuclear Repulsion Energy =            632.0433891138449098
    One-Electron Energy =               -2088.3287206559075457
    Two-Electron Energy =                 850.7100895467851842
    Total Energy =                       -605.5752419952773380
  Basis Set: (AUG-CC-PVTZ AUX)
    Blend: AUG-CC-PVTZ-RI
    Molecular point group: c1

    Geometry (in Angstrom), charge = 0, multiplicity = 1:

       Center              X                  Y                   Z               Mass
    ------------   -----------------  -----------------  -----------------  -----------------
         F           -1.880749224760     0.508254966411    -0.998351705505    18.998403162730
         F           -1.848659224760    -1.492206033589    -0.146219705505    18.998403162730
         F           -1.844648224760     0.244404966411     1.163237294495    18.998403162730
         C            0.151491775240    -0.219771033589    -0.022826705505    12.000000000000
         C            0.834251775240     1.011952966411     0.003441294495    12.000000000000
         C            0.843486775240    -1.433554033589    -0.022273705505    12.000000000000
         C            2.233081775240     0.971528966411     0.008312294495    12.000000000000
         C           -1.347515224760    -0.243539033589    -0.003148705505    12.000000000000
         C            0.123025875240     2.342865666411     0.026664694495    12.000000000000
         C            2.237807775240    -1.442498033589    -0.015133705505    12.000000000000
         C            2.934203775240    -0.235364033589     0.004601294495    12.000000000000
         H            0.290842775240    -2.367097033589    -0.035398705505     1.007825032230
         H            2.783494775240     1.910216966411     0.026487294495     1.007825032230
         H           -0.257856224760     2.565814966411    -1.023693705505     1.007825032230
         H           -0.723282224760     2.362474966411     0.664545294495     1.007825032230
         H            0.816303775240     3.138370966411     0.262799294495     1.007825032230
         H            2.773232775240    -2.388231033589    -0.016718705505     1.007825032230
         H            4.021492775240    -0.229872033589     0.012572294495     1.007825032230

  Basis Set: AUG-CC-PVTZ
    Blend: AUG-CC-PVTZ
  Basis Set: (AUG-CC-PVTZ AUX)
    Blend: AUG-CC-PVTZ-JKFIT
	 Reference Energy          =    -605.5752419952773380 [Eh]
	 Singles Energy            =      -0.0000000000000000 [Eh]
	 Same-Spin Energy          =      -0.5633546572452650 [Eh]
	 Opposite-Spin Energy      =      -1.6973845756716779 [Eh]
	 Correlation Energy        =      -2.2607392329169427 [Eh]
	 Total Energy              =    -607.8359812281943277 [Eh]

	 ================> DF-SCS-MP2 Energies <==================
	-----------------------------------------------------------
	 SCS Same-Spin Scale       =       0.3333333333333333 [-]
	 SCS Opposite-Spin Scale   =       1.2000000000000000 [-]
	 SCS Same-Spin Energy      =      -0.1877848857484217 [Eh]
	 SCS Opposite-Spin Energy  =      -2.0368614908060132 [Eh]
	 SCS Correlation Energy    =      -2.2246463765544346 [Eh]
	 SCS Total Energy          =    -607.7998883718317984 [Eh]
	-----------------------------------------------------------

  Dipole Moment: [D]
     X:     2.5913      Y:     0.4492      Z:    -0.0446     Total:     2.6303

*** Psi4 exiting successfully. Buy a developer a beer!
