                               Psi4 1.3.2 release

  ==> Input File <==

--------------------------------------------------------------------------
#psi4
#
memory 32 gb

molecule  {
0 1
  F       -1.9734470     0.4735540    -0.9939180
  F       -1.9413570    -1.5269070    -0.1417860
  F       -1.9373460     0.2097040     1.1676710
  C        0.0587940    -0.2544720    -0.0183930
  C        0.7415540     0.9772520     0.0078750
  C        0.7507890    -1.4682550    -0.0178400
  C        2.1403840     0.9368280     0.0127460
  C       -1.4402130    -0.2782400     0.0012850
  C        0.0288304     2.3081681     0.1310872
  C        2.1451100    -1.4771990    -0.0107000
  C        2.8415060    -0.2700650     0.0090350
  H        0.1981450    -2.4017980    -0.0309650
  H        2.6907970     1.8755160     0.0309210
  H       -0.3505540     2.5311140    -1.0192600
  H       -0.8159800     2.3277740     0.6689790
  H        0.7236060     3.1036700     0.2672330
  H        2.6805350    -2.4229320    -0.0122850
  H        3.9287950    -0.2645730     0.0170060
units angstrom
no_reorient  #important for SAPT in psi4, default
symmetry c1  #important for SAPT in psi4, default
}

set PROPERTIES_ORIGIN ["COM"]
properties('MP2/aug-cc-pvtz', properties = ['dipole'])
--------------------------------------------------------------------------

    Molecular point group: c1
  Charge       = 0
  Multiplicity = 1
  Basis Set: AUG-CC-PVTZ
    Blend: AUG-CC-PVTZ
  Basis Set: (AUG-CC-PVTZ AUX)
    Blend: AUG-CC-PVTZ-JKFIT

    Orbital Energies [Eh]
    ---------------------

    Doubly Occupied:

       1A    -26.335551     2A    -26.331723     3A    -26.331672
       4A    -11.508770     5A    -11.272993     6A    -11.264504
       7A    -11.259926     8A    -11.256988     9A    -11.248337
      10A    -11.248104    11A    -11.238300    12A     -1.717559
      13A     -1.626697    14A     -1.623492    15A     -1.180712
      16A     -1.072084    17A     -1.057344    18A     -0.974324
      19A     -0.939018    20A     -0.862395    21A     -0.837829
      22A     -0.811733    23A     -0.804083    24A     -0.775105
      25A     -0.704864    26A     -0.704379    27A     -0.690143
      28A     -0.668835    29A     -0.656878    30A     -0.650801
      31A     -0.643986    32A     -0.637323    33A     -0.597840
      34A     -0.586411    35A     -0.577408    36A     -0.551563
      37A     -0.514415    38A     -0.511135    39A     -0.490358
      40A     -0.360705    41A     -0.340429

  @DF-RHF Final Energy:  -605.55733596748541

   => Energetics <=

    Nuclear Repulsion Energy =            631.9503251351180779
    One-Electron Energy =               -2088.0818887616856045
    Two-Electron Energy =                 850.5742276590822257
    Total Energy =                       -605.5573359674854146
  Basis Set: (AUG-CC-PVTZ AUX)
    Blend: AUG-CC-PVTZ-RI
    Molecular point group: c1

    Geometry (in Angstrom), charge = 0, multiplicity = 1:

       Center              X                  Y                   Z               Mass
    ------------   -----------------  -----------------  -----------------  -----------------
         F           -1.880636932341     0.508254711491    -1.005848523466    18.998403162730
         F           -1.848546932341    -1.492206288509    -0.153716523466    18.998403162730
         F           -1.844535932341     0.244404711491     1.155740476534    18.998403162730
         C            0.151604067659    -0.219771288509    -0.030323523466    12.000000000000
         C            0.834364067659     1.011952711491    -0.004055523466    12.000000000000
         C            0.843599067659    -1.433554288509    -0.029770523466    12.000000000000
         C            2.233194067659     0.971528711491     0.000815476534    12.000000000000
         C           -1.347402932341    -0.243539288509    -0.010645523466    12.000000000000
         C            0.121640467659     2.342868811491     0.119156676534    12.000000000000
         C            2.237920067659    -1.442498288509    -0.022630523466    12.000000000000
         C            2.934316067659    -0.235364288509    -0.002895523466    12.000000000000
         H            0.290955067659    -2.367097288509    -0.042895523466     1.007825032230
         H            2.783607067659     1.910216711491     0.018990476534     1.007825032230
         H           -0.257743932341     2.565814711491    -1.031190523466     1.007825032230
         H           -0.723169932341     2.362474711491     0.657048476534     1.007825032230
         H            0.816416067659     3.138370711491     0.255302476534     1.007825032230
         H            2.773345067659    -2.388231288509    -0.024215523466     1.007825032230
         H            4.021605067659    -0.229872288509     0.005075476534     1.007825032230

  Basis Set: AUG-CC-PVTZ
    Blend: AUG-CC-PVTZ
  Basis Set: (AUG-CC-PVTZ AUX)
    Blend: AUG-CC-PVTZ-JKFIT
	 Reference Energy          =    -605.5573359674854146 [Eh]
	 Singles Energy            =      -0.0000000000000000 [Eh]
	 Same-Spin Energy          =      -0.5635909671939389 [Eh]
	 Opposite-Spin Energy      =      -1.6981680482015666 [Eh]
	 Correlation Energy        =      -2.2617590153955054 [Eh]
	 Total Energy              =    -607.8190949828808698 [Eh]

	 ================> DF-SCS-MP2 Energies <==================
	-----------------------------------------------------------
	 SCS Same-Spin Scale       =       0.3333333333333333 [-]
	 SCS Opposite-Spin Scale   =       1.2000000000000000 [-]
	 SCS Same-Spin Energy      =      -0.1878636557313129 [Eh]
	 SCS Opposite-Spin Energy  =      -2.0378016578418801 [Eh]
	 SCS Correlation Energy    =      -2.2256653135731930 [Eh]
	 SCS Total Energy          =    -607.7830012810586595 [Eh]
	-----------------------------------------------------------

  Dipole Moment: [D]
     X:     2.5912      Y:     0.4689      Z:    -0.0053     Total:     2.6333

*** Psi4 exiting successfully. Buy a developer a beer!
