                               Psi4 1.3.2 release

  ==> Input File <==

--------------------------------------------------------------------------
#psi4
#
memory 32 gb

molecule  {
0 1
  F       -1.9734470     0.4735540    -0.9939180
  F       -1.9413570    -1.5269070    -0.1417860
  F       -1.9373460     0.2097040     1.1676710
  C        0.0587940    -0.2544720    -0.0183930
  C        0.7415540     0.9772520     0.0078750
  C        0.7507890    -1.4682550    -0.0178400
  C        2.1403840     0.9368280     0.0127460
  C       -1.4402130    -0.2782400     0.0012850
  C        0.0273327     2.3081716     0.2310760
  C        2.1451100    -1.4771990    -0.0107000
  C        2.8415060    -0.2700650     0.0090350
  H        0.1981450    -2.4017980    -0.0309650
  H        2.6907970     1.8755160     0.0309210
  H       -0.3505540     2.5311140    -1.0192600
  H       -0.8159800     2.3277740     0.6689790
  H        0.7236060     3.1036700     0.2672330
  H        2.6805350    -2.4229320    -0.0122850
  H        3.9287950    -0.2645730     0.0170060
units angstrom
no_reorient  #important for SAPT in psi4, default
symmetry c1  #important for SAPT in psi4, default
}

set PROPERTIES_ORIGIN ["COM"]
properties('MP2/aug-cc-pvtz', properties = ['dipole'])
--------------------------------------------------------------------------

    Molecular point group: c1
  Charge       = 0
  Multiplicity = 1
  Basis Set: AUG-CC-PVTZ
    Blend: AUG-CC-PVTZ
  Basis Set: (AUG-CC-PVTZ AUX)
    Blend: AUG-CC-PVTZ-JKFIT

    Orbital Energies [Eh]
    ---------------------

    Doubly Occupied:

       1A    -26.335679     2A    -26.332146     3A    -26.331591
       4A    -11.508912     5A    -11.276453     6A    -11.264471
       7A    -11.260262     8A    -11.257482     9A    -11.248736
      10A    -11.247839    11A    -11.244810    12A     -1.717719
      13A     -1.626826    14A     -1.623676    15A     -1.180968
      16A     -1.072253    17A     -1.057584    18A     -0.975529
      19A     -0.941409    20A     -0.862933    21A     -0.838883
      22A     -0.811909    23A     -0.804418    24A     -0.776596
      25A     -0.705398    26A     -0.704411    27A     -0.691926
      28A     -0.672594    29A     -0.657053    30A     -0.652789
      31A     -0.644109    32A     -0.640029    33A     -0.609187
      34A     -0.587774    35A     -0.579320    36A     -0.541330
      37A     -0.516976    38A     -0.511385    39A     -0.474072
      40A     -0.361113    41A     -0.336342

  @DF-RHF Final Energy:  -605.52509995757430

   => Energetics <=

    Nuclear Repulsion Energy =            631.7448194681443283
    One-Electron Energy =               -2087.5700522891957007
    Two-Electron Energy =                 850.3001328634771880
    Total Energy =                       -605.5250999575742981
  Basis Set: (AUG-CC-PVTZ AUX)
    Blend: AUG-CC-PVTZ-RI
    Molecular point group: c1

    Geometry (in Angstrom), charge = 0, multiplicity = 1:

       Center              X                  Y                   Z               Mass
    ------------   -----------------  -----------------  -----------------  -----------------
         F           -1.880524639922     0.508254449073    -1.013345341426    18.998403162730
         F           -1.848434639922    -1.492206550927    -0.161213341426    18.998403162730
         F           -1.844423639922     0.244404449073     1.148243658574    18.998403162730
         C            0.151716360078    -0.219771550927    -0.037820341426    12.000000000000
         C            0.834476360078     1.011952449073    -0.011552341426    12.000000000000
         C            0.843711360078    -1.433554550927    -0.037267341426    12.000000000000
         C            2.233306360078     0.971528449073    -0.006681341426    12.000000000000
         C           -1.347290639922    -0.243539550927    -0.018142341426    12.000000000000
         C            0.120255060078     2.342872049073     0.211648658574    12.000000000000
         C            2.238032360078    -1.442498550927    -0.030127341426    12.000000000000
         C            2.934428360078    -0.235364550927    -0.010392341426    12.000000000000
         H            0.291067360078    -2.367097550927    -0.050392341426     1.007825032230
         H            2.783719360078     1.910216449073     0.011493658574     1.007825032230
         H           -0.257631639922     2.565814449073    -1.038687341426     1.007825032230
         H           -0.723057639922     2.362474449073     0.649551658574     1.007825032230
         H            0.816528360078     3.138370449073     0.247805658574     1.007825032230
         H            2.773457360078    -2.388231550927    -0.031712341426     1.007825032230
         H            4.021717360078    -0.229872550927    -0.002421341426     1.007825032230

  Basis Set: AUG-CC-PVTZ
    Blend: AUG-CC-PVTZ
  Basis Set: (AUG-CC-PVTZ AUX)
    Blend: AUG-CC-PVTZ-JKFIT
	 Reference Energy          =    -605.5250999575742981 [Eh]
	 Singles Energy            =      -0.0000000000000000 [Eh]
	 Same-Spin Energy          =      -0.5640979506969707 [Eh]
	 Opposite-Spin Energy      =      -1.6998545282840130 [Eh]
	 Correlation Energy        =      -2.2639524789809835 [Eh]
	 Total Energy              =    -607.7890524365552665 [Eh]

	 ================> DF-SCS-MP2 Energies <==================
	-----------------------------------------------------------
	 SCS Same-Spin Scale       =       0.3333333333333333 [-]
	 SCS Opposite-Spin Scale   =       1.2000000000000000 [-]
	 SCS Same-Spin Energy      =      -0.1880326502323235 [Eh]
	 SCS Opposite-Spin Energy  =      -2.0398254339408153 [Eh]
	 SCS Correlation Energy    =      -2.2278580841731390 [Eh]
	 SCS Total Energy          =    -607.7529580417474335 [Eh]
	-----------------------------------------------------------

  Dipole Moment: [D]
     X:     2.5992      Y:     0.4779      Z:     0.0303     Total:     2.6429

*** Psi4 exiting successfully. Buy a developer a beer!
