                               Psi4 1.3.2 release

  ==> Input File <==

--------------------------------------------------------------------------
#psi4
#
memory 32 gb

molecule  {
0 1
  F       -1.9734470     0.4735540    -0.9939180
  F       -1.9413570    -1.5269070    -0.1417860
  F       -1.9373460     0.2097040     1.1676710
  C        0.0587940    -0.2544720    -0.0183930
  C        0.7415540     0.9772520     0.0078750
  C        0.7507890    -1.4682550    -0.0178400
  C        2.1403840     0.9368280     0.0127460
  C       -1.4405154    -0.2771897    -0.0987090
  C        0.0310770     2.3081630    -0.0188960
  C        2.1451100    -1.4771990    -0.0107000
  C        2.8415060    -0.2700650     0.0090350
  H        0.1981450    -2.4017980    -0.0309650
  H        2.6907970     1.8755160     0.0309210
  H       -0.3505540     2.5311140    -1.0192600
  H       -0.8159800     2.3277740     0.6689790
  H        0.7236060     3.1036700     0.2672330
  H        2.6805350    -2.4229320    -0.0122850
  H        3.9287950    -0.2645730     0.0170060
units angstrom
no_reorient  #important for SAPT in psi4, default
symmetry c1  #important for SAPT in psi4, default
}

set PROPERTIES_ORIGIN ["COM"]
properties('MP2/aug-cc-pvtz', properties = ['dipole'])
--------------------------------------------------------------------------

    Molecular point group: c1
  Charge       = 0
  Multiplicity = 1
  Basis Set: AUG-CC-PVTZ
    Blend: AUG-CC-PVTZ
  Basis Set: (AUG-CC-PVTZ AUX)
    Blend: AUG-CC-PVTZ-JKFIT

    Orbital Energies [Eh]
    ---------------------

    Doubly Occupied:

       1A    -26.361661     2A    -26.338758     3A    -26.296297
       4A    -11.510410     5A    -11.270550     6A    -11.265824
       7A    -11.259958     8A    -11.256775     9A    -11.248988
      10A    -11.248417    11A    -11.234003    12A     -1.737270
      13A     -1.650243    14A     -1.583088    15A     -1.180726
      16A     -1.072185    17A     -1.057260    18A     -0.975866
      19A     -0.939340    20A     -0.867264    21A     -0.842330
      22A     -0.816732    23A     -0.807481    24A     -0.777902
      25A     -0.714941    26A     -0.696324    27A     -0.684530
      28A     -0.676447    29A     -0.651457    30A     -0.639081
      31A     -0.633609    32A     -0.626670    33A     -0.589989
      34A     -0.584053    35A     -0.579937    36A     -0.553791
      37A     -0.510698    38A     -0.508558    39A     -0.505260
      40A     -0.360185    41A     -0.344393

  @DF-RHF Final Energy:  -605.56891704736154

   => Energetics <=

    Nuclear Repulsion Energy =            632.0349814097045282
    One-Electron Energy =               -2088.2892952514539502
    Two-Electron Energy =                 850.6853967943879979
    Total Energy =                       -605.5689170473615377
  Basis Set: (AUG-CC-PVTZ AUX)
    Blend: AUG-CC-PVTZ-RI
    Molecular point group: c1

    Geometry (in Angstrom), charge = 0, multiplicity = 1:

       Center              X                  Y                   Z               Mass
    ------------   -----------------  -----------------  -----------------  -----------------
         F           -1.880782701802     0.508176345973    -0.987106088686    18.998403162730
         F           -1.848692701802    -1.492284654027    -0.134974088686    18.998403162730
         F           -1.844681701802     0.244326345973     1.174482911314    18.998403162730
         C            0.151458298198    -0.219849654027    -0.011581088686    12.000000000000
         C            0.834218298198     1.011874345973     0.014686911314    12.000000000000
         C            0.843453298198    -1.433632654027    -0.011028088686    12.000000000000
         C            2.233048298198     0.971450345973     0.019557911314    12.000000000000
         C           -1.347851101802    -0.242567354027    -0.091897088686    12.000000000000
         C            0.123741298198     2.342785345973    -0.012084088686    12.000000000000
         C            2.237774298198    -1.442576654027    -0.003888088686    12.000000000000
         C            2.934170298198    -0.235442654027     0.015846911314    12.000000000000
         H            0.290809298198    -2.367175654027    -0.024153088686     1.007825032230
         H            2.783461298198     1.910138345973     0.037732911314     1.007825032230
         H           -0.257889701802     2.565736345973    -1.012448088686     1.007825032230
         H           -0.723315701802     2.362396345973     0.675790911314     1.007825032230
         H            0.816270298198     3.138292345973     0.274044911314     1.007825032230
         H            2.773199298198    -2.388309654027    -0.005473088686     1.007825032230
         H            4.021459298198    -0.229950654027     0.023817911314     1.007825032230

  Basis Set: AUG-CC-PVTZ
    Blend: AUG-CC-PVTZ
  Basis Set: (AUG-CC-PVTZ AUX)
    Blend: AUG-CC-PVTZ-JKFIT
	 Reference Energy          =    -605.5689170473615377 [Eh]
	 Singles Energy            =      -0.0000000000000000 [Eh]
	 Same-Spin Energy          =      -0.5636904092258465 [Eh]
	 Opposite-Spin Energy      =      -1.6978742741243305 [Eh]
	 Correlation Energy        =      -2.2615646833501768 [Eh]
	 Total Energy              =    -607.8304817307117673 [Eh]

	 ================> DF-SCS-MP2 Energies <==================
	-----------------------------------------------------------
	 SCS Same-Spin Scale       =       0.3333333333333333 [-]
	 SCS Opposite-Spin Scale   =       1.2000000000000000 [-]
	 SCS Same-Spin Energy      =      -0.1878968030752821 [Eh]
	 SCS Opposite-Spin Energy  =      -2.0374491289491963 [Eh]
	 SCS Correlation Energy    =      -2.2253459320244784 [Eh]
	 SCS Total Energy          =    -607.7942629793859624 [Eh]
	-----------------------------------------------------------

  Dipole Moment: [D]
     X:     2.5986      Y:     0.4480      Z:    -0.7929     Total:     2.7536

*** Psi4 exiting successfully. Buy a developer a beer!
