                               Psi4 1.3.2 release

  ==> Input File <==

--------------------------------------------------------------------------
#psi4
#
memory 32 gb

molecule  {
0 1
  F       -1.9734470     0.4735540    -0.9939180
  F       -1.9413570    -1.5269070    -0.1417860
  F       -1.9373460     0.2097040     1.1676710
  C        0.0587940    -0.2544720    -0.0183930
  C        0.7415540     0.9772520     0.0078750
  C        0.7507890    -1.4682550    -0.0178400
  C        2.1403840     0.9368280     0.0127460
  C       -1.4402130    -0.2782400     0.0012850
  C        0.0280816     2.3081699     0.1810816
  C        2.1451100    -1.4771990    -0.0107000
  C        2.8415060    -0.2700650     0.0090350
  H        0.1981450    -2.4017980    -0.0309650
  H        2.6907970     1.8755160     0.0309210
  H       -0.3505540     2.5311140    -1.0192600
  H       -0.8159800     2.3277740     0.6689790
  H        0.7236060     3.1036700     0.2672330
  H        2.6805350    -2.4229320    -0.0122850
  H        3.9287950    -0.2645730     0.0170060
units angstrom
no_reorient  #important for SAPT in psi4, default
symmetry c1  #important for SAPT in psi4, default
}

set PROPERTIES_ORIGIN ["COM"]
properties('MP2/aug-cc-pvtz', properties = ['dipole'])
--------------------------------------------------------------------------

    Molecular point group: c1
  Charge       = 0
  Multiplicity = 1
  Basis Set: AUG-CC-PVTZ
    Blend: AUG-CC-PVTZ
  Basis Set: (AUG-CC-PVTZ AUX)
    Blend: AUG-CC-PVTZ-JKFIT

    Orbital Energies [Eh]
    ---------------------

    Doubly Occupied:

       1A    -26.335612     2A    -26.331912     3A    -26.331658
       4A    -11.508838     5A    -11.274581     6A    -11.264476
       7A    -11.260080     8A    -11.257216     9A    -11.248507
      10A    -11.247959    11A    -11.241211    12A     -1.717640
      13A     -1.626757    14A     -1.623590    15A     -1.180832
      16A     -1.072165    17A     -1.057467    18A     -0.974860
      19A     -0.940131    20A     -0.862647    21A     -0.838327
      22A     -0.811821    23A     -0.804247    24A     -0.775794
      25A     -0.705105    26A     -0.704392    27A     -0.690897
      28A     -0.670528    29A     -0.656955    30A     -0.651752
      31A     -0.644047    32A     -0.638678    33A     -0.603741
      34A     -0.587260    35A     -0.578764    36A     -0.545755
      37A     -0.515896    38A     -0.511377    39A     -0.482434
      40A     -0.360890    41A     -0.338541

  @DF-RHF Final Energy:  -605.54276011772413

   => Energetics <=

    Nuclear Repulsion Energy =            631.8623343047715935
    One-Electron Energy =               -2087.8595062504437010
    Two-Electron Energy =                 850.4544118279479790
    Total Energy =                       -605.5427601177241286
  Basis Set: (AUG-CC-PVTZ AUX)
    Blend: AUG-CC-PVTZ-RI
    Molecular point group: c1

    Geometry (in Angstrom), charge = 0, multiplicity = 1:

       Center              X                  Y                   Z               Mass
    ------------   -----------------  -----------------  -----------------  -----------------
         F           -1.880580789880     0.508254576533    -1.009596932446    18.998403162730
         F           -1.848490789880    -1.492206423467    -0.157464932446    18.998403162730
         F           -1.844479789880     0.244404576533     1.151992067554    18.998403162730
         C            0.151660210120    -0.219771423467    -0.034071932446    12.000000000000
         C            0.834420210120     1.011952576533    -0.007803932446    12.000000000000
         C            0.843655210120    -1.433554423467    -0.033518932446    12.000000000000
         C            2.233250210120     0.971528576533    -0.002932932446    12.000000000000
         C           -1.347346789880    -0.243539423467    -0.014393932446    12.000000000000
         C            0.120947810120     2.342870476533     0.165402667554    12.000000000000
         C            2.237976210120    -1.442498423467    -0.026378932446    12.000000000000
         C            2.934372210120    -0.235364423467    -0.006643932446    12.000000000000
         H            0.291011210120    -2.367097423467    -0.046643932446     1.007825032230
         H            2.783663210120     1.910216576533     0.015242067554     1.007825032230
         H           -0.257687789880     2.565814576533    -1.034938932446     1.007825032230
         H           -0.723113789880     2.362474576533     0.653300067554     1.007825032230
         H            0.816472210120     3.138370576533     0.251554067554     1.007825032230
         H            2.773401210120    -2.388231423467    -0.027963932446     1.007825032230
         H            4.021661210120    -0.229872423467     0.001327067554     1.007825032230

  Basis Set: AUG-CC-PVTZ
    Blend: AUG-CC-PVTZ
  Basis Set: (AUG-CC-PVTZ AUX)
    Blend: AUG-CC-PVTZ-JKFIT
	 Reference Energy          =    -605.5427601177241286 [Eh]
	 Singles Energy            =      -0.0000000000000000 [Eh]
	 Same-Spin Energy          =      -0.5638101751865374 [Eh]
	 Opposite-Spin Energy      =      -1.6988945673972120 [Eh]
	 Correlation Energy        =      -2.2627047425837494 [Eh]
	 Total Energy              =    -607.8054648603078931 [Eh]

	 ================> DF-SCS-MP2 Energies <==================
	-----------------------------------------------------------
	 SCS Same-Spin Scale       =       0.3333333333333333 [-]
	 SCS Opposite-Spin Scale   =       1.2000000000000000 [-]
	 SCS Same-Spin Energy      =      -0.1879367250621791 [Eh]
	 SCS Opposite-Spin Energy  =      -2.0386734808766542 [Eh]
	 SCS Correlation Energy    =      -2.2266102059388335 [Eh]
	 SCS Total Energy          =    -607.7693703236629972 [Eh]
	-----------------------------------------------------------

  Dipole Moment: [D]
     X:     2.5947      Y:     0.4743      Z:     0.0138     Total:     2.6377

*** Psi4 exiting successfully. Buy a developer a beer!
