                               Psi4 1.3.2 release

  ==> Input File <==

--------------------------------------------------------------------------
#psi4
#
memory 32 gb

molecule  {
0 1
  F       -1.9734470     0.4735540    -0.9939180
  F       -1.9413570    -1.5269070    -0.1417860
  F       -1.9373460     0.2097040     1.1676710
  C        0.0587940    -0.2544720    -0.0183930
  C        0.7415540     0.9772520     0.0078750
  C        0.7507890    -1.4682550    -0.0178400
  C        2.1403840     0.9368280     0.0127460
  C       -1.4402130    -0.2782400     0.0012850
  C        0.0310770     2.3081630    -0.0188960
  C        2.1451100    -1.4771990    -0.0107000
  C        2.8415060    -0.2700650     0.0090350
  H        0.1981450    -2.4017980    -0.0309650
  H        2.6907970     1.8755160     0.0309210
  H       -0.3505540     2.5311140    -1.0192600
  H       -0.8159800     2.3277740     0.6689790
  H        0.7236060     3.1036700     0.2672330
  H        2.6809100    -2.4224649    -0.0622814
  H        3.9287950    -0.2645730     0.0170060
units angstrom
no_reorient  #important for SAPT in psi4, default
symmetry c1  #important for SAPT in psi4, default
}

set PROPERTIES_ORIGIN ["COM"]
properties('MP2/aug-cc-pvtz', properties = ['dipole'])
--------------------------------------------------------------------------

    Molecular point group: c1
  Charge       = 0
  Multiplicity = 1
  Basis Set: AUG-CC-PVTZ
    Blend: AUG-CC-PVTZ
  Basis Set: (AUG-CC-PVTZ AUX)
    Blend: AUG-CC-PVTZ-JKFIT

    Orbital Energies [Eh]
    ---------------------

    Doubly Occupied:

       1A    -26.335422     2A    -26.331847     3A    -26.330970
       4A    -11.508631     5A    -11.270372     6A    -11.264805
       7A    -11.259727     8A    -11.256653     9A    -11.248886
      10A    -11.248250    11A    -11.233981    12A     -1.717323
      13A     -1.626573    14A     -1.623140    15A     -1.180557
      16A     -1.071942    17A     -1.057038    18A     -0.973546
      19A     -0.937143    20A     -0.861954    21A     -0.837028
      22A     -0.811471    23A     -0.803701    24A     -0.773972
      25A     -0.704603    26A     -0.704167    27A     -0.689123
      28A     -0.665904    29A     -0.656755    30A     -0.648645
      31A     -0.643841    32A     -0.634656    33A     -0.589795
      34A     -0.585034    35A     -0.580428    36A     -0.553897
      37A     -0.509954    38A     -0.509001    39A     -0.505678
      40A     -0.360470    41A     -0.344240

  @DF-RHF Final Energy:  -605.57739798946363

   => Energetics <=

    Nuclear Repulsion Energy =            632.0475303395284072
    One-Electron Energy =               -2088.3476134517754872
    Two-Electron Energy =                 850.7226851227835596
    Total Energy =                       -605.5773979894636341
  Basis Set: (AUG-CC-PVTZ AUX)
    Blend: AUG-CC-PVTZ-RI
    Molecular point group: c1

    Geometry (in Angstrom), charge = 0, multiplicity = 1:

       Center              X                  Y                   Z               Mass
    ------------   -----------------  -----------------  -----------------  -----------------
         F           -1.880807736071     0.508252152571    -0.994288472231    18.998403162730
         F           -1.848717736071    -1.492208847429    -0.142156472231    18.998403162730
         F           -1.844706736071     0.244402152571     1.167300527769    18.998403162730
         C            0.151433263929    -0.219773847429    -0.018763472231    12.000000000000
         C            0.834193263929     1.011950152571     0.007504527769    12.000000000000
         C            0.843428263929    -1.433556847429    -0.018210472231    12.000000000000
         C            2.233023263929     0.971526152571     0.012375527769    12.000000000000
         C           -1.347573736071    -0.243541847429     0.000914527769    12.000000000000
         C            0.123716263929     2.342861152571    -0.019266472231    12.000000000000
         C            2.237749263929    -1.442500847429    -0.011070472231    12.000000000000
         C            2.934145263929    -0.235366847429     0.008664527769    12.000000000000
         H            0.290784263929    -2.367099847429    -0.031335472231     1.007825032230
         H            2.783436263929     1.910214152571     0.030550527769     1.007825032230
         H           -0.257914736071     2.565812152571    -1.019630472231     1.007825032230
         H           -0.723340736071     2.362472152571     0.668608527769     1.007825032230
         H            0.816245263929     3.138368152571     0.266862527769     1.007825032230
         H            2.773549263929    -2.387766747429    -0.062651872231     1.007825032230
         H            4.021434263929    -0.229874847429     0.016635527769     1.007825032230

  Basis Set: AUG-CC-PVTZ
    Blend: AUG-CC-PVTZ
  Basis Set: (AUG-CC-PVTZ AUX)
    Blend: AUG-CC-PVTZ-JKFIT
	 Reference Energy          =    -605.5773979894636341 [Eh]
	 Singles Energy            =      -0.0000000000000000 [Eh]
	 Same-Spin Energy          =      -0.5633449593627506 [Eh]
	 Opposite-Spin Energy      =      -1.6973317668800512 [Eh]
	 Correlation Energy        =      -2.2606767262428020 [Eh]
	 Total Energy              =    -607.8380747157063979 [Eh]

	 ================> DF-SCS-MP2 Energies <==================
	-----------------------------------------------------------
	 SCS Same-Spin Scale       =       0.3333333333333333 [-]
	 SCS Opposite-Spin Scale   =       1.2000000000000000 [-]
	 SCS Same-Spin Energy      =      -0.1877816531209169 [Eh]
	 SCS Opposite-Spin Energy  =      -2.0367981202560612 [Eh]
	 SCS Correlation Energy    =      -2.2245797733769779 [Eh]
	 SCS Total Energy          =    -607.8019777628405791 [Eh]
	-----------------------------------------------------------

  Dipole Moment: [D]
     X:     2.5959      Y:     0.4352      Z:    -0.0940     Total:     2.6338

*** Psi4 exiting successfully. Buy a developer a beer!
