                               Psi4 1.3.2 release

  ==> Input File <==

--------------------------------------------------------------------------
#psi4
#
memory 32 gb

molecule  {
0 1
  F       -1.9734470     0.4735540    -0.9939180
  F       -1.9413570    -1.5269070    -0.1417860
  F       -1.9373460     0.2097040     1.1676710
  C        0.0587940    -0.2544720    -0.0183930
  C        0.7415540     0.9772520     0.0078750
  C        0.7507890    -1.4682550    -0.0178400
  C        2.1403840     0.9368280     0.0127460
  C       -1.4402130    -0.2782400     0.0012850
  C        0.0310770     2.3081630    -0.0188960
  C        2.1451100    -1.4771990    -0.0107000
  C        2.8415060    -0.2700650     0.0090350
  H        0.1981450    -2.4017980    -0.0309650
  H        2.6907970     1.8755160     0.0309210
  H       -0.3505540     2.5311140    -1.0192600
  H       -0.8159800     2.3277740     0.6689790
  H        0.7236060     3.1036700     0.2672330
  H        2.6812850    -2.4219978    -0.1122778
  H        3.9287950    -0.2645730     0.0170060
units angstrom
no_reorient  #important for SAPT in psi4, default
symmetry c1  #important for SAPT in psi4, default
}

set PROPERTIES_ORIGIN ["COM"]
properties('MP2/aug-cc-pvtz', properties = ['dipole'])
--------------------------------------------------------------------------

    Molecular point group: c1
  Charge       = 0
  Multiplicity = 1
  Basis Set: AUG-CC-PVTZ
    Blend: AUG-CC-PVTZ
  Basis Set: (AUG-CC-PVTZ AUX)
    Blend: AUG-CC-PVTZ-JKFIT

    Orbital Energies [Eh]
    ---------------------

    Doubly Occupied:

       1A    -26.335437     2A    -26.331883     3A    -26.330973
       4A    -11.508649     5A    -11.270443     6A    -11.264830
       7A    -11.259776     8A    -11.256710     9A    -11.249165
      10A    -11.248276    11A    -11.234015    12A     -1.717341
      13A     -1.626592    14A     -1.623156    15A     -1.180584
      16A     -1.071919    17A     -1.057056    18A     -0.973553
      19A     -0.937094    20A     -0.861978    21A     -0.837000
      22A     -0.811488    23A     -0.803708    24A     -0.773754
      25A     -0.704616    26A     -0.704175    27A     -0.688969
      28A     -0.665911    29A     -0.656772    30A     -0.648607
      31A     -0.643859    32A     -0.634585    33A     -0.589745
      34A     -0.585179    35A     -0.580110    36A     -0.553930
      37A     -0.511108    38A     -0.508945    39A     -0.504380
      40A     -0.360500    41A     -0.344190

  @DF-RHF Final Energy:  -605.57693864807811

   => Energetics <=

    Nuclear Repulsion Energy =            632.0345432777023689
    One-Electron Energy =               -2088.3210488678464571
    Two-Electron Energy =                 850.7095669420659760
    Total Energy =                       -605.5769386480781122
  Basis Set: (AUG-CC-PVTZ AUX)
    Blend: AUG-CC-PVTZ-RI
    Molecular point group: c1

    Geometry (in Angstrom), charge = 0, multiplicity = 1:

       Center              X                  Y                   Z               Mass
    ------------   -----------------  -----------------  -----------------  -----------------
         F           -1.880810097423     0.508249211271    -0.993973647937    18.998403162730
         F           -1.848720097423    -1.492211788729    -0.141841647937    18.998403162730
         F           -1.844709097423     0.244399211271     1.167615352063    18.998403162730
         C            0.151430902577    -0.219776788729    -0.018448647937    12.000000000000
         C            0.834190902577     1.011947211271     0.007819352063    12.000000000000
         C            0.843425902577    -1.433559788729    -0.017895647937    12.000000000000
         C            2.233020902577     0.971523211271     0.012690352063    12.000000000000
         C           -1.347576097423    -0.243544788729     0.001229352063    12.000000000000
         C            0.123713902577     2.342858211271    -0.018951647937    12.000000000000
         C            2.237746902577    -1.442503788729    -0.010755647937    12.000000000000
         C            2.934142902577    -0.235369788729     0.008979352063    12.000000000000
         H            0.290781902577    -2.367102788729    -0.031020647937     1.007825032230
         H            2.783433902577     1.910211211271     0.030865352063     1.007825032230
         H           -0.257917097423     2.565809211271    -1.019315647937     1.007825032230
         H           -0.723343097423     2.362469211271     0.668923352063     1.007825032230
         H            0.816242902577     3.138365211271     0.267177352063     1.007825032230
         H            2.773921902577    -2.387302588729    -0.112333447937     1.007825032230
         H            4.021431902577    -0.229877788729     0.016950352063     1.007825032230

  Basis Set: AUG-CC-PVTZ
    Blend: AUG-CC-PVTZ
  Basis Set: (AUG-CC-PVTZ AUX)
    Blend: AUG-CC-PVTZ-JKFIT
	 Reference Energy          =    -605.5769386480781122 [Eh]
	 Singles Energy            =      -0.0000000000000000 [Eh]
	 Same-Spin Energy          =      -0.5633661479825369 [Eh]
	 Opposite-Spin Energy      =      -1.6973714632597423 [Eh]
	 Correlation Energy        =      -2.2607376112422792 [Eh]
	 Total Energy              =    -607.8376762593203466 [Eh]

	 ================> DF-SCS-MP2 Energies <==================
	-----------------------------------------------------------
	 SCS Same-Spin Scale       =       0.3333333333333333 [-]
	 SCS Opposite-Spin Scale   =       1.2000000000000000 [-]
	 SCS Same-Spin Energy      =      -0.1877887159941790 [Eh]
	 SCS Opposite-Spin Energy  =      -2.0368457559116906 [Eh]
	 SCS Correlation Energy    =      -2.2246344719058695 [Eh]
	 SCS Total Energy          =    -607.8015731199840275 [Eh]
	-----------------------------------------------------------

  Dipole Moment: [D]
     X:     2.5930      Y:     0.4408      Z:    -0.1252     Total:     2.6332

*** Psi4 exiting successfully. Buy a developer a beer!
