                               Psi4 1.3.2 release

  ==> Input File <==

--------------------------------------------------------------------------
#psi4
#
memory 32 gb

molecule  {
0 1
  F       -1.9734470     0.4735540    -0.9939180
  F       -1.9413570    -1.5269070    -0.1417860
  F       -1.9373460     0.2097040     1.1676710
  C        0.0587940    -0.2544720    -0.0183930
  C        0.7415540     0.9772520     0.0078750
  C        0.7507890    -1.4682550    -0.0178400
  C        2.1403840     0.9368280     0.0127460
  C       -1.4402130    -0.2782400     0.0012850
  C        0.0310770     2.3081630    -0.0188960
  C        2.1451100    -1.4771990    -0.0107000
  C        2.8415060    -0.2700650     0.0090350
  H        0.1981450    -2.4017980    -0.0309650
  H        2.6907970     1.8755160     0.0309210
  H       -0.3505540     2.5311140    -1.0192600
  H       -0.8159800     2.3277740     0.6689790
  H        0.7236060     3.1036700     0.2672330
  H        2.6824100    -2.4205966    -0.2622671
  H        3.9287950    -0.2645730     0.0170060
units angstrom
no_reorient  #important for SAPT in psi4, default
symmetry c1  #important for SAPT in psi4, default
}

set PROPERTIES_ORIGIN ["COM"]
properties('MP2/aug-cc-pvtz', properties = ['dipole'])
--------------------------------------------------------------------------

    Molecular point group: c1
  Charge       = 0
  Multiplicity = 1
  Basis Set: AUG-CC-PVTZ
    Blend: AUG-CC-PVTZ
  Basis Set: (AUG-CC-PVTZ AUX)
    Blend: AUG-CC-PVTZ-JKFIT

    Orbital Energies [Eh]
    ---------------------

    Doubly Occupied:

       1A    -26.335556     2A    -26.332072     3A    -26.331066
       4A    -11.508790     5A    -11.270952     6A    -11.265017
       7A    -11.260171     8A    -11.257130     9A    -11.251135
      10A    -11.248458    11A    -11.234282    12A     -1.717474
      13A     -1.626726    14A     -1.623287    15A     -1.180795
      16A     -1.071792    17A     -1.057197    18A     -0.973623
      19A     -0.936789    20A     -0.862159    21A     -0.836838
      22A     -0.811622    23A     -0.803774    24A     -0.772311
      25A     -0.704736    26A     -0.704231    27A     -0.687971
      28A     -0.665976    29A     -0.656904    30A     -0.648371
      31A     -0.643992    32A     -0.634084    33A     -0.589377
      34A     -0.585688    35A     -0.578338    36A     -0.554170
      37A     -0.514341    38A     -0.509091    39A     -0.499542
      40A     -0.360710    41A     -0.343909

  @DF-RHF Final Energy:  -605.57341154770427

   => Energetics <=

    Nuclear Repulsion Energy =            631.9450613482641756
    One-Electron Energy =               -2088.1360504205222242
    Two-Electron Energy =                 850.6175775245538944
    Total Energy =                       -605.5734115477042678
  Basis Set: (AUG-CC-PVTZ AUX)
    Blend: AUG-CC-PVTZ-RI
    Molecular point group: c1

    Geometry (in Angstrom), charge = 0, multiplicity = 1:

       Center              X                  Y                   Z               Mass
    ------------   -----------------  -----------------  -----------------  -----------------
         F           -1.880817181480     0.508240388000    -0.993029174425    18.998403162730
         F           -1.848727181480    -1.492220612000    -0.140897174425    18.998403162730
         F           -1.844716181480     0.244390388000     1.168559825575    18.998403162730
         C            0.151423818520    -0.219785612000    -0.017504174425    12.000000000000
         C            0.834183818520     1.011938388000     0.008763825575    12.000000000000
         C            0.843418818520    -1.433568612000    -0.016951174425    12.000000000000
         C            2.233013818520     0.971514388000     0.013634825575    12.000000000000
         C           -1.347583181480    -0.243553612000     0.002173825575    12.000000000000
         C            0.123706818520     2.342849388000    -0.018007174425    12.000000000000
         C            2.237739818520    -1.442512612000    -0.009811174425    12.000000000000
         C            2.934135818520    -0.235378612000     0.009923825575    12.000000000000
         H            0.290774818520    -2.367111612000    -0.030076174425     1.007825032230
         H            2.783426818520     1.910202388000     0.031809825575     1.007825032230
         H           -0.257924181480     2.565800388000    -1.018371174425     1.007825032230
         H           -0.723350181480     2.362460388000     0.669867825575     1.007825032230
         H            0.816235818520     3.138356388000     0.268121825575     1.007825032230
         H            2.775039818520    -2.385910212000    -0.261378274425     1.007825032230
         H            4.021424818520    -0.229886612000     0.017894825575     1.007825032230

  Basis Set: AUG-CC-PVTZ
    Blend: AUG-CC-PVTZ
  Basis Set: (AUG-CC-PVTZ AUX)
    Blend: AUG-CC-PVTZ-JKFIT
	 Reference Energy          =    -605.5734115477042678 [Eh]
	 Singles Energy            =      -0.0000000000000000 [Eh]
	 Same-Spin Energy          =      -0.5635202221948264 [Eh]
	 Opposite-Spin Energy      =      -1.6977625257780831 [Eh]
	 Correlation Energy        =      -2.2612827479729094 [Eh]
	 Total Energy              =    -607.8346942956771954 [Eh]

	 ================> DF-SCS-MP2 Energies <==================
	-----------------------------------------------------------
	 SCS Same-Spin Scale       =       0.3333333333333333 [-]
	 SCS Opposite-Spin Scale   =       1.2000000000000000 [-]
	 SCS Same-Spin Energy      =      -0.1878400740649421 [Eh]
	 SCS Opposite-Spin Energy  =      -2.0373150309336996 [Eh]
	 SCS Correlation Energy    =      -2.2251551049986418 [Eh]
	 SCS Total Energy          =    -607.7985666527029025 [Eh]
	-----------------------------------------------------------

  Dipole Moment: [D]
     X:     2.5709      Y:     0.4787      Z:    -0.2171     Total:     2.6241

*** Psi4 exiting successfully. Buy a developer a beer!
