                               Psi4 1.3.2 release

  ==> Input File <==

--------------------------------------------------------------------------
#psi4
#
memory 32 gb

molecule  {
0 1
  F       -1.9734470     0.4735540    -0.9939180
  F       -1.9413570    -1.5269070    -0.1417860
  F       -1.9373460     0.2097040     1.1676710
  C        0.0587940    -0.2544720    -0.0183930
  C        0.7415540     0.9772520     0.0078750
  C        0.7507890    -1.4682550    -0.0178400
  C        2.1403840     0.9368280     0.0127460
  C       -1.4402130    -0.2782400     0.0012850
  C        0.0310770     2.3081630    -0.0188960
  C        2.1451100    -1.4771990    -0.0107000
  C        2.8415060    -0.2700650     0.0090350
  H        0.1981450    -2.4017980    -0.0309650
  H        2.6907970     1.8755160     0.0309210
  H       -0.3505540     2.5311140    -1.0192600
  H       -0.8159800     2.3277740     0.6689790
  H        0.7236060     3.1036700     0.2672330
  H        2.6816600    -2.4215308    -0.1622742
  H        3.9287950    -0.2645730     0.0170060
units angstrom
no_reorient  #important for SAPT in psi4, default
symmetry c1  #important for SAPT in psi4, default
}

set PROPERTIES_ORIGIN ["COM"]
properties('MP2/aug-cc-pvtz', properties = ['dipole'])
--------------------------------------------------------------------------

    Molecular point group: c1
  Charge       = 0
  Multiplicity = 1
  Basis Set: AUG-CC-PVTZ
    Blend: AUG-CC-PVTZ
  Basis Set: (AUG-CC-PVTZ AUX)
    Blend: AUG-CC-PVTZ-JKFIT

    Orbital Energies [Eh]
    ---------------------

    Doubly Occupied:

       1A    -26.335464     2A    -26.331932     3A    -26.330990
       4A    -11.508681     5A    -11.270564     6A    -11.264873
       7A    -11.259866     8A    -11.256808     9A    -11.249637
      10A    -11.248318    11A    -11.234077    12A     -1.717372
      13A     -1.626624    14A     -1.623186    15A     -1.180632
      16A     -1.071884    17A     -1.057087    18A     -0.973567
      19A     -0.937016    20A     -0.862020    21A     -0.836956
      22A     -0.811519    23A     -0.803721    24A     -0.773394
      25A     -0.704643    26A     -0.704187    27A     -0.688718
      28A     -0.665925    29A     -0.656802    30A     -0.648546
      31A     -0.643890    32A     -0.634466    33A     -0.589651
      34A     -0.585338    35A     -0.579663    36A     -0.553987
      37A     -0.512243    38A     -0.508952    39A     -0.502898
      40A     -0.360550    41A     -0.344116

  @DF-RHF Final Energy:  -605.57614293966787

   => Energetics <=

    Nuclear Repulsion Energy =            632.0129226386563914
    One-Electron Energy =               -2088.2766097517037451
    Two-Electron Energy =                 850.6875441733794787
    Total Energy =                       -605.5761429396678750
  Basis Set: (AUG-CC-PVTZ AUX)
    Blend: AUG-CC-PVTZ-RI
    Molecular point group: c1

    Geometry (in Angstrom), charge = 0, multiplicity = 1:

       Center              X                  Y                   Z               Mass
    ------------   -----------------  -----------------  -----------------  -----------------
         F           -1.880812458775     0.508246270600    -0.993658823643    18.998403162730
         F           -1.848722458775    -1.492214729400    -0.141526823643    18.998403162730
         F           -1.844711458775     0.244396270600     1.167930176357    18.998403162730
         C            0.151428541225    -0.219779729400    -0.018133823643    12.000000000000
         C            0.834188541225     1.011944270600     0.008134176357    12.000000000000
         C            0.843423541225    -1.433562729400    -0.017580823643    12.000000000000
         C            2.233018541225     0.971520270600     0.013005176357    12.000000000000
         C           -1.347578458775    -0.243547729400     0.001544176357    12.000000000000
         C            0.123711541225     2.342855270600    -0.018636823643    12.000000000000
         C            2.237744541225    -1.442506729400    -0.010440823643    12.000000000000
         C            2.934140541225    -0.235372729400     0.009294176357    12.000000000000
         H            0.290779541225    -2.367105729400    -0.030705823643     1.007825032230
         H            2.783431541225     1.910208270600     0.031180176357     1.007825032230
         H           -0.257919458775     2.565806270600    -1.019000823643     1.007825032230
         H           -0.723345458775     2.362466270600     0.669238176357     1.007825032230
         H            0.816240541225     3.138362270600     0.267492176357     1.007825032230
         H            2.774294541225    -2.386838529400    -0.162015023643     1.007825032230
         H            4.021429541225    -0.229880729400     0.017265176357     1.007825032230

  Basis Set: AUG-CC-PVTZ
    Blend: AUG-CC-PVTZ
  Basis Set: (AUG-CC-PVTZ AUX)
    Blend: AUG-CC-PVTZ-JKFIT
	 Reference Energy          =    -605.5761429396678750 [Eh]
	 Singles Energy            =      -0.0000000000000000 [Eh]
	 Same-Spin Energy          =      -0.5634027002684010 [Eh]
	 Opposite-Spin Energy      =      -1.6974530106752446 [Eh]
	 Correlation Energy        =      -2.2608557109436456 [Eh]
	 Total Energy              =    -607.8369986506115765 [Eh]

	 ================> DF-SCS-MP2 Energies <==================
	-----------------------------------------------------------
	 SCS Same-Spin Scale       =       0.3333333333333333 [-]
	 SCS Opposite-Spin Scale   =       1.2000000000000000 [-]
	 SCS Same-Spin Energy      =      -0.1878009000894670 [Eh]
	 SCS Opposite-Spin Energy  =      -2.0369436128102936 [Eh]
	 SCS Correlation Energy    =      -2.2247445128997607 [Eh]
	 SCS Total Energy          =    -607.8008874525676219 [Eh]
	-----------------------------------------------------------

  Dipole Moment: [D]
     X:     2.5879      Y:     0.4499      Z:    -0.1563     Total:     2.6313

*** Psi4 exiting successfully. Buy a developer a beer!
