                               Psi4 1.3.2 release

  ==> Input File <==

--------------------------------------------------------------------------
#psi4
#
memory 32 gb

molecule  {
0 1
  F       -1.9734470     0.4735540    -0.9939180
  F       -1.9413570    -1.5269070    -0.1417860
  F       -1.9373460     0.2097040     1.1676710
  C        0.0587940    -0.2544720    -0.0183930
  C        0.7415540     0.9772520     0.0078750
  C        0.7507890    -1.4682550    -0.0178400
  C        2.1403840     0.9368280     0.0127460
  C       -1.4403642    -0.2777148    -0.0487120
  C        0.0310770     2.3081630    -0.0188960
  C        2.1451100    -1.4771990    -0.0107000
  C        2.8415060    -0.2700650     0.0090350
  H        0.1981450    -2.4017980    -0.0309650
  H        2.6907970     1.8755160     0.0309210
  H       -0.3505540     2.5311140    -1.0192600
  H       -0.8159800     2.3277740     0.6689790
  H        0.7236060     3.1036700     0.2672330
  H        2.6805350    -2.4229320    -0.0122850
  H        3.9287950    -0.2645730     0.0170060
units angstrom
no_reorient  #important for SAPT in psi4, default
symmetry c1  #important for SAPT in psi4, default
}

set PROPERTIES_ORIGIN ["COM"]
properties('MP2/aug-cc-pvtz', properties = ['dipole'])
--------------------------------------------------------------------------

    Molecular point group: c1
  Charge       = 0
  Multiplicity = 1
  Basis Set: AUG-CC-PVTZ
    Blend: AUG-CC-PVTZ
  Basis Set: (AUG-CC-PVTZ AUX)
    Blend: AUG-CC-PVTZ-JKFIT

    Orbital Energies [Eh]
    ---------------------

    Doubly Occupied:

       1A    -26.346698     2A    -26.337235     3A    -26.313812
       4A    -11.509079     5A    -11.270442     6A    -11.265097
       7A    -11.259825     8A    -11.256697     9A    -11.248874
      10A    -11.248309    11A    -11.233984    12A     -1.722875
      13A     -1.640017    14A     -1.604873    15A     -1.180632
      16A     -1.072057    17A     -1.057137    18A     -0.974190
      19A     -0.937727    20A     -0.863430    21A     -0.838758
      22A     -0.812066    23A     -0.805077    24A     -0.775106
      25A     -0.710009    26A     -0.698486    27A     -0.688637
      28A     -0.670931    29A     -0.651752    30A     -0.647840
      31A     -0.639791    32A     -0.633519    33A     -0.589964
      34A     -0.584427    35A     -0.580833    36A     -0.553889
      37A     -0.509782    38A     -0.508475    39A     -0.506488
      40A     -0.360393    41A     -0.344321

  @DF-RHF Final Energy:  -605.57537640556586

   => Energetics <=

    Nuclear Repulsion Energy =            632.0456208513080583
    One-Electron Energy =               -2088.3349279008111807
    Two-Electron Energy =                 850.7139306439372604
    Total Energy =                       -605.5753764055658621
  Basis Set: (AUG-CC-PVTZ AUX)
    Blend: AUG-CC-PVTZ-RI
    Molecular point group: c1

    Geometry (in Angstrom), charge = 0, multiplicity = 1:

       Center              X                  Y                   Z               Mass
    ------------   -----------------  -----------------  -----------------  -----------------
         F           -1.880794038260     0.508215716173    -0.990854692605    18.998403162730
         F           -1.848704038260    -1.492245283827    -0.138722692605    18.998403162730
         F           -1.844693038260     0.244365716173     1.170734307395    18.998403162730
         C            0.151446961740    -0.219810283827    -0.015329692605    12.000000000000
         C            0.834206961740     1.011913716173     0.010938307395    12.000000000000
         C            0.843441961740    -1.433593283827    -0.014776692605    12.000000000000
         C            2.233036961740     0.971489716173     0.015809307395    12.000000000000
         C           -1.347711238260    -0.243053083827    -0.045648692605    12.000000000000
         C            0.123729961740     2.342824716173    -0.015832692605    12.000000000000
         C            2.237762961740    -1.442537283827    -0.007636692605    12.000000000000
         C            2.934158961740    -0.235403283827     0.012098307395    12.000000000000
         H            0.290797961740    -2.367136283827    -0.027901692605     1.007825032230
         H            2.783449961740     1.910177716173     0.033984307395     1.007825032230
         H           -0.257901038260     2.565775716173    -1.016196692605     1.007825032230
         H           -0.723327038260     2.362435716173     0.672042307395     1.007825032230
         H            0.816258961740     3.138331716173     0.270296307395     1.007825032230
         H            2.773187961740    -2.388270283827    -0.009221692605     1.007825032230
         H            4.021447961740    -0.229911283827     0.020069307395     1.007825032230

  Basis Set: AUG-CC-PVTZ
    Blend: AUG-CC-PVTZ
  Basis Set: (AUG-CC-PVTZ AUX)
    Blend: AUG-CC-PVTZ-JKFIT
	 Reference Energy          =    -605.5753764055658621 [Eh]
	 Singles Energy            =      -0.0000000000000000 [Eh]
	 Same-Spin Energy          =      -0.5634390349857433 [Eh]
	 Opposite-Spin Energy      =      -1.6974767778018272 [Eh]
	 Correlation Energy        =      -2.2609158127875704 [Eh]
	 Total Energy              =    -607.8362922183533783 [Eh]

	 ================> DF-SCS-MP2 Energies <==================
	-----------------------------------------------------------
	 SCS Same-Spin Scale       =       0.3333333333333333 [-]
	 SCS Opposite-Spin Scale   =       1.2000000000000000 [-]
	 SCS Same-Spin Energy      =      -0.1878130116619144 [Eh]
	 SCS Opposite-Spin Energy  =      -2.0369721333621924 [Eh]
	 SCS Correlation Energy    =      -2.2247851450241067 [Eh]
	 SCS Total Energy          =    -607.8001615505900190 [Eh]
	-----------------------------------------------------------

  Dipole Moment: [D]
     X:     2.5976      Y:     0.4388      Z:    -0.4268     Total:     2.6687

*** Psi4 exiting successfully. Buy a developer a beer!
