                               Psi4 1.3.2 release

  ==> Input File <==

--------------------------------------------------------------------------
#psi4
#
memory 32 gb

molecule  {
0 1
  F       -1.9734470     0.4735540    -0.9939180
  F       -1.9413570    -1.5269070    -0.1417860
  F       -1.9373460     0.2097040     1.1676710
  C        0.0587940    -0.2544720    -0.0183930
  C        0.7415540     0.9772520     0.0078750
  C        0.7507890    -1.4682550    -0.0178400
  C        2.1403840     0.9368280     0.0127460
  C       -1.4406666    -0.2766645    -0.1487060
  C        0.0310770     2.3081630    -0.0188960
  C        2.1451100    -1.4771990    -0.0107000
  C        2.8415060    -0.2700650     0.0090350
  H        0.1981450    -2.4017980    -0.0309650
  H        2.6907970     1.8755160     0.0309210
  H       -0.3505540     2.5311140    -1.0192600
  H       -0.8159800     2.3277740     0.6689790
  H        0.7236060     3.1036700     0.2672330
  H        2.6805350    -2.4229320    -0.0122850
  H        3.9287950    -0.2645730     0.0170060
units angstrom
no_reorient  #important for SAPT in psi4, default
symmetry c1  #important for SAPT in psi4, default
}

set PROPERTIES_ORIGIN ["COM"]
properties('MP2/aug-cc-pvtz', properties = ['dipole'])
--------------------------------------------------------------------------

    Molecular point group: c1
  Charge       = 0
  Multiplicity = 1
  Basis Set: AUG-CC-PVTZ
    Blend: AUG-CC-PVTZ
  Basis Set: (AUG-CC-PVTZ AUX)
    Blend: AUG-CC-PVTZ-JKFIT

    Orbital Energies [Eh]
    ---------------------

    Doubly Occupied:

       1A    -26.376926     2A    -26.340003     3A    -26.278233
       4A    -11.512610     5A    -11.270686     6A    -11.266987
       7A    -11.260121     8A    -11.256876     9A    -11.249147
      10A    -11.248570    11A    -11.234036    12A     -1.758257
      13A     -1.656520    14A     -1.560538    15A     -1.180841
      16A     -1.072356    17A     -1.057417    18A     -0.978907
      19A     -0.941852    20A     -0.873063    21A     -0.847784
      22A     -0.822306    23A     -0.813139    24A     -0.781569
      25A     -0.718672    26A     -0.697433    27A     -0.684461
      28A     -0.673997    29A     -0.651824    30A     -0.632736
      31A     -0.622242    32A     -0.615257    33A     -0.589737
      34A     -0.583597    35A     -0.577701    36A     -0.553535
      37A     -0.511674    38A     -0.508747    39A     -0.503565
      40A     -0.359840    41A     -0.344482

  @DF-RHF Final Energy:  -605.55825955588125

   => Energetics <=

    Nuclear Repulsion Energy =            632.0166604985879530
    One-Electron Energy =               -2088.2133537928175429
    Two-Electron Energy =                 850.6384337383483398
    Total Energy =                       -605.5582595558812500
  Basis Set: (AUG-CC-PVTZ AUX)
    Blend: AUG-CC-PVTZ-RI
    Molecular point group: c1

    Geometry (in Angstrom), charge = 0, multiplicity = 1:

       Center              X                  Y                   Z               Mass
    ------------   -----------------  -----------------  -----------------  -----------------
         F           -1.880771365343     0.508136968275    -0.983357484766    18.998403162730
         F           -1.848681365343    -1.492324031725    -0.131225484766    18.998403162730
         F           -1.844670365343     0.244286968275     1.178231515234    18.998403162730
         C            0.151469634657    -0.219889031725    -0.007832484766    12.000000000000
         C            0.834229634657     1.011834968275     0.018435515234    12.000000000000
         C            0.843464634657    -1.433672031725    -0.007279484766    12.000000000000
         C            2.233059634657     0.971410968275     0.023306515234    12.000000000000
         C           -1.347990965343    -0.242081531725    -0.138145484766    12.000000000000
         C            0.123752634657     2.342745968275    -0.008335484766    12.000000000000
         C            2.237785634657    -1.442616031725    -0.000139484766    12.000000000000
         C            2.934181634657    -0.235482031725     0.019595515234    12.000000000000
         H            0.290820634657    -2.367215031725    -0.020404484766     1.007825032230
         H            2.783472634657     1.910098968275     0.041481515234     1.007825032230
         H           -0.257878365343     2.565696968275    -1.008699484766     1.007825032230
         H           -0.723304365343     2.362356968275     0.679539515234     1.007825032230
         H            0.816281634657     3.138252968275     0.277793515234     1.007825032230
         H            2.773210634657    -2.388349031725    -0.001724484766     1.007825032230
         H            4.021470634657    -0.229990031725     0.027566515234     1.007825032230

  Basis Set: AUG-CC-PVTZ
    Blend: AUG-CC-PVTZ
  Basis Set: (AUG-CC-PVTZ AUX)
    Blend: AUG-CC-PVTZ-JKFIT
	 Reference Energy          =    -605.5582595558812500 [Eh]
	 Singles Energy            =      -0.0000000000000000 [Eh]
	 Same-Spin Energy          =      -0.5640728317822034 [Eh]
	 Opposite-Spin Energy      =      -1.6984693948626766 [Eh]
	 Correlation Energy        =      -2.2625422266448800 [Eh]
	 Total Energy              =    -607.8208017825261322 [Eh]

	 ================> DF-SCS-MP2 Energies <==================
	-----------------------------------------------------------
	 SCS Same-Spin Scale       =       0.3333333333333333 [-]
	 SCS Opposite-Spin Scale   =       1.2000000000000000 [-]
	 SCS Same-Spin Energy      =      -0.1880242772607345 [Eh]
	 SCS Opposite-Spin Energy  =      -2.0381632738352118 [Eh]
	 SCS Correlation Energy    =      -2.2261875510959461 [Eh]
	 SCS Total Energy          =    -607.7844471069771544 [Eh]
	-----------------------------------------------------------

  Dipole Moment: [D]
     X:     2.6001      Y:     0.4607      Z:    -1.1636     Total:     2.8855

*** Psi4 exiting successfully. Buy a developer a beer!
