                               Psi4 1.3.2 release

  ==> Input File <==

--------------------------------------------------------------------------
#psi4
#
memory 32 gb

molecule  {
0 1
  F       -1.9734470     0.4735540    -0.9939180
  F       -1.9413570    -1.5269070    -0.1417860
  F       -1.9373460     0.2097040     1.1676710
  C        0.0587940    -0.2544720    -0.0183930
  C        0.7415540     0.9772520     0.0078750
  C        0.7507890    -1.4682550    -0.0178400
  C        2.1403840     0.9368280     0.0127460
  C       -1.4408177    -0.2761394    -0.1987031
  C        0.0310770     2.3081630    -0.0188960
  C        2.1451100    -1.4771990    -0.0107000
  C        2.8415060    -0.2700650     0.0090350
  H        0.1981450    -2.4017980    -0.0309650
  H        2.6907970     1.8755160     0.0309210
  H       -0.3505540     2.5311140    -1.0192600
  H       -0.8159800     2.3277740     0.6689790
  H        0.7236060     3.1036700     0.2672330
  H        2.6805350    -2.4229320    -0.0122850
  H        3.9287950    -0.2645730     0.0170060
units angstrom
no_reorient  #important for SAPT in psi4, default
symmetry c1  #important for SAPT in psi4, default
}

set PROPERTIES_ORIGIN ["COM"]
properties('MP2/aug-cc-pvtz', properties = ['dipole'])
--------------------------------------------------------------------------

    Molecular point group: c1
  Charge       = 0
  Multiplicity = 1
  Basis Set: AUG-CC-PVTZ
    Blend: AUG-CC-PVTZ
  Basis Set: (AUG-CC-PVTZ AUX)
    Blend: AUG-CC-PVTZ-JKFIT

    Orbital Energies [Eh]
    ---------------------

    Doubly Occupied:

       1A    -26.392669     2A    -26.340978     3A    -26.259491
       4A    -11.515649     5A    -11.270887     6A    -11.268566
       7A    -11.260317     8A    -11.257002     9A    -11.249356
      10A    -11.248772    11A    -11.234087    12A     -1.783904
      13A     -1.659792    14A     -1.537968    15A     -1.180985
      16A     -1.072607    17A     -1.057638    18A     -0.983916
      19A     -0.944965    20A     -0.880197    21A     -0.855267
      22A     -0.827956    23A     -0.821895    24A     -0.785229
      25A     -0.720913    26A     -0.699920    27A     -0.687113
      28A     -0.667466    29A     -0.652131    30A     -0.626996
      31A     -0.607700    32A     -0.603300    33A     -0.588936
      34A     -0.581882    35A     -0.573960    36A     -0.552955
      37A     -0.512597    38A     -0.508966    39A     -0.501535
      40A     -0.359362    41A     -0.344587

  @DF-RHF Final Energy:  -605.54344003743279

   => Energetics <=

    Nuclear Repulsion Energy =            631.9875874461173453
    One-Electron Energy =               -2088.1012282274473364
    Two-Electron Energy =                 850.5702007438973169
    Total Energy =                       -605.5434400374327879
  Basis Set: (AUG-CC-PVTZ AUX)
    Blend: AUG-CC-PVTZ-RI
    Molecular point group: c1

    Geometry (in Angstrom), charge = 0, multiplicity = 1:

       Center              X                  Y                   Z               Mass
    ------------   -----------------  -----------------  -----------------  -----------------
         F           -1.880760036383     0.508097598074    -0.979608873349    18.998403162730
         F           -1.848670036383    -1.492363401926    -0.127476873349    18.998403162730
         F           -1.844659036383     0.244247598074     1.181980126651    18.998403162730
         C            0.151480963617    -0.219928401926    -0.004083873349    12.000000000000
         C            0.834240963617     1.011795598074     0.022184126651    12.000000000000
         C            0.843475963617    -1.433711401926    -0.003530873349    12.000000000000
         C            2.233070963617     0.971371598074     0.027055126651    12.000000000000
         C           -1.348130736383    -0.241595801926    -0.184393973349    12.000000000000
         C            0.123763963617     2.342706598074    -0.004586873349    12.000000000000
         C            2.237796963617    -1.442655401926     0.003609126651    12.000000000000
         C            2.934192963617    -0.235521401926     0.023344126651    12.000000000000
         H            0.290831963617    -2.367254401926    -0.016655873349     1.007825032230
         H            2.783483963617     1.910059598074     0.045230126651     1.007825032230
         H           -0.257867036383     2.565657598074    -1.004950873349     1.007825032230
         H           -0.723293036383     2.362317598074     0.683288126651     1.007825032230
         H            0.816292963617     3.138213598074     0.281542126651     1.007825032230
         H            2.773221963617    -2.388388401926     0.002024126651     1.007825032230
         H            4.021481963617    -0.230029401926     0.031315126651     1.007825032230

  Basis Set: AUG-CC-PVTZ
    Blend: AUG-CC-PVTZ
  Basis Set: (AUG-CC-PVTZ AUX)
    Blend: AUG-CC-PVTZ-JKFIT
	 Reference Energy          =    -605.5434400374327879 [Eh]
	 Singles Energy            =      -0.0000000000000000 [Eh]
	 Same-Spin Energy          =      -0.5645553294529382 [Eh]
	 Opposite-Spin Energy      =      -1.6991989215576895 [Eh]
	 Correlation Energy        =      -2.2637542510106279 [Eh]
	 Total Energy              =    -607.8071942884433838 [Eh]

	 ================> DF-SCS-MP2 Energies <==================
	-----------------------------------------------------------
	 SCS Same-Spin Scale       =       0.3333333333333333 [-]
	 SCS Opposite-Spin Scale   =       1.2000000000000000 [-]
	 SCS Same-Spin Energy      =      -0.1881851098176461 [Eh]
	 SCS Opposite-Spin Energy  =      -2.0390387058692272 [Eh]
	 SCS Correlation Energy    =      -2.2272238156868731 [Eh]
	 SCS Total Energy          =    -607.7706638531196859 [Eh]
	-----------------------------------------------------------

  Dipole Moment: [D]
     X:     2.6026      Y:     0.4768      Z:    -1.5411     Total:     3.0620

*** Psi4 exiting successfully. Buy a developer a beer!
