                               Psi4 1.3.2 release

  ==> Input File <==

--------------------------------------------------------------------------
#psi4
#
memory 32 gb

molecule  {
0 1
  C       -0.2663850     0.0008990    -0.0013960
  C        1.2106340     0.0001110     0.0000760
  C       -3.1008180     0.0056250    -0.0137190
  C       -0.9855960    -1.1139970    -0.4586890
  C       -0.9854071     1.1752830     0.3090074
  C       -2.3796020    -1.1098520    -0.4588000
  C       -2.3797760     1.1173260     0.4409920
  C        1.9242530    -1.1209430     0.4529070
  C        1.9275400     1.1199170    -0.4505910
  C       -4.6068780    -0.0078780     0.0198210
  C        3.3192690    -1.1228030     0.4522780
  C        3.3225700     1.1193260    -0.4456390
  C        4.0230520    -0.0023100     0.0044540
  H       -0.4460470    -1.9780880    -0.8418930
  H       -0.4465600     1.9841010     0.8290070
  H       -2.9173870    -1.9815130    -0.8295580
  H       -2.9177760     1.9946350     0.7979050
  H        1.3786050    -1.9834820     0.8303220
  H        1.3846280     1.9832890    -0.8299950
  H       -5.0126890     0.9989950    -0.1140710
  H       -5.0122110    -0.6453700    -0.7711930
  H       -4.9781370    -0.3905110     0.9770230
  H        3.8582660    -1.9961250     0.8126670
  H        3.8641780     1.9916920    -0.8044220
  H        5.1104020    -0.0032360     0.0061230
units angstrom
no_reorient  #important for SAPT in psi4, default
symmetry c1  #important for SAPT in psi4, default
}

set PROPERTIES_ORIGIN ["COM"]
properties('MP2/aug-cc-pvtz', properties = ['dipole'])
--------------------------------------------------------------------------

    Molecular point group: c1
  Charge       = 0
  Multiplicity = 1
  Basis Set: AUG-CC-PVTZ
    Blend: AUG-CC-PVTZ
  Basis Set: (AUG-CC-PVTZ AUX)
    Blend: AUG-CC-PVTZ-JKFIT

    Orbital Energies [Eh]
    ---------------------

    Doubly Occupied:

       1A    -11.245013     2A    -11.243395     3A    -11.242474
       4A    -11.237180     5A    -11.237021     6A    -11.236745
       7A    -11.235274     8A    -11.234379     9A    -11.234377
      10A    -11.234147    11A    -11.233867    12A    -11.233398
      13A    -11.225599    14A     -1.167718    15A     -1.141102
      16A     -1.065215    17A     -1.016587    18A     -1.008140
      19A     -1.003835    20A     -0.928646    21A     -0.841042
      22A     -0.832755    23A     -0.810517    24A     -0.778604
      25A     -0.711472    26A     -0.665579    27A     -0.645470
      28A     -0.640741    29A     -0.613269    30A     -0.611722
      31A     -0.587007    32A     -0.580495    33A     -0.575174
      34A     -0.570640    35A     -0.540823    36A     -0.512396
      37A     -0.508689    38A     -0.498113    39A     -0.481816
      40A     -0.480109    41A     -0.477286    42A     -0.361287
      43A     -0.337412    44A     -0.335949    45A     -0.293802

  @DF-RHF Final Energy:  -499.44258699610043

   => Energetics <=

    Nuclear Repulsion Energy =            687.1268934361335141
    One-Electron Energy =               -2037.7464003151135330
    Two-Electron Energy =                 851.1769198828795879
    Total Energy =                       -499.4425869961004310
  Basis Set: (AUG-CC-PVTZ AUX)
    Blend: AUG-CC-PVTZ-RI
    Molecular point group: c1

    Geometry (in Angstrom), charge = 0, multiplicity = 1:

       Center              X                  Y                   Z               Mass
    ------------   -----------------  -----------------  -----------------  -----------------
         C           -0.302623901838    -0.003281012337     0.008891010469    12.000000000000
         C            1.174395098162    -0.004069012337     0.010363010469    12.000000000000
         C           -3.137056901838     0.001444987663    -0.003431989531    12.000000000000
         C           -1.021834901838    -1.118177012337    -0.448401989531    12.000000000000
         C           -1.021646001838     1.171102987663     0.319294410469    12.000000000000
         C           -2.415840901838    -1.114032012337    -0.448512989531    12.000000000000
         C           -2.416014901838     1.113145987663     0.451279010469    12.000000000000
         C            1.888014098162    -1.125123012337     0.463194010469    12.000000000000
         C            1.891301098162     1.115736987663    -0.440303989531    12.000000000000
         C           -4.643116901838    -0.012058012337     0.030108010469    12.000000000000
         C            3.283030098162    -1.126983012337     0.462565010469    12.000000000000
         C            3.286331098162     1.115145987663    -0.435351989531    12.000000000000
         C            3.986813098162    -0.006490012337     0.014741010469    12.000000000000
         H           -0.482285901838    -1.982268012337    -0.831605989531     1.007825032230
         H           -0.482798901838     1.979920987663     0.839294010469     1.007825032230
         H           -2.953625901838    -1.985693012337    -0.819270989531     1.007825032230
         H           -2.954014901838     1.990454987663     0.808192010469     1.007825032230
         H            1.342366098162    -1.987662012337     0.840609010469     1.007825032230
         H            1.348389098162     1.979108987663    -0.819707989531     1.007825032230
         H           -5.048927901838     0.994814987663    -0.103783989531     1.007825032230
         H           -5.048449901838    -0.649550012337    -0.760905989531     1.007825032230
         H           -5.014375901838    -0.394691012337     0.987310010469     1.007825032230
         H            3.822027098162    -2.000305012337     0.822954010469     1.007825032230
         H            3.827939098162     1.987511987663    -0.794134989531     1.007825032230
         H            5.074163098162    -0.007416012337     0.016410010469     1.007825032230

  Basis Set: AUG-CC-PVTZ
    Blend: AUG-CC-PVTZ
  Basis Set: (AUG-CC-PVTZ AUX)
    Blend: AUG-CC-PVTZ-JKFIT
	 Reference Energy          =    -499.4425869961004310 [Eh]
	 Singles Energy            =      -0.0000000000000000 [Eh]
	 Same-Spin Energy          =      -0.5658900516301331 [Eh]
	 Opposite-Spin Energy      =      -1.7808574638708279 [Eh]
	 Correlation Energy        =      -2.3467475155009607 [Eh]
	 Total Energy              =    -501.7893345116013961 [Eh]

	 ================> DF-SCS-MP2 Energies <==================
	-----------------------------------------------------------
	 SCS Same-Spin Scale       =       0.3333333333333333 [-]
	 SCS Opposite-Spin Scale   =       1.2000000000000000 [-]
	 SCS Same-Spin Energy      =      -0.1886300172100444 [Eh]
	 SCS Opposite-Spin Energy  =      -2.1370289566449934 [Eh]
	 SCS Correlation Energy    =      -2.3256589738550377 [Eh]
	 SCS Total Energy          =    -501.7682459699554443 [Eh]
	-----------------------------------------------------------

  Dipole Moment: [D]
     X:    -0.5469      Y:    -0.0829      Z:     0.0934     Total:     0.5610

*** Psi4 exiting successfully. Buy a developer a beer!
