                               Psi4 1.3.2 release

  ==> Input File <==

--------------------------------------------------------------------------
#psi4
#
memory 32 gb

molecule  {
0 1
  C       -0.2663850     0.0008990    -0.0013960
  C        1.2106340     0.0001110     0.0000760
  C       -3.1008180     0.0056250    -0.0137190
  C       -0.9855960    -1.1139970    -0.4586890
  C       -0.9855414     1.1564717     0.3553336
  C       -2.3796020    -1.1098520    -0.4588000
  C       -2.3797760     1.1173260     0.4409920
  C        1.9242530    -1.1209430     0.4529070
  C        1.9275400     1.1199170    -0.4505910
  C       -4.6068780    -0.0078780     0.0198210
  C        3.3192690    -1.1228030     0.4522780
  C        3.3225700     1.1193260    -0.4456390
  C        4.0230520    -0.0023100     0.0044540
  H       -0.4460470    -1.9780880    -0.8418930
  H       -0.4465600     1.9841010     0.8290070
  H       -2.9173870    -1.9815130    -0.8295580
  H       -2.9177760     1.9946350     0.7979050
  H        1.3786050    -1.9834820     0.8303220
  H        1.3846280     1.9832890    -0.8299950
  H       -5.0126890     0.9989950    -0.1140710
  H       -5.0122110    -0.6453700    -0.7711930
  H       -4.9781370    -0.3905110     0.9770230
  H        3.8582660    -1.9961250     0.8126670
  H        3.8641780     1.9916920    -0.8044220
  H        5.1104020    -0.0032360     0.0061230
units angstrom
no_reorient  #important for SAPT in psi4, default
symmetry c1  #important for SAPT in psi4, default
}

set PROPERTIES_ORIGIN ["COM"]
properties('MP2/aug-cc-pvtz', properties = ['dipole'])
--------------------------------------------------------------------------

    Molecular point group: c1
  Charge       = 0
  Multiplicity = 1
  Basis Set: AUG-CC-PVTZ
    Blend: AUG-CC-PVTZ
  Basis Set: (AUG-CC-PVTZ AUX)
    Blend: AUG-CC-PVTZ-JKFIT

    Orbital Energies [Eh]
    ---------------------

    Doubly Occupied:

       1A    -11.244962     2A    -11.242569     3A    -11.242269
       4A    -11.237050     5A    -11.236794     6A    -11.236160
       7A    -11.235262     8A    -11.234373     9A    -11.234174
      10A    -11.233933    11A    -11.233201    12A    -11.232728
      13A    -11.225562    14A     -1.167905    15A     -1.141212
      16A     -1.065257    17A     -1.016739    18A     -1.008404
      19A     -1.004023    20A     -0.928775    21A     -0.841022
      22A     -0.832812    23A     -0.810880    24A     -0.779089
      25A     -0.711652    26A     -0.665780    27A     -0.645859
      28A     -0.641430    29A     -0.613491    30A     -0.612382
      31A     -0.587323    32A     -0.580478    33A     -0.575689
      34A     -0.570790    35A     -0.541064    36A     -0.512435
      37A     -0.508820    38A     -0.498103    39A     -0.481477
      40A     -0.480412    41A     -0.478696    42A     -0.360640
      43A     -0.337452    44A     -0.335907    45A     -0.294576

  @DF-RHF Final Energy:  -499.44666753536751

   => Energetics <=

    Nuclear Repulsion Energy =            687.2542926264804919
    One-Electron Energy =               -2038.0026979484359799
    Two-Electron Energy =                 851.3017377865879780
    Total Energy =                       -499.4466675353675100
  Basis Set: (AUG-CC-PVTZ AUX)
    Blend: AUG-CC-PVTZ-RI
    Molecular point group: c1

    Geometry (in Angstrom), charge = 0, multiplicity = 1:

       Center              X                  Y                   Z               Mass
    ------------   -----------------  -----------------  -----------------  -----------------
         C           -0.302614314340    -0.001938098648     0.005583844661    12.000000000000
         C            1.174404685660    -0.002726098648     0.007055844661    12.000000000000
         C           -3.137047314340     0.002787901352    -0.006739155339    12.000000000000
         C           -1.021825314340    -1.116834098648    -0.451709155339    12.000000000000
         C           -1.021770714340     1.153634601352     0.362313444661    12.000000000000
         C           -2.415831314340    -1.112689098648    -0.451820155339    12.000000000000
         C           -2.416005314340     1.114488901352     0.447971844661    12.000000000000
         C            1.888023685660    -1.123780098648     0.459886844661    12.000000000000
         C            1.891310685660     1.117079901352    -0.443611155339    12.000000000000
         C           -4.643107314340    -0.010715098648     0.026800844661    12.000000000000
         C            3.283039685660    -1.125640098648     0.459257844661    12.000000000000
         C            3.286340685660     1.116488901352    -0.438659155339    12.000000000000
         C            3.986822685660    -0.005147098648     0.011433844661    12.000000000000
         H           -0.482276314340    -1.980925098648    -0.834913155339     1.007825032230
         H           -0.482789314340     1.981263901352     0.835986844661     1.007825032230
         H           -2.953616314340    -1.984350098648    -0.822578155339     1.007825032230
         H           -2.954005314340     1.991797901352     0.804884844661     1.007825032230
         H            1.342375685660    -1.986319098648     0.837301844661     1.007825032230
         H            1.348398685660     1.980451901352    -0.823015155339     1.007825032230
         H           -5.048918314340     0.996157901352    -0.107091155339     1.007825032230
         H           -5.048440314340    -0.648207098648    -0.764213155339     1.007825032230
         H           -5.014366314340    -0.393348098648     0.984002844661     1.007825032230
         H            3.822036685660    -1.998962098648     0.819646844661     1.007825032230
         H            3.827948685660     1.988854901352    -0.797442155339     1.007825032230
         H            5.074172685660    -0.006073098648     0.013102844661     1.007825032230

  Basis Set: AUG-CC-PVTZ
    Blend: AUG-CC-PVTZ
  Basis Set: (AUG-CC-PVTZ AUX)
    Blend: AUG-CC-PVTZ-JKFIT
	 Reference Energy          =    -499.4466675353675100 [Eh]
	 Singles Energy            =      -0.0000000000000000 [Eh]
	 Same-Spin Energy          =      -0.5656345269270083 [Eh]
	 Opposite-Spin Energy      =      -1.7801698300412832 [Eh]
	 Correlation Energy        =      -2.3458043569682916 [Eh]
	 Total Energy              =    -501.7924718923358114 [Eh]

	 ================> DF-SCS-MP2 Energies <==================
	-----------------------------------------------------------
	 SCS Same-Spin Scale       =       0.3333333333333333 [-]
	 SCS Opposite-Spin Scale   =       1.2000000000000000 [-]
	 SCS Same-Spin Energy      =      -0.1885448423090028 [Eh]
	 SCS Opposite-Spin Energy  =      -2.1362037960495397 [Eh]
	 SCS Correlation Energy    =      -2.3247486383585425 [Eh]
	 SCS Total Energy          =    -501.7714161737260383 [Eh]
	-----------------------------------------------------------

  Dipole Moment: [D]
     X:    -0.5223      Y:    -0.0515      Z:     0.0774     Total:     0.5305

*** Psi4 exiting successfully. Buy a developer a beer!
