                               Psi4 1.3.2 release

  ==> Input File <==

--------------------------------------------------------------------------
#psi4
#
memory 32 gb

molecule  {
0 1
  C       -0.2663850     0.0008990    -0.0013960
  C        1.2106340     0.0001110     0.0000760
  C       -3.1008180     0.0056250    -0.0137190
  C       -0.9855960    -1.1139970    -0.4586890
  C       -0.9852728     1.1940944     0.2626813
  C       -2.3796020    -1.1098520    -0.4588000
  C       -2.3797760     1.1173260     0.4409920
  C        1.9242530    -1.1209430     0.4529070
  C        1.9275400     1.1199170    -0.4505910
  C       -4.6068780    -0.0078780     0.0198210
  C        3.3192690    -1.1228030     0.4522780
  C        3.3225700     1.1193260    -0.4456390
  C        4.0230520    -0.0023100     0.0044540
  H       -0.4460470    -1.9780880    -0.8418930
  H       -0.4465600     1.9841010     0.8290070
  H       -2.9173870    -1.9815130    -0.8295580
  H       -2.9177760     1.9946350     0.7979050
  H        1.3786050    -1.9834820     0.8303220
  H        1.3846280     1.9832890    -0.8299950
  H       -5.0126890     0.9989950    -0.1140710
  H       -5.0122110    -0.6453700    -0.7711930
  H       -4.9781370    -0.3905110     0.9770230
  H        3.8582660    -1.9961250     0.8126670
  H        3.8641780     1.9916920    -0.8044220
  H        5.1104020    -0.0032360     0.0061230
units angstrom
no_reorient  #important for SAPT in psi4, default
symmetry c1  #important for SAPT in psi4, default
}

set PROPERTIES_ORIGIN ["COM"]
properties('MP2/aug-cc-pvtz', properties = ['dipole'])
--------------------------------------------------------------------------

    Molecular point group: c1
  Charge       = 0
  Multiplicity = 1
  Basis Set: AUG-CC-PVTZ
    Blend: AUG-CC-PVTZ
  Basis Set: (AUG-CC-PVTZ AUX)
    Blend: AUG-CC-PVTZ-JKFIT

    Orbital Energies [Eh]
    ---------------------

    Doubly Occupied:

       1A    -11.245379     2A    -11.244608     3A    -11.242335
       4A    -11.238546     5A    -11.237011     6A    -11.236698
       7A    -11.235938     8A    -11.235417     9A    -11.234438
      10A    -11.234156    11A    -11.234153    12A    -11.233813
      13A    -11.225644    14A     -1.167457    15A     -1.140956
      16A     -1.065148    17A     -1.016384    18A     -1.007845
      19A     -1.003496    20A     -0.928470    21A     -0.840997
      22A     -0.832688    23A     -0.810116    24A     -0.777966
      25A     -0.711256    26A     -0.665399    27A     -0.644892
      28A     -0.639840    29A     -0.612998    30A     -0.610966
      31A     -0.586656    32A     -0.580415    33A     -0.574489
      34A     -0.570415    35A     -0.540507    36A     -0.512433
      37A     -0.508406    38A     -0.498063    39A     -0.482121
      40A     -0.479745    41A     -0.475418    42A     -0.361849
      43A     -0.337362    44A     -0.335994    45A     -0.293028

  @DF-RHF Final Energy:  -499.43687492955939

   => Energetics <=

    Nuclear Repulsion Energy =            686.9432972796586228
    One-Electron Energy =               -2037.3765241947953655
    Two-Electron Energy =                 850.9963519855774621
    Total Energy =                       -499.4368749295593943
  Basis Set: (AUG-CC-PVTZ AUX)
    Blend: AUG-CC-PVTZ-RI
    Molecular point group: c1

    Geometry (in Angstrom), charge = 0, multiplicity = 1:

       Center              X                  Y                   Z               Mass
    ------------   -----------------  -----------------  -----------------  -----------------
         C           -0.302633489336    -0.004623933166     0.012198169139    12.000000000000
         C            1.174385510664    -0.005411933166     0.013670169139    12.000000000000
         C           -3.137066489336     0.000102066834    -0.000124830861    12.000000000000
         C           -1.021844489336    -1.119519933166    -0.445094830861    12.000000000000
         C           -1.021521289336     1.188571466834     0.276275469139    12.000000000000
         C           -2.415850489336    -1.115374933166    -0.445205830861    12.000000000000
         C           -2.416024489336     1.111803066834     0.454586169139    12.000000000000
         C            1.888004510664    -1.126465933166     0.466501169139    12.000000000000
         C            1.891291510664     1.114394066834    -0.436996830861    12.000000000000
         C           -4.643126489336    -0.013400933166     0.033415169139    12.000000000000
         C            3.283020510664    -1.128325933166     0.465872169139    12.000000000000
         C            3.286321510664     1.113803066834    -0.432044830861    12.000000000000
         C            3.986803510664    -0.007832933166     0.018048169139    12.000000000000
         H           -0.482295489336    -1.983610933166    -0.828298830861     1.007825032230
         H           -0.482808489336     1.978578066834     0.842601169139     1.007825032230
         H           -2.953635489336    -1.987035933166    -0.815963830861     1.007825032230
         H           -2.954024489336     1.989112066834     0.811499169139     1.007825032230
         H            1.342356510664    -1.989004933166     0.843916169139     1.007825032230
         H            1.348379510664     1.977766066834    -0.816400830861     1.007825032230
         H           -5.048937489336     0.993472066834    -0.100476830861     1.007825032230
         H           -5.048459489336    -0.650892933166    -0.757598830861     1.007825032230
         H           -5.014385489336    -0.396033933166     0.990617169139     1.007825032230
         H            3.822017510664    -2.001647933166     0.826261169139     1.007825032230
         H            3.827929510664     1.986169066834    -0.790827830861     1.007825032230
         H            5.074153510664    -0.008758933166     0.019717169139     1.007825032230

  Basis Set: AUG-CC-PVTZ
    Blend: AUG-CC-PVTZ
  Basis Set: (AUG-CC-PVTZ AUX)
    Blend: AUG-CC-PVTZ-JKFIT
	 Reference Energy          =    -499.4368749295593943 [Eh]
	 Singles Energy            =      -0.0000000000000000 [Eh]
	 Same-Spin Energy          =      -0.5662247858765214 [Eh]
	 Opposite-Spin Energy      =      -1.7818071619045541 [Eh]
	 Correlation Energy        =      -2.3480319477810756 [Eh]
	 Total Energy              =    -501.7849068773404611 [Eh]

	 ================> DF-SCS-MP2 Energies <==================
	-----------------------------------------------------------
	 SCS Same-Spin Scale       =       0.3333333333333333 [-]
	 SCS Opposite-Spin Scale   =       1.2000000000000000 [-]
	 SCS Same-Spin Energy      =      -0.1887415952921738 [Eh]
	 SCS Opposite-Spin Energy  =      -2.1381685942854647 [Eh]
	 SCS Correlation Energy    =      -2.3269101895776383 [Eh]
	 SCS Total Energy          =    -501.7637851191370260 [Eh]
	-----------------------------------------------------------

  Dipole Moment: [D]
     X:    -0.5753      Y:    -0.1225      Z:     0.1070     Total:     0.5978

*** Psi4 exiting successfully. Buy a developer a beer!
