                               Psi4 1.3.2 release

  ==> Input File <==

--------------------------------------------------------------------------
#psi4
#
memory 32 gb

molecule  {
0 1
  C       -0.2663850     0.0008990    -0.0013960
  C        1.2106340     0.0001110     0.0000760
  C       -3.1008180     0.0056250    -0.0137190
  C       -0.9855960    -1.1139970    -0.4586890
  C       -0.9856757     1.1376603     0.4016598
  C       -2.3796020    -1.1098520    -0.4588000
  C       -2.3797760     1.1173260     0.4409920
  C        1.9242530    -1.1209430     0.4529070
  C        1.9275400     1.1199170    -0.4505910
  C       -4.6068780    -0.0078780     0.0198210
  C        3.3192690    -1.1228030     0.4522780
  C        3.3225700     1.1193260    -0.4456390
  C        4.0230520    -0.0023100     0.0044540
  H       -0.4460470    -1.9780880    -0.8418930
  H       -0.4465600     1.9841010     0.8290070
  H       -2.9173870    -1.9815130    -0.8295580
  H       -2.9177760     1.9946350     0.7979050
  H        1.3786050    -1.9834820     0.8303220
  H        1.3846280     1.9832890    -0.8299950
  H       -5.0126890     0.9989950    -0.1140710
  H       -5.0122110    -0.6453700    -0.7711930
  H       -4.9781370    -0.3905110     0.9770230
  H        3.8582660    -1.9961250     0.8126670
  H        3.8641780     1.9916920    -0.8044220
  H        5.1104020    -0.0032360     0.0061230
units angstrom
no_reorient  #important for SAPT in psi4, default
symmetry c1  #important for SAPT in psi4, default
}

set PROPERTIES_ORIGIN ["COM"]
properties('MP2/aug-cc-pvtz', properties = ['dipole'])
--------------------------------------------------------------------------

    Molecular point group: c1
  Charge       = 0
  Multiplicity = 1
  Basis Set: AUG-CC-PVTZ
    Blend: AUG-CC-PVTZ
  Basis Set: (AUG-CC-PVTZ AUX)
    Blend: AUG-CC-PVTZ-JKFIT

    Orbital Energies [Eh]
    ---------------------

    Doubly Occupied:

       1A    -11.244944     2A    -11.242609     3A    -11.241528
       4A    -11.237095     5A    -11.236848     6A    -11.235522
       7A    -11.235246     8A    -11.234419     9A    -11.234236
      10A    -11.234013    11A    -11.232432    12A    -11.232260
      13A    -11.225530    14A     -1.168009    15A     -1.141283
      16A     -1.065273    17A     -1.016822    18A     -1.008596
      19A     -1.004123    20A     -0.928848    21A     -0.840933
      22A     -0.832857    23A     -0.811206    24A     -0.779398
      25A     -0.711778    26A     -0.665966    27A     -0.646026
      28A     -0.641873    29A     -0.613655    30A     -0.612957
      31A     -0.587567    32A     -0.580354    33A     -0.576058
      34A     -0.570892    35A     -0.541233    36A     -0.512543
      37A     -0.508800    38A     -0.498039    39A     -0.481328
      40A     -0.480744    41A     -0.479380    42A     -0.359901
      43A     -0.337478    44A     -0.335857    45A     -0.295342

  @DF-RHF Final Energy:  -499.44914291657426

   => Energetics <=

    Nuclear Repulsion Energy =            687.3241319506238369
    One-Electron Energy =               -2038.1429506100014351
    Two-Electron Energy =                 851.3696757428032242
    Total Energy =                       -499.4491429165742602
  Basis Set: (AUG-CC-PVTZ AUX)
    Blend: AUG-CC-PVTZ-RI
    Molecular point group: c1

    Geometry (in Angstrom), charge = 0, multiplicity = 1:

       Center              X                  Y                   Z               Mass
    ------------   -----------------  -----------------  -----------------  -----------------
         C           -0.302604726841    -0.000595177819     0.002276678852    12.000000000000
         C            1.174414273159    -0.001383177819     0.003748678852    12.000000000000
         C           -3.137037726841     0.004130822181    -0.010046321148    12.000000000000
         C           -1.021815726841    -1.115491177819    -0.455016321148    12.000000000000
         C           -1.021895426841     1.136166122181     0.405332478852    12.000000000000
         C           -2.415821726841    -1.111346177819    -0.455127321148    12.000000000000
         C           -2.415995726841     1.115831822181     0.444664678852    12.000000000000
         C            1.888033273159    -1.122437177819     0.456579678852    12.000000000000
         C            1.891320273159     1.118422822181    -0.446918321148    12.000000000000
         C           -4.643097726841    -0.009372177819     0.023493678852    12.000000000000
         C            3.283049273159    -1.124297177819     0.455950678852    12.000000000000
         C            3.286350273159     1.117831822181    -0.441966321148    12.000000000000
         C            3.986832273159    -0.003804177819     0.008126678852    12.000000000000
         H           -0.482266726841    -1.979582177819    -0.838220321148     1.007825032230
         H           -0.482779726841     1.982606822181     0.832679678852     1.007825032230
         H           -2.953606726841    -1.983007177819    -0.825885321148     1.007825032230
         H           -2.953995726841     1.993140822181     0.801577678852     1.007825032230
         H            1.342385273159    -1.984976177819     0.833994678852     1.007825032230
         H            1.348408273159     1.981794822181    -0.826322321148     1.007825032230
         H           -5.048908726841     0.997500822181    -0.110398321148     1.007825032230
         H           -5.048430726841    -0.646864177819    -0.767520321148     1.007825032230
         H           -5.014356726841    -0.392005177819     0.980695678852     1.007825032230
         H            3.822046273159    -1.997619177819     0.816339678852     1.007825032230
         H            3.827958273159     1.990197822181    -0.800749321148     1.007825032230
         H            5.074182273159    -0.004730177819     0.009795678852     1.007825032230

  Basis Set: AUG-CC-PVTZ
    Blend: AUG-CC-PVTZ
  Basis Set: (AUG-CC-PVTZ AUX)
    Blend: AUG-CC-PVTZ-JKFIT
	 Reference Energy          =    -499.4491429165742602 [Eh]
	 Singles Energy            =      -0.0000000000000000 [Eh]
	 Same-Spin Energy          =      -0.5654627280522491 [Eh]
	 Opposite-Spin Energy      =      -1.7797620815938857 [Eh]
	 Correlation Energy        =      -2.3452248096461350 [Eh]
	 Total Energy              =    -501.7943677262204005 [Eh]

	 ================> DF-SCS-MP2 Energies <==================
	-----------------------------------------------------------
	 SCS Same-Spin Scale       =       0.3333333333333333 [-]
	 SCS Opposite-Spin Scale   =       1.2000000000000000 [-]
	 SCS Same-Spin Energy      =      -0.1884875760174163 [Eh]
	 SCS Opposite-Spin Energy  =      -2.1357144979126628 [Eh]
	 SCS Correlation Energy    =      -2.3242020739300790 [Eh]
	 SCS Total Energy          =    -501.7733449905043130 [Eh]
	-----------------------------------------------------------

  Dipole Moment: [D]
     X:    -0.5015      Y:    -0.0284      Z:     0.0587     Total:     0.5058

*** Psi4 exiting successfully. Buy a developer a beer!
