                               Psi4 1.3.2 release

  ==> Input File <==

--------------------------------------------------------------------------
#psi4
#
memory 32 gb

molecule  {
0 1
  C       -0.2663850     0.0008990    -0.0013960
  C        1.2106340     0.0001110     0.0000760
  C       -3.1008180     0.0056250    -0.0137190
  C       -0.9855960    -1.1139970    -0.4586890
  C       -0.9851385     1.2129057     0.2163551
  C       -2.3796020    -1.1098520    -0.4588000
  C       -2.3797760     1.1173260     0.4409920
  C        1.9242530    -1.1209430     0.4529070
  C        1.9275400     1.1199170    -0.4505910
  C       -4.6068780    -0.0078780     0.0198210
  C        3.3192690    -1.1228030     0.4522780
  C        3.3225700     1.1193260    -0.4456390
  C        4.0230520    -0.0023100     0.0044540
  H       -0.4460470    -1.9780880    -0.8418930
  H       -0.4465600     1.9841010     0.8290070
  H       -2.9173870    -1.9815130    -0.8295580
  H       -2.9177760     1.9946350     0.7979050
  H        1.3786050    -1.9834820     0.8303220
  H        1.3846280     1.9832890    -0.8299950
  H       -5.0126890     0.9989950    -0.1140710
  H       -5.0122110    -0.6453700    -0.7711930
  H       -4.9781370    -0.3905110     0.9770230
  H        3.8582660    -1.9961250     0.8126670
  H        3.8641780     1.9916920    -0.8044220
  H        5.1104020    -0.0032360     0.0061230
units angstrom
no_reorient  #important for SAPT in psi4, default
symmetry c1  #important for SAPT in psi4, default
}

set PROPERTIES_ORIGIN ["COM"]
properties('MP2/aug-cc-pvtz', properties = ['dipole'])
--------------------------------------------------------------------------

    Molecular point group: c1
  Charge       = 0
  Multiplicity = 1
  Basis Set: AUG-CC-PVTZ
    Blend: AUG-CC-PVTZ
  Basis Set: (AUG-CC-PVTZ AUX)
    Blend: AUG-CC-PVTZ-JKFIT

    Orbital Energies [Eh]
    ---------------------

    Doubly Occupied:

       1A    -11.247064     2A    -11.244881     3A    -11.242175
       4A    -11.240219     5A    -11.237841     6A    -11.237018
       7A    -11.236653     8A    -11.236144     9A    -11.234559
      10A    -11.234548    11A    -11.234204    12A    -11.233770
      13A    -11.225701    14A     -1.167131    15A     -1.140777
      16A     -1.065062    17A     -1.016153    18A     -1.007581
      19A     -1.002914    20A     -0.928262    21A     -0.840894
      22A     -0.832614    23A     -0.809676    24A     -0.777205
      25A     -0.711024    26A     -0.665274    27A     -0.644171
      28A     -0.638783    29A     -0.612694    30A     -0.610108
      31A     -0.586313    32A     -0.580255    33A     -0.573633
      34A     -0.570062    35A     -0.540108    36A     -0.512531
      37A     -0.507996    38A     -0.497947    39A     -0.482355
      40A     -0.479261    41A     -0.473126    42A     -0.362337
      43A     -0.337306    44A     -0.336051    45A     -0.292261

  @DF-RHF Final Energy:  -499.42950454618347

   => Energetics <=

    Nuclear Repulsion Energy =            686.7053503336946960
    One-Electron Energy =               -2036.8964244483204311
    Two-Electron Energy =                 850.7615695684422690
    Total Energy =                       -499.4295045461834661
  Basis Set: (AUG-CC-PVTZ AUX)
    Blend: AUG-CC-PVTZ-RI
    Molecular point group: c1

    Geometry (in Angstrom), charge = 0, multiplicity = 1:

       Center              X                  Y                   Z               Mass
    ------------   -----------------  -----------------  -----------------  -----------------
         C           -0.302643076835    -0.005966846856     0.015505334948    12.000000000000
         C            1.174375923165    -0.006754846856     0.016977334948    12.000000000000
         C           -3.137076076835    -0.001240846856     0.003182334948    12.000000000000
         C           -1.021854076835    -1.120862846856    -0.441787665052    12.000000000000
         C           -1.021396576835     1.206039853144     0.233256434948    12.000000000000
         C           -2.415860076835    -1.116717846856    -0.441898665052    12.000000000000
         C           -2.416034076835     1.110460153144     0.457893334948    12.000000000000
         C            1.887994923165    -1.127808846856     0.469808334948    12.000000000000
         C            1.891281923165     1.113051153144    -0.433689665052    12.000000000000
         C           -4.643136076835    -0.014743846856     0.036722334948    12.000000000000
         C            3.283010923165    -1.129668846856     0.469179334948    12.000000000000
         C            3.286311923165     1.112460153144    -0.428737665052    12.000000000000
         C            3.986793923165    -0.009175846856     0.021355334948    12.000000000000
         H           -0.482305076835    -1.984953846856    -0.824991665052     1.007825032230
         H           -0.482818076835     1.977235153144     0.845908334948     1.007825032230
         H           -2.953645076835    -1.988378846856    -0.812656665052     1.007825032230
         H           -2.954034076835     1.987769153144     0.814806334948     1.007825032230
         H            1.342346923165    -1.990347846856     0.847223334948     1.007825032230
         H            1.348369923165     1.976423153144    -0.813093665052     1.007825032230
         H           -5.048947076835     0.992129153144    -0.097169665052     1.007825032230
         H           -5.048469076835    -0.652235846856    -0.754291665052     1.007825032230
         H           -5.014395076835    -0.397376846856     0.993924334948     1.007825032230
         H            3.822007923165    -2.002990846856     0.829568334948     1.007825032230
         H            3.827919923165     1.984826153144    -0.787520665052     1.007825032230
         H            5.074143923165    -0.010101846856     0.023024334948     1.007825032230

  Basis Set: AUG-CC-PVTZ
    Blend: AUG-CC-PVTZ
  Basis Set: (AUG-CC-PVTZ AUX)
    Blend: AUG-CC-PVTZ-JKFIT
	 Reference Energy          =    -499.4295045461834661 [Eh]
	 Singles Energy            =      -0.0000000000000000 [Eh]
	 Same-Spin Energy          =      -0.5666327097419633 [Eh]
	 Opposite-Spin Energy      =      -1.7829869943115892 [Eh]
	 Correlation Energy        =      -2.3496197040535525 [Eh]
	 Total Energy              =    -501.7791242502370324 [Eh]

	 ================> DF-SCS-MP2 Energies <==================
	-----------------------------------------------------------
	 SCS Same-Spin Scale       =       0.3333333333333333 [-]
	 SCS Opposite-Spin Scale   =       1.2000000000000000 [-]
	 SCS Same-Spin Energy      =      -0.1888775699139878 [Eh]
	 SCS Opposite-Spin Energy  =      -2.1395843931739069 [Eh]
	 SCS Correlation Energy    =      -2.3284619630878947 [Eh]
	 SCS Total Energy          =    -501.7579665092713412 [Eh]
	-----------------------------------------------------------

  Dipole Moment: [D]
     X:    -0.6074      Y:    -0.1701      Z:     0.1181     Total:     0.6418

*** Psi4 exiting successfully. Buy a developer a beer!
