                               Psi4 1.4a3.dev225

  ==> Input File <==

--------------------------------------------------------------------------
#psi4
#
memory 32 gb

molecule  {
0 1
  I       -1.0508630    -0.0327020     0.0000010
  C        1.9876030    -0.5024530    -0.0000080
  C        0.9983820     0.6513080    -0.0000070
  C        3.4267560     0.0178820     0.0000080
  H        1.8145770    -1.1305720     0.8787430
  H        1.8145880    -1.1305600    -0.8787710
  H        1.1046653     1.3023729    -0.9304108
  H        1.1000140     1.2738370     0.8896040
  H        4.1383040    -0.8116210    -0.0000480
  H        3.6258980     0.6289730    -0.8845580
  H        3.6259130     0.6288710     0.8846400
units angstrom
no_reorient  #important for SAPT in psi4, default
symmetry c1  #important for SAPT in psi4, default
}

set PROPERTIES_ORIGIN ["COM"]
properties('MP2/aug-cc-pvtz', properties = ['dipole'])
--------------------------------------------------------------------------

    Molecular point group: c1
  Charge       = 0
  Multiplicity = 1
  Basis Set: AUG-CC-PVTZ
    Blend: AUG-CC-PVTZ
  Basis Set: (AUG-CC-PVTZ AUX)
    Blend: AUG-CC-PVTZ-JKFIT + DEF2-UNIVERSAL-JKFIT

    Orbital Energies [Eh]
    ---------------------

    Doubly Occupied:

       1A    -11.290199     2A    -11.241814     3A    -11.228564
       4A     -7.706803     5A     -5.538026     6A     -5.529170
       7A     -5.529114     8A     -2.267309     9A     -2.262968
      10A     -2.262911    11A     -2.253089    12A     -2.253088
      13A     -1.082694    14A     -0.961165    15A     -0.855830
      16A     -0.803676    17A     -0.655365    18A     -0.596234
      19A     -0.564335    20A     -0.556001    21A     -0.507321
      22A     -0.494259    23A     -0.432598    24A     -0.356846
      25A     -0.356247

  @DF-RHF Final Energy:  -412.38610787156347

   => Energetics <=

    Nuclear Repulsion Energy =            182.3316657399696226
    One-Electron Energy =               -1034.2642965357683806
    Two-Electron Energy =                 439.5465229242353189
    Total Energy =                       -412.3861078715634676
  Basis Set: (AUG-CC-PVTZ AUX)
    Blend: AUG-CC-PVTZ-RI + DEF2-QZVPP-RI
    Molecular point group: c1

    Geometry (in Angstrom), charge = 0, multiplicity = 1:

       Center              X                  Y                   Z               Mass
    ------------   -----------------  -----------------  -----------------  -----------------
         I           -0.821116249658    -0.024571062970     0.000242688309   126.904471900000
         C            2.217349750342    -0.494322062970     0.000233688309    12.000000000000
         C            1.228128750342     0.659438937030     0.000234688309    12.000000000000
         C            3.656502750342     0.026012937030     0.000249688309    12.000000000000
         H            2.044323750342    -1.122441062970     0.878984688309     1.007825032230
         H            2.044334750342    -1.122429062970    -0.878529311691     1.007825032230
         H            1.334412050342     1.310503837030    -0.930169111691     1.007825032230
         H            1.329760750342     1.281967937030     0.889845688309     1.007825032230
         H            4.368050750342    -0.803490062970     0.000193688309     1.007825032230
         H            3.855644750342     0.637103937030    -0.884316311691     1.007825032230
         H            3.855659750342     0.637001937030     0.884881688309     1.007825032230

  Basis Set: AUG-CC-PVTZ
    Blend: AUG-CC-PVTZ
  Basis Set: (AUG-CC-PVTZ AUX)
    Blend: AUG-CC-PVTZ-JKFIT + DEF2-UNIVERSAL-JKFIT
	 Reference Energy          =    -412.3861078715634676 [Eh]
	 Singles Energy            =      -0.0000000000000000 [Eh]
	 Same-Spin Energy          =      -0.2013592738338148 [Eh]
	 Opposite-Spin Energy      =      -0.6480707004495732 [Eh]
	 Correlation Energy        =      -0.8494299742833880 [Eh]
	 Total Energy              =    -413.2355378458468635 [Eh]

	 ================> DF-SCS-MP2 Energies <==================
	-----------------------------------------------------------
	 SCS Same-Spin Scale       =       0.3333333333333333 [-]
	 SCS Opposite-Spin Scale   =       1.2000000000000000 [-]
	 SCS Same-Spin Energy      =      -0.0671197579446049 [Eh]
	 SCS Opposite-Spin Energy  =      -0.7776848405394877 [Eh]
	 SCS Correlation Energy    =      -0.8448045984840926 [Eh]
	 SCS Total Energy          =    -413.2309124700475422 [Eh]
	-----------------------------------------------------------

  Dipole Moment: [D]
     X:     2.0355      Y:     0.3428      Z:     0.0056     Total:     2.0642

*** Psi4 exiting successfully. Buy a developer a beer!
