                               Psi4 1.4a3.dev225

  ==> Input File <==

--------------------------------------------------------------------------
#psi4
#
memory 32 gb

molecule  {
0 1
  I       -1.0508630    -0.0327020     0.0000010
  C        1.9876030    -0.5024530    -0.0000080
  C        0.9983820     0.6513080    -0.0000070
  C        3.4267560     0.0178820     0.0000080
  H        1.8145770    -1.1305720     0.8787430
  H        1.8145880    -1.1305600    -0.8787710
  H        1.0974890     1.2584131    -0.9004958
  H        1.1000140     1.2738370     0.8896040
  H        4.1383040    -0.8116210    -0.0000480
  H        3.6258980     0.6289730    -0.8845580
  H        3.6259130     0.6288710     0.8846400
units angstrom
no_reorient  #important for SAPT in psi4, default
symmetry c1  #important for SAPT in psi4, default
}

set PROPERTIES_ORIGIN ["COM"]
properties('MP2/aug-cc-pvtz', properties = ['dipole'])
--------------------------------------------------------------------------

    Molecular point group: c1
  Charge       = 0
  Multiplicity = 1
  Basis Set: AUG-CC-PVTZ
    Blend: AUG-CC-PVTZ
  Basis Set: (AUG-CC-PVTZ AUX)
    Blend: AUG-CC-PVTZ-JKFIT + DEF2-UNIVERSAL-JKFIT

    Orbital Energies [Eh]
    ---------------------

    Doubly Occupied:

       1A    -11.284917     2A    -11.241319     3A    -11.228661
       4A     -7.706458     5A     -5.537654     6A     -5.528840
       7A     -5.528788     8A     -2.266931     9A     -2.262607
      10A     -2.262555    11A     -2.252781    12A     -2.252780
      13A     -1.084138    14A     -0.963226    15A     -0.855698
      16A     -0.806943    17A     -0.659462    18A     -0.596780
      19A     -0.568960    20A     -0.556211    21A     -0.507193
      22A     -0.495332    23A     -0.432540    24A     -0.356615
      25A     -0.356491

  @DF-RHF Final Energy:  -412.38836795202258

   => Energetics <=

    Nuclear Repulsion Energy =            182.5812177040265283
    One-Electron Energy =               -1034.7514123260421002
    Two-Electron Energy =                 439.7818266699929382
    Total Energy =                       -412.3883679520225769
  Basis Set: (AUG-CC-PVTZ AUX)
    Blend: AUG-CC-PVTZ-RI + DEF2-QZVPP-RI
    Molecular point group: c1

    Geometry (in Angstrom), charge = 0, multiplicity = 1:

       Center              X                  Y                   Z               Mass
    ------------   -----------------  -----------------  -----------------  -----------------
         I           -0.821073695606    -0.024310389970     0.000065298221   126.904471900000
         C            2.217392304394    -0.494061389970     0.000056298221    12.000000000000
         C            1.228171304394     0.659699610030     0.000057298221    12.000000000000
         C            3.656545304394     0.026273610030     0.000072298221    12.000000000000
         H            2.044366304394    -1.122180389970     0.878807298221     1.007825032230
         H            2.044377304394    -1.122168389970    -0.878706701779     1.007825032230
         H            1.327278304394     1.266804710030    -0.900431501779     1.007825032230
         H            1.329803304394     1.282228610030     0.889668298221     1.007825032230
         H            4.368093304394    -0.803229389970     0.000016298221     1.007825032230
         H            3.855687304394     0.637364610030    -0.884493701779     1.007825032230
         H            3.855702304394     0.637262610030     0.884704298221     1.007825032230

  Basis Set: AUG-CC-PVTZ
    Blend: AUG-CC-PVTZ
  Basis Set: (AUG-CC-PVTZ AUX)
    Blend: AUG-CC-PVTZ-JKFIT + DEF2-UNIVERSAL-JKFIT
	 Reference Energy          =    -412.3883679520225769 [Eh]
	 Singles Energy            =      -0.0000000000000000 [Eh]
	 Same-Spin Energy          =      -0.2012741892690935 [Eh]
	 Opposite-Spin Energy      =      -0.6476511725110295 [Eh]
	 Correlation Energy        =      -0.8489253617801231 [Eh]
	 Total Energy              =    -413.2372933138026951 [Eh]

	 ================> DF-SCS-MP2 Energies <==================
	-----------------------------------------------------------
	 SCS Same-Spin Scale       =       0.3333333333333333 [-]
	 SCS Opposite-Spin Scale   =       1.2000000000000000 [-]
	 SCS Same-Spin Energy      =      -0.0670913964230312 [Eh]
	 SCS Opposite-Spin Energy  =      -0.7771814070132355 [Eh]
	 SCS Correlation Energy    =      -0.8442728034362667 [Eh]
	 SCS Total Energy          =    -413.2326407554588172 [Eh]
	-----------------------------------------------------------

  Dipole Moment: [D]
     X:     2.0458      Y:     0.3539      Z:    -0.0039     Total:     2.0762

*** Psi4 exiting successfully. Buy a developer a beer!
