                               Psi4 1.4a3.dev225

  ==> Input File <==

--------------------------------------------------------------------------
#psi4
#
memory 32 gb

molecule  {
0 1
  I       -1.0508630    -0.0327020     0.0000010
  C        1.9876030    -0.5024530    -0.0000080
  C        0.9983820     0.6513080    -0.0000070
  C        3.4267560     0.0178820     0.0000080
  H        1.8145770    -1.1305720     0.8787430
  H        1.8145880    -1.1305600    -0.8787710
  H        1.1000060     1.2738310    -0.8896230
  H        1.1000140     1.2738370     0.8896040
  H        4.1383040    -0.8116210    -0.0000480
  H        3.5894722     0.5171960    -0.7227586
  H        3.6259130     0.6288710     0.8846400
units angstrom
no_reorient  #important for SAPT in psi4, default
symmetry c1  #important for SAPT in psi4, default
}

set PROPERTIES_ORIGIN ["COM"]
properties('MP2/aug-cc-pvtz', properties = ['dipole'])
--------------------------------------------------------------------------

    Molecular point group: c1
  Charge       = 0
  Multiplicity = 1
  Basis Set: AUG-CC-PVTZ
    Blend: AUG-CC-PVTZ
  Basis Set: (AUG-CC-PVTZ AUX)
    Blend: AUG-CC-PVTZ-JKFIT + DEF2-UNIVERSAL-JKFIT

    Orbital Energies [Eh]
    ---------------------

    Doubly Occupied:

       1A    -11.284546     2A    -11.239596     3A    -11.203387
       4A     -7.706360     5A     -5.537566     6A     -5.528735
       7A     -5.528684     8A     -2.266843     9A     -2.262512
      10A     -2.262461    11A     -2.252669    12A     -2.252668
      13A     -1.089065    14A     -0.976989    15A     -0.865668
      16A     -0.810353    17A     -0.664630    18A     -0.605569
      19A     -0.581782    20A     -0.556293    21A     -0.512304
      22A     -0.498517    23A     -0.432115    24A     -0.356421
      25A     -0.356334

  @DF-RHF Final Energy:  -412.35391387273239

   => Energetics <=

    Nuclear Repulsion Energy =            183.4818029651353584
    One-Electron Energy =               -1036.4072990104018572
    Two-Electron Energy =                 440.5715821725341357
    Total Energy =                       -412.3539138727323916
  Basis Set: (AUG-CC-PVTZ AUX)
    Blend: AUG-CC-PVTZ-RI + DEF2-QZVPP-RI
    Molecular point group: c1

    Geometry (in Angstrom), charge = 0, multiplicity = 1:

       Center              X                  Y                   Z               Mass
    ------------   -----------------  -----------------  -----------------  -----------------
         I           -0.820872623066    -0.023738999389    -0.000958614090   126.904471900000
         C            2.217593376934    -0.493489999389    -0.000967614090    12.000000000000
         C            1.228372376934     0.660271000611    -0.000966614090    12.000000000000
         C            3.656746376934     0.026845000611    -0.000951614090    12.000000000000
         H            2.044567376934    -1.121608999389     0.877783385910     1.007825032230
         H            2.044578376934    -1.121596999389    -0.879730614090     1.007825032230
         H            1.329996376934     1.282794000611    -0.890582614090     1.007825032230
         H            1.330004376934     1.282800000611     0.888644385910     1.007825032230
         H            4.368294376934    -0.802657999389    -0.001007614090     1.007825032230
         H            3.819462576934     0.526159000611    -0.723718214090     1.007825032230
         H            3.855903376934     0.637834000611     0.883680385910     1.007825032230

  Basis Set: AUG-CC-PVTZ
    Blend: AUG-CC-PVTZ
  Basis Set: (AUG-CC-PVTZ AUX)
    Blend: AUG-CC-PVTZ-JKFIT + DEF2-UNIVERSAL-JKFIT
	 Reference Energy          =    -412.3539138727323916 [Eh]
	 Singles Energy            =      -0.0000000000000000 [Eh]
	 Same-Spin Energy          =      -0.2014565219640783 [Eh]
	 Opposite-Spin Energy      =      -0.6471751836901527 [Eh]
	 Correlation Energy        =      -0.8486317056542310 [Eh]
	 Total Energy              =    -413.2025455783866050 [Eh]

	 ================> DF-SCS-MP2 Energies <==================
	-----------------------------------------------------------
	 SCS Same-Spin Scale       =       0.3333333333333333 [-]
	 SCS Opposite-Spin Scale   =       1.2000000000000000 [-]
	 SCS Same-Spin Energy      =      -0.0671521739880261 [Eh]
	 SCS Opposite-Spin Energy  =      -0.7766102204281832 [Eh]
	 SCS Correlation Energy    =      -0.8437623944162093 [Eh]
	 SCS Total Energy          =    -413.1976762671486085 [Eh]
	-----------------------------------------------------------

  Dipole Moment: [D]
     X:     2.0826      Y:     0.4086      Z:    -0.0634     Total:     2.1232

*** Psi4 exiting successfully. Buy a developer a beer!
