                               Psi4 1.4a3.dev225

  ==> Input File <==

--------------------------------------------------------------------------
#psi4
#
memory 32 gb

molecule  {
0 1
  I       -1.0508630    -0.0327020     0.0000010
  C        1.9876030    -0.5024530    -0.0000080
  C        0.9983820     0.6513080    -0.0000070
  C        3.4267560     0.0178820     0.0000080
  H        1.8145770    -1.1305720     0.8787430
  H        1.8145880    -1.1305600    -0.8787710
  H        1.1000060     1.2738310    -0.8896230
  H        1.1000140     1.2738370     0.8896040
  H        4.1513256    -0.8268012    -0.0000490
  H        3.6258980     0.6289730    -0.8845580
  H        3.6259130     0.6288710     0.8846400
units angstrom
no_reorient  #important for SAPT in psi4, default
symmetry c1  #important for SAPT in psi4, default
}

set PROPERTIES_ORIGIN ["COM"]
properties('MP2/aug-cc-pvtz', properties = ['dipole'])
--------------------------------------------------------------------------

    Molecular point group: c1
  Charge       = 0
  Multiplicity = 1
  Basis Set: AUG-CC-PVTZ
    Blend: AUG-CC-PVTZ
  Basis Set: (AUG-CC-PVTZ AUX)
    Blend: AUG-CC-PVTZ-JKFIT + DEF2-UNIVERSAL-JKFIT

    Orbital Energies [Eh]
    ---------------------

    Doubly Occupied:

       1A    -11.284894     2A    -11.241601     3A    -11.231061
       4A     -7.706696     5A     -5.537902     6A     -5.529072
       7A     -5.529017     8A     -2.267180     9A     -2.262851
      10A     -2.262795    11A     -2.253003    12A     -2.253002
      13A     -1.083843    14A     -0.962189    15A     -0.854965
      16A     -0.807476    17A     -0.658661    18A     -0.594595
      19A     -0.568276    20A     -0.556347    21A     -0.506053
      22A     -0.495316    23A     -0.432856    24A     -0.356814
      25A     -0.356620

  @DF-RHF Final Energy:  -412.38792177485186

   => Energetics <=

    Nuclear Repulsion Energy =            182.4824745261078647
    One-Electron Energy =               -1034.5546179509317426
    Two-Electron Energy =                 439.6842216499720735
    Total Energy =                       -412.3879217748518613
  Basis Set: (AUG-CC-PVTZ AUX)
    Blend: AUG-CC-PVTZ-RI + DEF2-QZVPP-RI
    Molecular point group: c1

    Geometry (in Angstrom), charge = 0, multiplicity = 1:

       Center              X                  Y                   Z               Mass
    ------------   -----------------  -----------------  -----------------  -----------------
         I           -0.821165836459    -0.024311799485     0.000000830577   126.904471900000
         C            2.217300163541    -0.494062799485    -0.000008169423    12.000000000000
         C            1.228079163541     0.659698200515    -0.000007169423    12.000000000000
         C            3.656453163541     0.026272200515     0.000007830577    12.000000000000
         H            2.044274163541    -1.122181799485     0.878742830577     1.007825032230
         H            2.044285163541    -1.122169799485    -0.878771169423     1.007825032230
         H            1.329703163541     1.282221200515    -0.889623169423     1.007825032230
         H            1.329711163541     1.282227200515     0.889603830577     1.007825032230
         H            4.381022763541    -0.818410999485    -0.000049169423     1.007825032230
         H            3.855595163541     0.637363200515    -0.884558169423     1.007825032230
         H            3.855610163541     0.637261200515     0.884639830577     1.007825032230

  Basis Set: AUG-CC-PVTZ
    Blend: AUG-CC-PVTZ
  Basis Set: (AUG-CC-PVTZ AUX)
    Blend: AUG-CC-PVTZ-JKFIT + DEF2-UNIVERSAL-JKFIT
	 Reference Energy          =    -412.3879217748518613 [Eh]
	 Singles Energy            =      -0.0000000000000000 [Eh]
	 Same-Spin Energy          =      -0.2012529973940446 [Eh]
	 Opposite-Spin Energy      =      -0.6477567230619717 [Eh]
	 Correlation Energy        =      -0.8490097204560164 [Eh]
	 Total Energy              =    -413.2369314953078856 [Eh]

	 ================> DF-SCS-MP2 Energies <==================
	-----------------------------------------------------------
	 SCS Same-Spin Scale       =       0.3333333333333333 [-]
	 SCS Opposite-Spin Scale   =       1.2000000000000000 [-]
	 SCS Same-Spin Energy      =      -0.0670843324646815 [Eh]
	 SCS Opposite-Spin Energy  =      -0.7773080676743661 [Eh]
	 SCS Correlation Energy    =      -0.8443924001390477 [Eh]
	 SCS Total Energy          =    -413.2323141749909041 [Eh]
	-----------------------------------------------------------

  Dipole Moment: [D]
     X:     2.0287      Y:     0.3628      Z:    -0.0000     Total:     2.0609

*** Psi4 exiting successfully. Buy a developer a beer!
