                               Psi4 1.4a3.dev225

  ==> Input File <==

--------------------------------------------------------------------------
#psi4
#
memory 32 gb

molecule  {
0 1
  I       -1.0508630    -0.0327020     0.0000010
  C        1.9876030    -0.5024530    -0.0000080
  C        0.9983820     0.6513080    -0.0000070
  C        3.4267560     0.0178820     0.0000080
  H        1.8145770    -1.1305720     0.8787430
  H        1.8145880    -1.1305600    -0.8787710
  H        1.1000060     1.2738310    -0.8896230
  H        1.1000140     1.2738370     0.8896040
  H        4.1057500    -0.7736705    -0.0000454
  H        3.6258980     0.6289730    -0.8845580
  H        3.6259130     0.6288710     0.8846400
units angstrom
no_reorient  #important for SAPT in psi4, default
symmetry c1  #important for SAPT in psi4, default
}

set PROPERTIES_ORIGIN ["COM"]
properties('MP2/aug-cc-pvtz', properties = ['dipole'])
--------------------------------------------------------------------------

    Molecular point group: c1
  Charge       = 0
  Multiplicity = 1
  Basis Set: AUG-CC-PVTZ
    Blend: AUG-CC-PVTZ
  Basis Set: (AUG-CC-PVTZ AUX)
    Blend: AUG-CC-PVTZ-JKFIT + DEF2-UNIVERSAL-JKFIT

    Orbital Energies [Eh]
    ---------------------

    Doubly Occupied:

       1A    -11.284480     2A    -11.241038     3A    -11.222479
       4A     -7.706265     5A     -5.537458     6A     -5.528651
       7A     -5.528596     8A     -2.266734     9A     -2.262413
      10A     -2.262358    11A     -2.252591    12A     -2.252591
      13A     -1.084559    14A     -0.966087    15A     -0.857745
      16A     -0.807420    17A     -0.658151    18A     -0.603658
      19A     -0.567587    20A     -0.557097    21A     -0.510597
      22A     -0.494807    23A     -0.432823    24A     -0.356458
      25A     -0.356250

  @DF-RHF Final Energy:  -412.38733523646039

   => Energetics <=

    Nuclear Repulsion Energy =            182.7823536319549476
    One-Electron Energy =               -1035.1415896769531173
    Two-Electron Energy =                 439.9719008085377823
    Total Energy =                       -412.3873352364603875
  Basis Set: (AUG-CC-PVTZ AUX)
    Blend: AUG-CC-PVTZ-RI + DEF2-QZVPP-RI
    Molecular point group: c1

    Geometry (in Angstrom), charge = 0, multiplicity = 1:

       Center              X                  Y                   Z               Mass
    ------------   -----------------  -----------------  -----------------  -----------------
         I           -0.820895582081    -0.024626854125     0.000000809230   126.904471900000
         C            2.217570417919    -0.494377854125    -0.000008190770    12.000000000000
         C            1.228349417919     0.659383145875    -0.000007190770    12.000000000000
         C            3.656723417919     0.025957145875     0.000007809230    12.000000000000
         H            2.044544417919    -1.122496854125     0.878742809230     1.007825032230
         H            2.044555417919    -1.122484854125    -0.878771190770     1.007825032230
         H            1.329973417919     1.281906145875    -0.889623190770     1.007825032230
         H            1.329981417919     1.281912145875     0.889603809230     1.007825032230
         H            4.335717417919    -0.765595354125    -0.000045590770     1.007825032230
         H            3.855865417919     0.637048145875    -0.884558190770     1.007825032230
         H            3.855880417919     0.636946145875     0.884639809230     1.007825032230

  Basis Set: AUG-CC-PVTZ
    Blend: AUG-CC-PVTZ
  Basis Set: (AUG-CC-PVTZ AUX)
    Blend: AUG-CC-PVTZ-JKFIT + DEF2-UNIVERSAL-JKFIT
	 Reference Energy          =    -412.3873352364603875 [Eh]
	 Singles Energy            =      -0.0000000000000000 [Eh]
	 Same-Spin Energy          =      -0.2012888285277582 [Eh]
	 Opposite-Spin Energy      =      -0.6473862767093559 [Eh]
	 Correlation Energy        =      -0.8486751052371141 [Eh]
	 Total Energy              =    -413.2360103416975221 [Eh]

	 ================> DF-SCS-MP2 Energies <==================
	-----------------------------------------------------------
	 SCS Same-Spin Scale       =       0.3333333333333333 [-]
	 SCS Opposite-Spin Scale   =       1.2000000000000000 [-]
	 SCS Same-Spin Energy      =      -0.0670962761759194 [Eh]
	 SCS Opposite-Spin Energy  =      -0.7768635320512270 [Eh]
	 SCS Correlation Energy    =      -0.8439598082271464 [Eh]
	 SCS Total Energy          =    -413.2312950446875561 [Eh]
	-----------------------------------------------------------

  Dipole Moment: [D]
     X:     2.0754      Y:     0.3415      Z:    -0.0000     Total:     2.1033

*** Psi4 exiting successfully. Buy a developer a beer!
