                               Psi4 1.4a3.dev225

  ==> Input File <==

--------------------------------------------------------------------------
#psi4
#
memory 32 gb

molecule  {
0 1
  I       -1.0508630    -0.0327020     0.0000010
  C        1.9876030    -0.5024530    -0.0000080
  C        0.9983820     0.6513080    -0.0000070
  C        3.4267560     0.0178820     0.0000080
  H        1.8145770    -1.1305720     0.8787430
  H        1.8145880    -1.1305600    -0.8787710
  H        1.1000060     1.2738310    -0.8896230
  H        1.1000140     1.2738370     0.8896040
  H        4.1708580    -0.8495715    -0.0000506
  H        3.6258980     0.6289730    -0.8845580
  H        3.6259130     0.6288710     0.8846400
units angstrom
no_reorient  #important for SAPT in psi4, default
symmetry c1  #important for SAPT in psi4, default
}

set PROPERTIES_ORIGIN ["COM"]
properties('MP2/aug-cc-pvtz', properties = ['dipole'])
--------------------------------------------------------------------------

    Molecular point group: c1
  Charge       = 0
  Multiplicity = 1
  Basis Set: AUG-CC-PVTZ
    Blend: AUG-CC-PVTZ
  Basis Set: (AUG-CC-PVTZ AUX)
    Blend: AUG-CC-PVTZ-JKFIT + DEF2-UNIVERSAL-JKFIT

    Orbital Energies [Eh]
    ---------------------

    Doubly Occupied:

       1A    -11.285102     2A    -11.241881     3A    -11.234646
       4A     -7.706904     5A     -5.538117     6A     -5.529276
       7A     -5.529220     8A     -2.267396     9A     -2.263062
      10A     -2.263006    11A     -2.253202    12A     -2.253201
      13A     -1.083678    14A     -0.960859    15A     -0.853953
      16A     -0.807539    17A     -0.658916    18A     -0.591252
      19A     -0.568626    20A     -0.555996    21A     -0.503723
      22A     -0.495574    23A     -0.432851    24A     -0.356987
      25A     -0.356800

  @DF-RHF Final Energy:  -412.38638400332133

   => Energetics <=

    Nuclear Repulsion Energy =            182.3620297110977617
    One-Electron Energy =               -1034.3132949686148550
    Two-Electron Energy =                 439.5648812541957682
    Total Energy =                       -412.3863840033213251
  Basis Set: (AUG-CC-PVTZ AUX)
    Blend: AUG-CC-PVTZ-RI + DEF2-QZVPP-RI
    Molecular point group: c1

    Geometry (in Angstrom), charge = 0, multiplicity = 1:

       Center              X                  Y                   Z               Mass
    ------------   -----------------  -----------------  -----------------  -----------------
         I           -0.821281659764    -0.024176776067     0.000000840065   126.904471900000
         C            2.217184340236    -0.493927776067    -0.000008159935    12.000000000000
         C            1.227963340236     0.659833223933    -0.000007159935    12.000000000000
         C            3.656337340236     0.026407223933     0.000007840065    12.000000000000
         H            2.044158340236    -1.122046776067     0.878742840065     1.007825032230
         H            2.044169340236    -1.122034776067    -0.878771159935     1.007825032230
         H            1.329587340236     1.282356223933    -0.889623159935     1.007825032230
         H            1.329595340236     1.282362223933     0.889603840065     1.007825032230
         H            4.400439340236    -0.841046276067    -0.000050759935     1.007825032230
         H            3.855479340236     0.637498223933    -0.884558159935     1.007825032230
         H            3.855494340236     0.637396223933     0.884639840065     1.007825032230

  Basis Set: AUG-CC-PVTZ
    Blend: AUG-CC-PVTZ
  Basis Set: (AUG-CC-PVTZ AUX)
    Blend: AUG-CC-PVTZ-JKFIT + DEF2-UNIVERSAL-JKFIT
	 Reference Energy          =    -412.3863840033213251 [Eh]
	 Singles Energy            =      -0.0000000000000000 [Eh]
	 Same-Spin Energy          =      -0.2012405986117816 [Eh]
	 Opposite-Spin Energy      =      -0.6479494392404302 [Eh]
	 Correlation Energy        =      -0.8491900378522119 [Eh]
	 Total Energy              =    -413.2355740411735496 [Eh]

	 ================> DF-SCS-MP2 Energies <==================
	-----------------------------------------------------------
	 SCS Same-Spin Scale       =       0.3333333333333333 [-]
	 SCS Opposite-Spin Scale   =       1.2000000000000000 [-]
	 SCS Same-Spin Energy      =      -0.0670801995372605 [Eh]
	 SCS Opposite-Spin Energy  =      -0.7775393270885163 [Eh]
	 SCS Correlation Energy    =      -0.8446195266257768 [Eh]
	 SCS Total Energy          =    -413.2310035299470883 [Eh]
	-----------------------------------------------------------

  Dipole Moment: [D]
     X:     2.0062      Y:     0.3735      Z:    -0.0000     Total:     2.0406

*** Psi4 exiting successfully. Buy a developer a beer!
