                               Psi4 1.4a3.dev225

  ==> Input File <==

--------------------------------------------------------------------------
#psi4
#
memory 32 gb

molecule  {
0 1
  I       -1.0508630    -0.0327020     0.0000010
  C        1.9876030    -0.5024530    -0.0000080
  C        1.0114000     0.6361247    -0.0000070
  C        3.4267560     0.0178820     0.0000080
  H        1.8145770    -1.1305720     0.8787430
  H        1.8145880    -1.1305600    -0.8787710
  H        1.1000060     1.2738310    -0.8896230
  H        1.1000140     1.2738370     0.8896040
  H        4.1383040    -0.8116210    -0.0000480
  H        3.6258980     0.6289730    -0.8845580
  H        3.6259130     0.6288710     0.8846400
units angstrom
no_reorient  #important for SAPT in psi4, default
symmetry c1  #important for SAPT in psi4, default
}

set PROPERTIES_ORIGIN ["COM"]
properties('MP2/aug-cc-pvtz', properties = ['dipole'])
--------------------------------------------------------------------------

    Molecular point group: c1
  Charge       = 0
  Multiplicity = 1
  Basis Set: AUG-CC-PVTZ
    Blend: AUG-CC-PVTZ
  Basis Set: (AUG-CC-PVTZ AUX)
    Blend: AUG-CC-PVTZ-JKFIT + DEF2-UNIVERSAL-JKFIT

    Orbital Energies [Eh]
    ---------------------

    Doubly Occupied:

       1A    -11.286017     2A    -11.240624     3A    -11.229091
       4A     -7.706076     5A     -5.537249     6A     -5.528468
       7A     -5.528401     8A     -2.266486     9A     -2.262212
      10A     -2.262146    11A     -2.252406    12A     -2.252405
      13A     -1.087514    14A     -0.962381    15A     -0.856773
      16A     -0.806458    17A     -0.658920    18A     -0.599400
      19A     -0.565748    20A     -0.558757    21A     -0.510320
      22A     -0.494381    23A     -0.430372    24A     -0.356838
      25A     -0.355989

  @DF-RHF Final Energy:  -412.38790826032243

   => Energetics <=

    Nuclear Repulsion Energy =            182.6524123727963058
    One-Electron Energy =               -1034.8897762941819565
    Two-Electron Energy =                 439.8494556610631889
    Total Energy =                       -412.3879082603224333
  Basis Set: (AUG-CC-PVTZ AUX)
    Blend: AUG-CC-PVTZ-RI + DEF2-QZVPP-RI
    Molecular point group: c1

    Geometry (in Angstrom), charge = 0, multiplicity = 1:

       Center              X                  Y                   Z               Mass
    ------------   -----------------  -----------------  -----------------  -----------------
         I           -0.822007758908    -0.023329795756     0.000000824648   126.904471900000
         C            2.216458241092    -0.493080795756    -0.000008175352    12.000000000000
         C            1.240255241092     0.645496904244    -0.000007175352    12.000000000000
         C            3.655611241092     0.027254204244     0.000007824648    12.000000000000
         H            2.043432241092    -1.121199795756     0.878742824648     1.007825032230
         H            2.043443241092    -1.121187795756    -0.878771175352     1.007825032230
         H            1.328861241092     1.283203204244    -0.889623175352     1.007825032230
         H            1.328869241092     1.283209204244     0.889603824648     1.007825032230
         H            4.367159241092    -0.802248795756    -0.000048175352     1.007825032230
         H            3.854753241092     0.638345204244    -0.884558175352     1.007825032230
         H            3.854768241092     0.638243204244     0.884639824648     1.007825032230

  Basis Set: AUG-CC-PVTZ
    Blend: AUG-CC-PVTZ
  Basis Set: (AUG-CC-PVTZ AUX)
    Blend: AUG-CC-PVTZ-JKFIT + DEF2-UNIVERSAL-JKFIT
	 Reference Energy          =    -412.3879082603224333 [Eh]
	 Singles Energy            =      -0.0000000000000000 [Eh]
	 Same-Spin Energy          =      -0.2014077574236613 [Eh]
	 Opposite-Spin Energy      =      -0.6477353168319584 [Eh]
	 Correlation Energy        =      -0.8491430742556196 [Eh]
	 Total Energy              =    -413.2370513345780410 [Eh]

	 ================> DF-SCS-MP2 Energies <==================
	-----------------------------------------------------------
	 SCS Same-Spin Scale       =       0.3333333333333333 [-]
	 SCS Opposite-Spin Scale   =       1.2000000000000000 [-]
	 SCS Same-Spin Energy      =      -0.0671359191412204 [Eh]
	 SCS Opposite-Spin Energy  =      -0.7772823801983501 [Eh]
	 SCS Correlation Energy    =      -0.8444182993395705 [Eh]
	 SCS Total Energy          =    -413.2323265596619990 [Eh]
	-----------------------------------------------------------

  Dipole Moment: [D]
     X:     2.0730      Y:     0.3575      Z:    -0.0000     Total:     2.1036

*** Psi4 exiting successfully. Buy a developer a beer!
