                               Psi4 1.4a3.dev225

  ==> Input File <==

--------------------------------------------------------------------------
#psi4
#
memory 32 gb

molecule  {
0 1
  I       -1.0508630    -0.0327020     0.0000010
  C        1.9876030    -0.5024530    -0.0000080
  C        0.9983820     0.6513080    -0.0000070
  C        3.4267560     0.0178820     0.0000080
  H        1.8145770    -1.1305720     0.8787430
  H        1.8145880    -1.1305600    -0.8787710
  H        1.1000060     1.2738310    -0.8896230
  H        1.1000140     1.2738370     0.8896040
  H        4.1383040    -0.8116210    -0.0000480
  H        3.6258980     0.6289730    -0.8845580
  H        3.6350202     0.6568106     0.9250929
units angstrom
no_reorient  #important for SAPT in psi4, default
symmetry c1  #important for SAPT in psi4, default
}

set PROPERTIES_ORIGIN ["COM"]
properties('MP2/aug-cc-pvtz', properties = ['dipole'])
--------------------------------------------------------------------------

    Molecular point group: c1
  Charge       = 0
  Multiplicity = 1
  Basis Set: AUG-CC-PVTZ
    Blend: AUG-CC-PVTZ
  Basis Set: (AUG-CC-PVTZ AUX)
    Blend: AUG-CC-PVTZ-JKFIT + DEF2-UNIVERSAL-JKFIT

    Orbital Energies [Eh]
    ---------------------

    Doubly Occupied:

       1A    -11.284867     2A    -11.242072     3A    -11.234793
       4A     -7.706657     5A     -5.537859     6A     -5.529037
       7A     -5.528981     8A     -2.267136     9A     -2.262810
      10A     -2.262753    11A     -2.252970    12A     -2.252969
      13A     -1.083496    14A     -0.961212    15A     -0.854020
      16A     -0.806850    17A     -0.657635    18A     -0.596620
      19A     -0.564696    20A     -0.555990    21A     -0.506741
      22A     -0.492505    23A     -0.433125    24A     -0.356822
      25A     -0.356586

  @DF-RHF Final Energy:  -412.38642615205595

   => Energetics <=

    Nuclear Repulsion Energy =            182.3732998713680900
    One-Electron Energy =               -1034.3410445779545626
    Two-Electron Energy =                 439.5813185545305259
    Total Energy =                       -412.3864261520559467
  Basis Set: (AUG-CC-PVTZ AUX)
    Blend: AUG-CC-PVTZ-RI + DEF2-QZVPP-RI
    Molecular point group: c1

    Geometry (in Angstrom), charge = 0, multiplicity = 1:

       Center              X                  Y                   Z               Mass
    ------------   -----------------  -----------------  -----------------  -----------------
         I           -0.821142624834    -0.024567491449    -0.000239053123   126.904471900000
         C            2.217323375166    -0.494318491449    -0.000248053123    12.000000000000
         C            1.228102375166     0.659442508551    -0.000247053123    12.000000000000
         C            3.656476375166     0.026016508551    -0.000232053123    12.000000000000
         H            2.044297375166    -1.122437491449     0.878502946877     1.007825032230
         H            2.044308375166    -1.122425491449    -0.879011053123     1.007825032230
         H            1.329726375166     1.281965508551    -0.889863053123     1.007825032230
         H            1.329734375166     1.281971508551     0.889363946877     1.007825032230
         H            4.368024375166    -0.803486491449    -0.000288053123     1.007825032230
         H            3.855618375166     0.637107508551    -0.884798053123     1.007825032230
         H            3.864740575166     0.664945108551     0.924852846877     1.007825032230

  Basis Set: AUG-CC-PVTZ
    Blend: AUG-CC-PVTZ
  Basis Set: (AUG-CC-PVTZ AUX)
    Blend: AUG-CC-PVTZ-JKFIT + DEF2-UNIVERSAL-JKFIT
	 Reference Energy          =    -412.3864261520559467 [Eh]
	 Singles Energy            =      -0.0000000000000000 [Eh]
	 Same-Spin Energy          =      -0.2012367937850376 [Eh]
	 Opposite-Spin Energy      =      -0.6479366291215203 [Eh]
	 Correlation Energy        =      -0.8491734229065578 [Eh]
	 Total Energy              =    -413.2355995749625208 [Eh]

	 ================> DF-SCS-MP2 Energies <==================
	-----------------------------------------------------------
	 SCS Same-Spin Scale       =       0.3333333333333333 [-]
	 SCS Opposite-Spin Scale   =       1.2000000000000000 [-]
	 SCS Same-Spin Energy      =      -0.0670789312616792 [Eh]
	 SCS Opposite-Spin Energy  =      -0.7775239549458243 [Eh]
	 SCS Correlation Energy    =      -0.8446028862075035 [Eh]
	 SCS Total Energy          =    -413.2310290382634435 [Eh]
	-----------------------------------------------------------

  Dipole Moment: [D]
     X:     2.0286      Y:     0.3377      Z:    -0.0233     Total:     2.0567

*** Psi4 exiting successfully. Buy a developer a beer!
