                               Psi4 1.4a3.dev225

  ==> Input File <==

--------------------------------------------------------------------------
#psi4
#
memory 32 gb

molecule  {
0 1
  I       -1.0508630    -0.0327020     0.0000010
  C        1.9876030    -0.5024530    -0.0000080
  C        0.9983820     0.6513080    -0.0000070
  C        3.4079476     0.0110817     0.0000078
  H        1.8145770    -1.1305720     0.8787430
  H        1.8145880    -1.1305600    -0.8787710
  H        1.1000060     1.2738310    -0.8896230
  H        1.1000140     1.2738370     0.8896040
  H        4.1383040    -0.8116210    -0.0000480
  H        3.6258980     0.6289730    -0.8845580
  H        3.6259130     0.6288710     0.8846400
units angstrom
no_reorient  #important for SAPT in psi4, default
symmetry c1  #important for SAPT in psi4, default
}

set PROPERTIES_ORIGIN ["COM"]
properties('MP2/aug-cc-pvtz', properties = ['dipole'])
--------------------------------------------------------------------------

    Molecular point group: c1
  Charge       = 0
  Multiplicity = 1
  Basis Set: AUG-CC-PVTZ
    Blend: AUG-CC-PVTZ
  Basis Set: (AUG-CC-PVTZ AUX)
    Blend: AUG-CC-PVTZ-JKFIT + DEF2-UNIVERSAL-JKFIT

    Orbital Energies [Eh]
    ---------------------

    Doubly Occupied:

       1A    -11.284850     2A    -11.240677     3A    -11.229574
       4A     -7.706639     5A     -5.537843     6A     -5.529017
       7A     -5.528963     8A     -2.267121     9A     -2.262792
      10A     -2.262738    11A     -2.252951    12A     -2.252950
      13A     -1.086744    14A     -0.963595    15A     -0.854703
      16A     -0.807661    17A     -0.659190    18A     -0.596651
      19A     -0.566606    20A     -0.561785    21A     -0.504894
      22A     -0.492647    23A     -0.434074    24A     -0.356849
      25A     -0.356574

  @DF-RHF Final Energy:  -412.38785331383826

   => Energetics <=

    Nuclear Repulsion Energy =            182.8315902416237577
    One-Electron Energy =               -1035.2427114931979304
    Two-Electron Energy =                 440.0232679377359091
    Total Energy =                       -412.3878533138382636
  Basis Set: (AUG-CC-PVTZ AUX)
    Blend: AUG-CC-PVTZ-RI + DEF2-QZVPP-RI
    Molecular point group: c1

    Geometry (in Angstrom), charge = 0, multiplicity = 1:

       Center              X                  Y                   Z               Mass
    ------------   -----------------  -----------------  -----------------  -----------------
         I           -0.819760650813    -0.023921678820     0.000000838769   126.904471900000
         C            2.218705349187    -0.493672678820    -0.000008161231    12.000000000000
         C            1.229484349187     0.660088321180    -0.000007161231    12.000000000000
         C            3.639049949187     0.019862021180     0.000007638769    12.000000000000
         H            2.045679349187    -1.121791678820     0.878742838769     1.007825032230
         H            2.045690349187    -1.121779678820    -0.878771161231     1.007825032230
         H            1.331108349187     1.282611321180    -0.889623161231     1.007825032230
         H            1.331116349187     1.282617321180     0.889603838769     1.007825032230
         H            4.369406349187    -0.802840678820    -0.000048161231     1.007825032230
         H            3.857000349187     0.637753321180    -0.884558161231     1.007825032230
         H            3.857015349187     0.637651321180     0.884639838769     1.007825032230

  Basis Set: AUG-CC-PVTZ
    Blend: AUG-CC-PVTZ
  Basis Set: (AUG-CC-PVTZ AUX)
    Blend: AUG-CC-PVTZ-JKFIT + DEF2-UNIVERSAL-JKFIT
	 Reference Energy          =    -412.3878533138382636 [Eh]
	 Singles Energy            =      -0.0000000000000000 [Eh]
	 Same-Spin Energy          =      -0.2013948055829254 [Eh]
	 Opposite-Spin Energy      =      -0.6477658628281687 [Eh]
	 Correlation Energy        =      -0.8491606684110941 [Eh]
	 Total Energy              =    -413.2370139822493798 [Eh]

	 ================> DF-SCS-MP2 Energies <==================
	-----------------------------------------------------------
	 SCS Same-Spin Scale       =       0.3333333333333333 [-]
	 SCS Opposite-Spin Scale   =       1.2000000000000000 [-]
	 SCS Same-Spin Energy      =      -0.0671316018609751 [Eh]
	 SCS Opposite-Spin Energy  =      -0.7773190353938024 [Eh]
	 SCS Correlation Energy    =      -0.8444506372547775 [Eh]
	 SCS Total Energy          =    -413.2323039510930585 [Eh]
	-----------------------------------------------------------

  Dipole Moment: [D]
     X:     2.0412      Y:     0.3538      Z:    -0.0000     Total:     2.0716

*** Psi4 exiting successfully. Buy a developer a beer!
