                               Psi4 1.4a3.dev225

  ==> Input File <==

--------------------------------------------------------------------------
#psi4
#
memory 32 gb

molecule  {
0 1
  I       -1.0508630    -0.0327020     0.0000010
  C        1.9876030    -0.5024530    -0.0000080
  C        0.9983820     0.6513080    -0.0000070
  C        3.4267560     0.0178820     0.0000080
  H        1.8145770    -1.1305720     0.8787430
  H        1.8145880    -1.1305600    -0.8787710
  H        1.1097570     1.3335603    -0.8434561
  H        1.1000140     1.2738370     0.8896040
  H        4.1383040    -0.8116210    -0.0000480
  H        3.6258980     0.6289730    -0.8845580
  H        3.6259130     0.6288710     0.8846400
units angstrom
no_reorient  #important for SAPT in psi4, default
symmetry c1  #important for SAPT in psi4, default
}

set PROPERTIES_ORIGIN ["COM"]
properties('MP2/aug-cc-pvtz', properties = ['dipole'])
--------------------------------------------------------------------------

    Molecular point group: c1
  Charge       = 0
  Multiplicity = 1
  Basis Set: AUG-CC-PVTZ
    Blend: AUG-CC-PVTZ
  Basis Set: (AUG-CC-PVTZ AUX)
    Blend: AUG-CC-PVTZ-JKFIT + DEF2-UNIVERSAL-JKFIT

    Orbital Energies [Eh]
    ---------------------

    Doubly Occupied:

       1A    -11.284158     2A    -11.241888     3A    -11.228551
       4A     -7.706998     5A     -5.538228     6A     -5.529366
       7A     -5.529297     8A     -2.267505     9A     -2.263167
      10A     -2.263097    11A     -2.253269    12A     -2.253267
      13A     -1.083500    14A     -0.963074    15A     -0.855722
      16A     -0.809526    17A     -0.654832    18A     -0.598054
      19A     -0.564481    20A     -0.557734    21A     -0.508627
      22A     -0.494224    23A     -0.434042    24A     -0.357198
      25A     -0.356396

  @DF-RHF Final Energy:  -412.38786108032241

   => Energetics <=

    Nuclear Repulsion Energy =            182.5058134174705344
    One-Electron Energy =               -1034.5949459774569732
    Two-Electron Energy =                 439.7012714796640012
    Total Energy =                       -412.3878610803224092
  Basis Set: (AUG-CC-PVTZ AUX)
    Blend: AUG-CC-PVTZ-RI + DEF2-QZVPP-RI
    Molecular point group: c1

    Geometry (in Angstrom), charge = 0, multiplicity = 1:

       Center              X                  Y                   Z               Mass
    ------------   -----------------  -----------------  -----------------  -----------------
         I           -0.821146442442    -0.024755998141    -0.000272936023   126.904471900000
         C            2.217319557558    -0.494506998141    -0.000281936023    12.000000000000
         C            1.228098557558     0.659254001859    -0.000280936023    12.000000000000
         C            3.656472557558     0.025828001859    -0.000265936023    12.000000000000
         H            2.044293557558    -1.122625998141     0.878469063977     1.007825032230
         H            2.044304557558    -1.122613998141    -0.879044936023     1.007825032230
         H            1.339473557558     1.341506301859    -0.843730036023     1.007825032230
         H            1.329730557558     1.281783001859     0.889330063977     1.007825032230
         H            4.368020557558    -0.803674998141    -0.000321936023     1.007825032230
         H            3.855614557558     0.636919001859    -0.884831936023     1.007825032230
         H            3.855629557558     0.636817001859     0.884366063977     1.007825032230

  Basis Set: AUG-CC-PVTZ
    Blend: AUG-CC-PVTZ
  Basis Set: (AUG-CC-PVTZ AUX)
    Blend: AUG-CC-PVTZ-JKFIT + DEF2-UNIVERSAL-JKFIT
	 Reference Energy          =    -412.3878610803224092 [Eh]
	 Singles Energy            =      -0.0000000000000000 [Eh]
	 Same-Spin Energy          =      -0.2012463813211338 [Eh]
	 Opposite-Spin Energy      =      -0.6476410898597356 [Eh]
	 Correlation Energy        =      -0.8488874711808694 [Eh]
	 Total Energy              =    -413.2367485515032968 [Eh]

	 ================> DF-SCS-MP2 Energies <==================
	-----------------------------------------------------------
	 SCS Same-Spin Scale       =       0.3333333333333333 [-]
	 SCS Opposite-Spin Scale   =       1.2000000000000000 [-]
	 SCS Same-Spin Energy      =      -0.0670821271070446 [Eh]
	 SCS Opposite-Spin Energy  =      -0.7771693078316827 [Eh]
	 SCS Correlation Energy    =      -0.8442514349387272 [Eh]
	 SCS Total Energy          =    -413.2321125152611216 [Eh]
	-----------------------------------------------------------

  Dipole Moment: [D]
     X:     2.0313      Y:     0.3653      Z:     0.0173     Total:     2.0639

*** Psi4 exiting successfully. Buy a developer a beer!
