                               Psi4 1.4a3.dev225

  ==> Input File <==

--------------------------------------------------------------------------
#psi4
#
memory 32 gb

molecule  {
0 1
  I       -1.0442050    -0.0516094     0.0319365
  C        1.9876030    -0.5024530    -0.0000080
  C        0.9983820     0.6513080    -0.0000070
  C        3.4267560     0.0178820     0.0000080
  H        1.8145770    -1.1305720     0.8787430
  H        1.8145880    -1.1305600    -0.8787710
  H        1.1000060     1.2738310    -0.8896230
  H        1.1000140     1.2738370     0.8896040
  H        4.1383040    -0.8116210    -0.0000480
  H        3.6258980     0.6289730    -0.8845580
  H        3.6259130     0.6288710     0.8846400
units angstrom
no_reorient  #important for SAPT in psi4, default
symmetry c1  #important for SAPT in psi4, default
}

set PROPERTIES_ORIGIN ["COM"]
properties('MP2/aug-cc-pvtz', properties = ['dipole'])
--------------------------------------------------------------------------

    Molecular point group: c1
  Charge       = 0
  Multiplicity = 1
  Basis Set: AUG-CC-PVTZ
    Blend: AUG-CC-PVTZ
  Basis Set: (AUG-CC-PVTZ AUX)
    Blend: AUG-CC-PVTZ-JKFIT + DEF2-UNIVERSAL-JKFIT

    Orbital Energies [Eh]
    ---------------------

    Doubly Occupied:

       1A    -11.284801     2A    -11.241278     3A    -11.228484
       4A     -7.706563     5A     -5.537768     6A     -5.528939
       7A     -5.528889     8A     -2.267046     9A     -2.262716
      10A     -2.262665    11A     -2.252875    12A     -2.252874
      13A     -1.084051    14A     -0.963085    15A     -0.855376
      16A     -0.807755    17A     -0.658491    18A     -0.596901
      19A     -0.567986    20A     -0.556687    21A     -0.507372
      22A     -0.495082    23A     -0.432842    24A     -0.356691
      25A     -0.356531

  @DF-RHF Final Energy:  -412.38832882691270

   => Energetics <=

    Nuclear Repulsion Energy =            182.6939003622436530
    One-Electron Energy =               -1034.9769649923794077
    Two-Electron Energy =                 439.8947358032230568
    Total Energy =                       -412.3883288269126979
  Basis Set: (AUG-CC-PVTZ AUX)
    Blend: AUG-CC-PVTZ-RI + DEF2-QZVPP-RI
    Molecular point group: c1

    Geometry (in Angstrom), charge = 0, multiplicity = 1:

       Center              X                  Y                   Z               Mass
    ------------   -----------------  -----------------  -----------------  -----------------
         I           -0.819401988990    -0.029191515397     0.008090856802   126.904471900000
         C            2.212406011010    -0.480035115397    -0.023853643198    12.000000000000
         C            1.223185011010     0.673725884603    -0.023852643198    12.000000000000
         C            3.651559011010     0.040299884603    -0.023837643198    12.000000000000
         H            2.039380011010    -1.108154115397     0.854897356802     1.007825032230
         H            2.039391011010    -1.108142115397    -0.902616643198     1.007825032230
         H            1.324809011010     1.296248884603    -0.913468643198     1.007825032230
         H            1.324817011010     1.296254884603     0.865758356802     1.007825032230
         H            4.363107011010    -0.789203115397    -0.023893643198     1.007825032230
         H            3.850701011010     0.651390884603    -0.908403643198     1.007825032230
         H            3.850716011010     0.651288884603     0.860794356802     1.007825032230

  Basis Set: AUG-CC-PVTZ
    Blend: AUG-CC-PVTZ
  Basis Set: (AUG-CC-PVTZ AUX)
    Blend: AUG-CC-PVTZ-JKFIT + DEF2-UNIVERSAL-JKFIT
	 Reference Energy          =    -412.3883288269126979 [Eh]
	 Singles Energy            =      -0.0000000000000000 [Eh]
	 Same-Spin Energy          =      -0.2012864515758217 [Eh]
	 Opposite-Spin Energy      =      -0.6476793029253994 [Eh]
	 Correlation Energy        =      -0.8489657545012211 [Eh]
	 Total Energy              =    -413.2372945814138916 [Eh]

	 ================> DF-SCS-MP2 Energies <==================
	-----------------------------------------------------------
	 SCS Same-Spin Scale       =       0.3333333333333333 [-]
	 SCS Opposite-Spin Scale   =       1.2000000000000000 [-]
	 SCS Same-Spin Energy      =      -0.0670954838586072 [Eh]
	 SCS Opposite-Spin Energy  =      -0.7772151635104793 [Eh]
	 SCS Correlation Energy    =      -0.8443106473690865 [Eh]
	 SCS Total Energy          =    -413.2326394742817683 [Eh]
	-----------------------------------------------------------

  Dipole Moment: [D]
     X:     2.0363      Y:     0.3668      Z:    -0.0189     Total:     2.0692

*** Psi4 exiting successfully. Buy a developer a beer!
