                               Psi4 1.4a3.dev225

  ==> Input File <==

--------------------------------------------------------------------------
#psi4
#
memory 32 gb

molecule  {
0 1
  I       -1.0508630    -0.0327020     0.0000010
  C        1.9876030    -0.5024530    -0.0000080
  C        0.9983820     0.6513080    -0.0000070
  C        3.4267560     0.0178820     0.0000080
  H        1.8145770    -1.1305720     0.8787430
  H        1.8145880    -1.1305600    -0.8787710
  H        1.0897599     1.2110689    -0.9314558
  H        1.1000140     1.2738370     0.8896040
  H        4.1383040    -0.8116210    -0.0000480
  H        3.6258980     0.6289730    -0.8845580
  H        3.6259130     0.6288710     0.8846400
units angstrom
no_reorient  #important for SAPT in psi4, default
symmetry c1  #important for SAPT in psi4, default
}

set PROPERTIES_ORIGIN ["COM"]
properties('MP2/aug-cc-pvtz', properties = ['dipole'])
--------------------------------------------------------------------------

    Molecular point group: c1
  Charge       = 0
  Multiplicity = 1
  Basis Set: AUG-CC-PVTZ
    Blend: AUG-CC-PVTZ
  Basis Set: (AUG-CC-PVTZ AUX)
    Blend: AUG-CC-PVTZ-JKFIT + DEF2-UNIVERSAL-JKFIT

    Orbital Energies [Eh]
    ---------------------

    Doubly Occupied:

       1A    -11.285366     2A    -11.241013     3A    -11.228740
       4A     -7.706140     5A     -5.537317     6A     -5.528530
       7A     -5.528486     8A     -2.266594     9A     -2.262278
      10A     -2.262236    11A     -2.252493    12A     -2.252492
      13A     -1.084599    14A     -0.963386    15A     -0.855699
      16A     -0.805463    17A     -0.662426    18A     -0.596138
      19A     -0.571575    20A     -0.555054    21A     -0.506381
      22A     -0.495709    23A     -0.431566    24A     -0.356621
      25A     -0.356134

  @DF-RHF Final Energy:  -412.38782698303100

   => Energetics <=

    Nuclear Repulsion Energy =            182.6311657547235825
    One-Electron Energy =               -1034.8531110438123051
    Two-Electron Energy =                 439.8341183060576896
    Total Energy =                       -412.3878269830310046
  Basis Set: (AUG-CC-PVTZ AUX)
    Blend: AUG-CC-PVTZ-RI + DEF2-QZVPP-RI
    Molecular point group: c1

    Geometry (in Angstrom), charge = 0, multiplicity = 1:

       Center              X                  Y                   Z               Mass
    ------------   -----------------  -----------------  -----------------  -----------------
         I           -0.821027863557    -0.024029648141     0.000248884955   126.904471900000
         C            2.217438136443    -0.493780648141     0.000239884955    12.000000000000
         C            1.228217136443     0.659980351859     0.000240884955    12.000000000000
         C            3.656591136443     0.026554351859     0.000255884955    12.000000000000
         H            2.044412136443    -1.121899648141     0.878990884955     1.007825032230
         H            2.044423136443    -1.121887648141    -0.878523115045     1.007825032230
         H            1.319595036443     1.219741251859    -0.931207915045     1.007825032230
         H            1.329849136443     1.282509351859     0.889851884955     1.007825032230
         H            4.368139136443    -0.802948648141     0.000199884955     1.007825032230
         H            3.855733136443     0.637645351859    -0.884310115045     1.007825032230
         H            3.855748136443     0.637543351859     0.884887884955     1.007825032230

  Basis Set: AUG-CC-PVTZ
    Blend: AUG-CC-PVTZ
  Basis Set: (AUG-CC-PVTZ AUX)
    Blend: AUG-CC-PVTZ-JKFIT + DEF2-UNIVERSAL-JKFIT
	 Reference Energy          =    -412.3878269830310046 [Eh]
	 Singles Energy            =      -0.0000000000000000 [Eh]
	 Same-Spin Energy          =      -0.2013306861511057 [Eh]
	 Opposite-Spin Energy      =      -0.6477193091665404 [Eh]
	 Correlation Energy        =      -0.8490499953176461 [Eh]
	 Total Energy              =    -413.2368769783486755 [Eh]

	 ================> DF-SCS-MP2 Energies <==================
	-----------------------------------------------------------
	 SCS Same-Spin Scale       =       0.3333333333333333 [-]
	 SCS Opposite-Spin Scale   =       1.2000000000000000 [-]
	 SCS Same-Spin Energy      =      -0.0671102287170352 [Eh]
	 SCS Opposite-Spin Energy  =      -0.7772631709998484 [Eh]
	 SCS Correlation Energy    =      -0.8443733997168836 [Eh]
	 SCS Total Energy          =    -413.2322003827478625 [Eh]
	-----------------------------------------------------------

  Dipole Moment: [D]
     X:     2.0547      Y:     0.3468      Z:    -0.0143     Total:     2.0839

*** Psi4 exiting successfully. Buy a developer a beer!
