                               Psi4 1.4a3.dev225

  ==> Input File <==

--------------------------------------------------------------------------
#psi4
#
memory 32 gb

molecule  {
0 1
  I       -1.0508630    -0.0327020     0.0000010
  C        1.9794504    -0.4771612    -0.0463450
  C        0.9983820     0.6513080    -0.0000070
  C        3.4267560     0.0178820     0.0000080
  H        1.8145770    -1.1305720     0.8787430
  H        1.8145880    -1.1305600    -0.8787710
  H        1.1000060     1.2738310    -0.8896230
  H        1.1000140     1.2738370     0.8896040
  H        4.1383040    -0.8116210    -0.0000480
  H        3.6258980     0.6289730    -0.8845580
  H        3.6259130     0.6288710     0.8846400
units angstrom
no_reorient  #important for SAPT in psi4, default
symmetry c1  #important for SAPT in psi4, default
}

set PROPERTIES_ORIGIN ["COM"]
properties('MP2/aug-cc-pvtz', properties = ['dipole'])
--------------------------------------------------------------------------

    Molecular point group: c1
  Charge       = 0
  Multiplicity = 1
  Basis Set: AUG-CC-PVTZ
    Blend: AUG-CC-PVTZ
  Basis Set: (AUG-CC-PVTZ AUX)
    Blend: AUG-CC-PVTZ-JKFIT + DEF2-UNIVERSAL-JKFIT

    Orbital Energies [Eh]
    ---------------------

    Doubly Occupied:

       1A    -11.284161     2A    -11.242217     3A    -11.228880
       4A     -7.707153     5A     -5.538389     6A     -5.529513
       7A     -5.529456     8A     -2.267671     9A     -2.263323
      10A     -2.263266    11A     -2.253424    12A     -2.253423
      13A     -1.087357    14A     -0.964082    15A     -0.856513
      16A     -0.806159    17A     -0.657806    18A     -0.599793
      19A     -0.568447    20A     -0.558607    21A     -0.513283
      22A     -0.483375    23A     -0.432895    24A     -0.357584
      25A     -0.356902

  @DF-RHF Final Energy:  -412.38511277859607

   => Energetics <=

    Nuclear Repulsion Energy =            182.8277475155011018
    One-Electron Energy =               -1035.2183647822198509
    Two-Electron Energy =                 440.0055044881227104
    Total Energy =                       -412.3851127785960671
  Basis Set: (AUG-CC-PVTZ AUX)
    Blend: AUG-CC-PVTZ-RI + DEF2-QZVPP-RI
    Molecular point group: c1

    Geometry (in Angstrom), charge = 0, multiplicity = 1:

       Center              X                  Y                   Z               Mass
    ------------   -----------------  -----------------  -----------------  -----------------
         I           -0.820513005287    -0.026187546706     0.003272455991   126.904471900000
         C            2.209800394713    -0.470646746706    -0.043073544009    12.000000000000
         C            1.228731994713     0.657822453294     0.003264455991    12.000000000000
         C            3.657105994713     0.024396453294     0.003279455991    12.000000000000
         H            2.044926994713    -1.124057546706     0.882014455991     1.007825032230
         H            2.044937994713    -1.124045546706    -0.875499544009     1.007825032230
         H            1.330355994713     1.280345453294    -0.886351544009     1.007825032230
         H            1.330363994713     1.280351453294     0.892875455991     1.007825032230
         H            4.368653994713    -0.805106546706     0.003223455991     1.007825032230
         H            3.856247994713     0.635487453294    -0.881286544009     1.007825032230
         H            3.856262994713     0.635385453294     0.887911455991     1.007825032230

  Basis Set: AUG-CC-PVTZ
    Blend: AUG-CC-PVTZ
  Basis Set: (AUG-CC-PVTZ AUX)
    Blend: AUG-CC-PVTZ-JKFIT + DEF2-UNIVERSAL-JKFIT
	 Reference Energy          =    -412.3851127785960671 [Eh]
	 Singles Energy            =      -0.0000000000000000 [Eh]
	 Same-Spin Energy          =      -0.2014898074045208 [Eh]
	 Opposite-Spin Energy      =      -0.6479992386374945 [Eh]
	 Correlation Energy        =      -0.8494890460420153 [Eh]
	 Total Energy              =    -413.2346018246381050 [Eh]

	 ================> DF-SCS-MP2 Energies <==================
	-----------------------------------------------------------
	 SCS Same-Spin Scale       =       0.3333333333333333 [-]
	 SCS Opposite-Spin Scale   =       1.2000000000000000 [-]
	 SCS Same-Spin Energy      =      -0.0671632691348402 [Eh]
	 SCS Opposite-Spin Energy  =      -0.7775990863649934 [Eh]
	 SCS Correlation Energy    =      -0.8447623554998337 [Eh]
	 SCS Total Energy          =    -413.2298751340958916 [Eh]
	-----------------------------------------------------------

  Dipole Moment: [D]
     X:     2.0206      Y:     0.3640      Z:    -0.0203     Total:     2.0532

*** Psi4 exiting successfully. Buy a developer a beer!
