                               Psi4 1.4a3.dev225

  ==> Input File <==

--------------------------------------------------------------------------
#psi4
#
memory 32 gb

molecule  {
0 1
  I       -1.0508630    -0.0327020     0.0000010
  C        1.9876030    -0.5024530    -0.0000080
  C        0.9853640     0.6664913    -0.0000070
  C        3.4267560     0.0178820     0.0000080
  H        1.8145770    -1.1305720     0.8787430
  H        1.8145880    -1.1305600    -0.8787710
  H        1.1000060     1.2738310    -0.8896230
  H        1.1000140     1.2738370     0.8896040
  H        4.1383040    -0.8116210    -0.0000480
  H        3.6258980     0.6289730    -0.8845580
  H        3.6259130     0.6288710     0.8846400
units angstrom
no_reorient  #important for SAPT in psi4, default
symmetry c1  #important for SAPT in psi4, default
}

set PROPERTIES_ORIGIN ["COM"]
properties('MP2/aug-cc-pvtz', properties = ['dipole'])
--------------------------------------------------------------------------

    Molecular point group: c1
  Charge       = 0
  Multiplicity = 1
  Basis Set: AUG-CC-PVTZ
    Blend: AUG-CC-PVTZ
  Basis Set: (AUG-CC-PVTZ AUX)
    Blend: AUG-CC-PVTZ-JKFIT + DEF2-UNIVERSAL-JKFIT

    Orbital Energies [Eh]
    ---------------------

    Doubly Occupied:

       1A    -11.283576     2A    -11.242212     3A    -11.228229
       4A     -7.707040     5A     -5.538271     6A     -5.529405
       7A     -5.529363     8A     -2.267589     9A     -2.263209
      10A     -2.263164    11A     -2.253335    12A     -2.253334
      13A     -1.080710    14A     -0.964020    15A     -0.854660
      16A     -0.808382    17A     -0.658234    18A     -0.594798
      19A     -0.570380    20A     -0.554452    21A     -0.504523
      22A     -0.495791    23A     -0.435243    24A     -0.357005
      25A     -0.356501

  @DF-RHF Final Energy:  -412.38821160700564

   => Energetics <=

    Nuclear Repulsion Energy =            182.4805816038625323
    One-Electron Energy =               -1034.5507329356762511
    Two-Electron Energy =                 439.6819397248080463
    Total Energy =                       -412.3882116070056441
  Basis Set: (AUG-CC-PVTZ AUX)
    Blend: AUG-CC-PVTZ-RI + DEF2-QZVPP-RI
    Molecular point group: c1

    Geometry (in Angstrom), charge = 0, multiplicity = 1:

       Center              X                  Y                   Z               Mass
    ------------   -----------------  -----------------  -----------------  -----------------
         I           -0.820169482937    -0.025473834436     0.000000824648   126.904471900000
         C            2.218296517063    -0.495224834436    -0.000008175352    12.000000000000
         C            1.216057517063     0.673719465564    -0.000007175352    12.000000000000
         C            3.657449517063     0.025110165564     0.000007824648    12.000000000000
         H            2.045270517063    -1.123343834436     0.878742824648     1.007825032230
         H            2.045281517063    -1.123331834436    -0.878771175352     1.007825032230
         H            1.330699517063     1.281059165564    -0.889623175352     1.007825032230
         H            1.330707517063     1.281065165564     0.889603824648     1.007825032230
         H            4.368997517063    -0.804392834436    -0.000048175352     1.007825032230
         H            3.856591517063     0.636201165564    -0.884558175352     1.007825032230
         H            3.856606517063     0.636099165564     0.884639824648     1.007825032230

  Basis Set: AUG-CC-PVTZ
    Blend: AUG-CC-PVTZ
  Basis Set: (AUG-CC-PVTZ AUX)
    Blend: AUG-CC-PVTZ-JKFIT + DEF2-UNIVERSAL-JKFIT
	 Reference Energy          =    -412.3882116070056441 [Eh]
	 Singles Energy            =      -0.0000000000000000 [Eh]
	 Same-Spin Energy          =      -0.2011455544159461 [Eh]
	 Opposite-Spin Energy      =      -0.6475911572104806 [Eh]
	 Correlation Energy        =      -0.8487367116264266 [Eh]
	 Total Energy              =    -413.2369483186320736 [Eh]

	 ================> DF-SCS-MP2 Energies <==================
	-----------------------------------------------------------
	 SCS Same-Spin Scale       =       0.3333333333333333 [-]
	 SCS Opposite-Spin Scale   =       1.2000000000000000 [-]
	 SCS Same-Spin Energy      =      -0.0670485181386487 [Eh]
	 SCS Opposite-Spin Energy  =      -0.7771093886525766 [Eh]
	 SCS Correlation Energy    =      -0.8441579067912253 [Eh]
	 SCS Total Energy          =    -413.2323695137968684 [Eh]
	-----------------------------------------------------------

  Dipole Moment: [D]
     X:     2.0149      Y:     0.3536      Z:    -0.0000     Total:     2.0457

*** Psi4 exiting successfully. Buy a developer a beer!
