                               Psi4 1.4a3.dev225

  ==> Input File <==

--------------------------------------------------------------------------
#psi4
#
memory 32 gb

molecule  {
0 1
  I       -1.0508630    -0.0327020     0.0000010
  C        1.9923375    -0.5148631     0.0231640
  C        0.9983820     0.6513080    -0.0000070
  C        3.4267560     0.0178820     0.0000080
  H        1.8145770    -1.1305720     0.8787430
  H        1.8145880    -1.1305600    -0.8787710
  H        1.1000060     1.2738310    -0.8896230
  H        1.1000140     1.2738370     0.8896040
  H        4.1383040    -0.8116210    -0.0000480
  H        3.6258980     0.6289730    -0.8845580
  H        3.6259130     0.6288710     0.8846400
units angstrom
no_reorient  #important for SAPT in psi4, default
symmetry c1  #important for SAPT in psi4, default
}

set PROPERTIES_ORIGIN ["COM"]
properties('MP2/aug-cc-pvtz', properties = ['dipole'])
--------------------------------------------------------------------------

    Molecular point group: c1
  Charge       = 0
  Multiplicity = 1
  Basis Set: AUG-CC-PVTZ
    Blend: AUG-CC-PVTZ
  Basis Set: (AUG-CC-PVTZ AUX)
    Blend: AUG-CC-PVTZ-JKFIT + DEF2-UNIVERSAL-JKFIT

    Orbital Energies [Eh]
    ---------------------

    Doubly Occupied:

       1A    -11.285160     2A    -11.241351     3A    -11.228686
       4A     -7.706286     5A     -5.537474     6A     -5.528675
       7A     -5.528619     8A     -2.266749     9A     -2.262433
      10A     -2.262375    11A     -2.252618    12A     -2.252617
      13A     -1.082464    14A     -0.962802    15A     -0.855554
      16A     -0.808472    17A     -0.658722    18A     -0.596142
      19A     -0.568535    20A     -0.555323    21A     -0.509237
      22A     -0.495369    23A     -0.432545    24A     -0.356395
      25A     -0.356162

  @DF-RHF Final Energy:  -412.38772225007307

   => Energetics <=

    Nuclear Repulsion Energy =            182.4246441794042255
    One-Electron Energy =               -1034.4432069792235325
    Two-Electron Energy =                 439.6308405497462104
    Total Energy =                       -412.3877222500730682
  Basis Set: (AUG-CC-PVTZ AUX)
    Blend: AUG-CC-PVTZ-RI + DEF2-QZVPP-RI
    Molecular point group: c1

    Geometry (in Angstrom), charge = 0, multiplicity = 1:

       Center              X                  Y                   Z               Mass
    ------------   -----------------  -----------------  -----------------  -----------------
         I           -0.821422901057    -0.023525597988    -0.001635238142   126.904471900000
         C            2.221777598943    -0.505686697988     0.021527761858    12.000000000000
         C            1.227822098943     0.660484402012    -0.001643238142    12.000000000000
         C            3.656196098943     0.027058402012    -0.001628238142    12.000000000000
         H            2.044017098943    -1.121395597988     0.877106761858     1.007825032230
         H            2.044028098943    -1.121383597988    -0.880407238142     1.007825032230
         H            1.329446098943     1.283007402012    -0.891259238142     1.007825032230
         H            1.329454098943     1.283013402012     0.887967761858     1.007825032230
         H            4.367744098943    -0.802444597988    -0.001684238142     1.007825032230
         H            3.855338098943     0.638149402012    -0.886194238142     1.007825032230
         H            3.855353098943     0.638047402012     0.883003761858     1.007825032230

  Basis Set: AUG-CC-PVTZ
    Blend: AUG-CC-PVTZ
  Basis Set: (AUG-CC-PVTZ AUX)
    Blend: AUG-CC-PVTZ-JKFIT + DEF2-UNIVERSAL-JKFIT
	 Reference Energy          =    -412.3877222500730682 [Eh]
	 Singles Energy            =      -0.0000000000000000 [Eh]
	 Same-Spin Energy          =      -0.2011897774644757 [Eh]
	 Opposite-Spin Energy      =      -0.6475816019815844 [Eh]
	 Correlation Energy        =      -0.8487713794460602 [Eh]
	 Total Energy              =    -413.2364936295191455 [Eh]

	 ================> DF-SCS-MP2 Energies <==================
	-----------------------------------------------------------
	 SCS Same-Spin Scale       =       0.3333333333333333 [-]
	 SCS Opposite-Spin Scale   =       1.2000000000000000 [-]
	 SCS Same-Spin Energy      =      -0.0670632591548252 [Eh]
	 SCS Opposite-Spin Energy  =      -0.7770979223779013 [Eh]
	 SCS Correlation Energy    =      -0.8441611815327266 [Eh]
	 SCS Total Energy          =    -413.2318834316058087 [Eh]
	-----------------------------------------------------------

  Dipole Moment: [D]
     X:     2.0549      Y:     0.3551      Z:     0.0087     Total:     2.0854

*** Psi4 exiting successfully. Buy a developer a beer!
