                               Psi4 1.4a3.dev225

  ==> Input File <==

--------------------------------------------------------------------------
#psi4
#
memory 32 gb

molecule  {
0 1
  I       -1.0508630    -0.0327020     0.0000010
  C        1.9876030    -0.5024530    -0.0000080
  C        0.9983820     0.6513080    -0.0000070
  C        3.4267560     0.0178820     0.0000080
  H        1.8066685    -1.1592814     0.9189080
  H        1.8145880    -1.1305600    -0.8787710
  H        1.1000060     1.2738310    -0.8896230
  H        1.1000140     1.2738370     0.8896040
  H        4.1383040    -0.8116210    -0.0000480
  H        3.6258980     0.6289730    -0.8845580
  H        3.6259130     0.6288710     0.8846400
units angstrom
no_reorient  #important for SAPT in psi4, default
symmetry c1  #important for SAPT in psi4, default
}

set PROPERTIES_ORIGIN ["COM"]
properties('MP2/aug-cc-pvtz', properties = ['dipole'])
--------------------------------------------------------------------------

    Molecular point group: c1
  Charge       = 0
  Multiplicity = 1
  Basis Set: AUG-CC-PVTZ
    Blend: AUG-CC-PVTZ
  Basis Set: (AUG-CC-PVTZ AUX)
    Blend: AUG-CC-PVTZ-JKFIT + DEF2-UNIVERSAL-JKFIT

    Orbital Energies [Eh]
    ---------------------

    Doubly Occupied:

       1A    -11.285202     2A    -11.247411     3A    -11.229112
       4A     -7.706618     5A     -5.537831     6A     -5.528988
       7A     -5.528937     8A     -2.267111     9A     -2.262774
      10A     -2.262722    11A     -2.252917    12A     -2.252916
      13A     -1.082514    14A     -0.963386    15A     -0.854352
      16A     -0.804470    17A     -0.655862    18A     -0.596685
      19A     -0.567917    20A     -0.556956    21A     -0.506600
      22A     -0.490288    23A     -0.432960    24A     -0.356733
      25A     -0.356549

  @DF-RHF Final Energy:  -412.38631786060250

   => Energetics <=

    Nuclear Repulsion Energy =            182.3517177043774780
    One-Electron Energy =               -1034.3004525589515197
    Two-Electron Energy =                 439.5624169939715102
    Total Energy =                       -412.3863178606025031
  Basis Set: (AUG-CC-PVTZ AUX)
    Blend: AUG-CC-PVTZ-RI + DEF2-QZVPP-RI
    Molecular point group: c1

    Geometry (in Angstrom), charge = 0, multiplicity = 1:

       Center              X                  Y                   Z               Mass
    ------------   -----------------  -----------------  -----------------  -----------------
         I           -0.821041725067    -0.024231573980    -0.000237345932   126.904471900000
         C            2.217424274933    -0.493982573980    -0.000246345932    12.000000000000
         C            1.228203274933     0.659778426020    -0.000245345932    12.000000000000
         C            3.656577274933     0.026352426020    -0.000230345932    12.000000000000
         H            2.036489774933    -1.150810973980     0.918669654068     1.007825032230
         H            2.044409274933    -1.122089573980    -0.879009345932     1.007825032230
         H            1.329827274933     1.282301426020    -0.889861345932     1.007825032230
         H            1.329835274933     1.282307426020     0.889365654068     1.007825032230
         H            4.368125274933    -0.803150573980    -0.000286345932     1.007825032230
         H            3.855719274933     0.637443426020    -0.884796345932     1.007825032230
         H            3.855734274933     0.637341426020     0.884401654068     1.007825032230

  Basis Set: AUG-CC-PVTZ
    Blend: AUG-CC-PVTZ
  Basis Set: (AUG-CC-PVTZ AUX)
    Blend: AUG-CC-PVTZ-JKFIT + DEF2-UNIVERSAL-JKFIT
	 Reference Energy          =    -412.3863178606025031 [Eh]
	 Singles Energy            =      -0.0000000000000000 [Eh]
	 Same-Spin Energy          =      -0.2012874845123455 [Eh]
	 Opposite-Spin Energy      =      -0.6479946145811311 [Eh]
	 Correlation Energy        =      -0.8492820990934765 [Eh]
	 Total Energy              =    -413.2355999596960032 [Eh]

	 ================> DF-SCS-MP2 Energies <==================
	-----------------------------------------------------------
	 SCS Same-Spin Scale       =       0.3333333333333333 [-]
	 SCS Opposite-Spin Scale   =       1.2000000000000000 [-]
	 SCS Same-Spin Energy      =      -0.0670958281707818 [Eh]
	 SCS Opposite-Spin Energy  =      -0.7775935374973573 [Eh]
	 SCS Correlation Energy    =      -0.8446893656681391 [Eh]
	 SCS Total Energy          =    -413.2310072262706626 [Eh]
	-----------------------------------------------------------

  Dipole Moment: [D]
     X:     2.0468      Y:     0.3735      Z:    -0.0171     Total:     2.0807

*** Psi4 exiting successfully. Buy a developer a beer!
