                               Psi4 1.4a3.dev225

  ==> Input File <==

--------------------------------------------------------------------------
#psi4
#
memory 32 gb

molecule  {
0 1
  I       -1.0508630    -0.0327020     0.0000010
  C        1.9876030    -0.5024530    -0.0000080
  C        0.8682023     0.8031409    -0.0000069
  C        3.4267560     0.0178820     0.0000080
  H        1.8145770    -1.1305720     0.8787430
  H        1.8145880    -1.1305600    -0.8787710
  H        1.1000060     1.2738310    -0.8896230
  H        1.1000140     1.2738370     0.8896040
  H        4.1383040    -0.8116210    -0.0000480
  H        3.6258980     0.6289730    -0.8845580
  H        3.6259130     0.6288710     0.8846400
units angstrom
no_reorient  #important for SAPT in psi4, default
symmetry c1  #important for SAPT in psi4, default
}

set PROPERTIES_ORIGIN ["COM"]
properties('MP2/aug-cc-pvtz', properties = ['dipole'])
--------------------------------------------------------------------------

    Molecular point group: c1
  Charge       = 0
  Multiplicity = 1
  Basis Set: AUG-CC-PVTZ
    Blend: AUG-CC-PVTZ
  Basis Set: (AUG-CC-PVTZ AUX)
    Blend: AUG-CC-PVTZ-JKFIT + DEF2-UNIVERSAL-JKFIT

    Orbital Energies [Eh]
    ---------------------

    Doubly Occupied:

       1A    -11.276211     2A    -11.248298     3A    -11.226115
       4A     -7.710989     5A     -5.542513     6A     -5.533286
       7A     -5.533211     8A     -2.272207     9A     -2.267372
      10A     -2.267331    11A     -2.257096    12A     -2.257093
      13A     -1.059242    14A     -0.971934    15A     -0.847659
      16A     -0.814370    17A     -0.660655    18A     -0.587705
      19A     -0.581703    20A     -0.539579    21A     -0.498037
      22A     -0.478613    23A     -0.449478    24A     -0.360769
      25A     -0.350650

  @DF-RHF Final Energy:  -412.36295054916877

   => Energetics <=

    Nuclear Repulsion Energy =            181.7664749893893656
    One-Electron Energy =               -1033.0746270281615580
    Two-Electron Energy =                 438.9452014896033916
    Total Energy =                       -412.3629505491687723
  Basis Set: (AUG-CC-PVTZ AUX)
    Blend: AUG-CC-PVTZ-RI + DEF2-QZVPP-RI
    Molecular point group: c1

    Geometry (in Angstrom), charge = 0, multiplicity = 1:

       Center              X                  Y                   Z               Mass
    ------------   -----------------  -----------------  -----------------  -----------------
         I           -0.811897262250    -0.035122001440     0.000000817587   126.904471900000
         C            2.226568737750    -0.504873001440    -0.000008182413    12.000000000000
         C            1.107168037750     0.800720898560    -0.000007082413    12.000000000000
         C            3.665721737750     0.015461998560     0.000007817587    12.000000000000
         H            2.053542737750    -1.132992001440     0.878742817587     1.007825032230
         H            2.053553737750    -1.132980001440    -0.878771182413     1.007825032230
         H            1.338971737750     1.271410998560    -0.889623182413     1.007825032230
         H            1.338979737750     1.271416998560     0.889603817587     1.007825032230
         H            4.377269737750    -0.814041001440    -0.000048182413     1.007825032230
         H            3.864863737750     0.626552998560    -0.884558182413     1.007825032230
         H            3.864878737750     0.626450998560     0.884639817587     1.007825032230

  Basis Set: AUG-CC-PVTZ
    Blend: AUG-CC-PVTZ
  Basis Set: (AUG-CC-PVTZ AUX)
    Blend: AUG-CC-PVTZ-JKFIT + DEF2-UNIVERSAL-JKFIT
	 Reference Energy          =    -412.3629505491687723 [Eh]
	 Singles Energy            =      -0.0000000000000000 [Eh]
	 Same-Spin Energy          =      -0.2012567819615204 [Eh]
	 Opposite-Spin Energy      =      -0.6491973457819916 [Eh]
	 Correlation Energy        =      -0.8504541277435120 [Eh]
	 Total Energy              =    -413.2134046769122619 [Eh]

	 ================> DF-SCS-MP2 Energies <==================
	-----------------------------------------------------------
	 SCS Same-Spin Scale       =       0.3333333333333333 [-]
	 SCS Opposite-Spin Scale   =       1.2000000000000000 [-]
	 SCS Same-Spin Energy      =      -0.0670855939871735 [Eh]
	 SCS Opposite-Spin Energy  =      -0.7790368149383899 [Eh]
	 SCS Correlation Energy    =      -0.8461224089255633 [Eh]
	 SCS Total Energy          =    -413.2090729580943389 [Eh]
	-----------------------------------------------------------

  Dipole Moment: [D]
     X:     1.8394      Y:     0.2849      Z:    -0.0000     Total:     1.8613

*** Psi4 exiting successfully. Buy a developer a beer!
