                               Psi4 1.4a3.dev225

  ==> Input File <==

--------------------------------------------------------------------------
#psi4
#
memory 32 gb

molecule  {
0 1
  I       -1.0508630    -0.0327020     0.0000010
  C        1.9876030    -0.5024530    -0.0000080
  C        0.9983820     0.6513080    -0.0000070
  C        3.4267560     0.0178820     0.0000080
  H        1.8145770    -1.1305720     0.8787430
  H        1.8145880    -1.1305600    -0.8787710
  H        1.1018697     1.2852478    -0.9059381
  H        1.1000140     1.2738370     0.8896040
  H        4.1383040    -0.8116210    -0.0000480
  H        3.6258980     0.6289730    -0.8845580
  H        3.6259130     0.6288710     0.8846400
units angstrom
no_reorient  #important for SAPT in psi4, default
symmetry c1  #important for SAPT in psi4, default
}

set PROPERTIES_ORIGIN ["COM"]
properties('MP2/aug-cc-pvtz', properties = ['dipole'])
--------------------------------------------------------------------------

    Molecular point group: c1
  Charge       = 0
  Multiplicity = 1
  Basis Set: AUG-CC-PVTZ
    Blend: AUG-CC-PVTZ
  Basis Set: (AUG-CC-PVTZ AUX)
    Blend: AUG-CC-PVTZ-JKFIT + DEF2-UNIVERSAL-JKFIT

    Orbital Energies [Eh]
    ---------------------

    Doubly Occupied:

       1A    -11.286963     2A    -11.241577     3A    -11.228608
       4A     -7.706653     5A     -5.537863     6A     -5.529027
       7A     -5.528972     8A     -2.267143     9A     -2.262810
      10A     -2.262755    11A     -2.252956    12A     -2.252955
      13A     -1.083436    14A     -0.962329    15A     -0.855747
      16A     -0.805868    17A     -0.657205    18A     -0.596675
      19A     -0.566542    20A     -0.556419    21A     -0.507412
      22A     -0.494824    23A     -0.432748    24A     -0.356747
      25A     -0.356411

  @DF-RHF Final Energy:  -412.38781597206719

   => Energetics <=

    Nuclear Repulsion Energy =            182.4703846894604737
    One-Electron Energy =               -1034.5351086957764437
    Two-Electron Energy =                 439.6769080342487541
    Total Energy =                       -412.3878159720671874
  Basis Set: (AUG-CC-PVTZ AUX)
    Blend: AUG-CC-PVTZ-RI + DEF2-QZVPP-RI
    Molecular point group: c1

    Geometry (in Angstrom), charge = 0, multiplicity = 1:

       Center              X                  Y                   Z               Mass
    ------------   -----------------  -----------------  -----------------  -----------------
         I           -0.821099672298    -0.024469514483     0.000097569994   126.904471900000
         C            2.217366327702    -0.494220514483     0.000088569994    12.000000000000
         C            1.228145327702     0.659540485517     0.000089569994    12.000000000000
         C            3.656519327702     0.026114485517     0.000104569994    12.000000000000
         H            2.044340327702    -1.122339514483     0.878839569994     1.007825032230
         H            2.044351327702    -1.122327514483    -0.878674430006     1.007825032230
         H            1.331633027702     1.293480285517    -0.905841530006     1.007825032230
         H            1.329777327702     1.282069485517     0.889700569994     1.007825032230
         H            4.368067327702    -0.803388514483     0.000048569994     1.007825032230
         H            3.855661327702     0.637205485517    -0.884461430006     1.007825032230
         H            3.855676327702     0.637103485517     0.884736569994     1.007825032230

  Basis Set: AUG-CC-PVTZ
    Blend: AUG-CC-PVTZ
  Basis Set: (AUG-CC-PVTZ AUX)
    Blend: AUG-CC-PVTZ-JKFIT + DEF2-UNIVERSAL-JKFIT
	 Reference Energy          =    -412.3878159720671874 [Eh]
	 Singles Energy            =      -0.0000000000000000 [Eh]
	 Same-Spin Energy          =      -0.2012997232255099 [Eh]
	 Opposite-Spin Energy      =      -0.6478027285180938 [Eh]
	 Correlation Energy        =      -0.8491024517436038 [Eh]
	 Total Energy              =    -413.2369184238107778 [Eh]

	 ================> DF-SCS-MP2 Energies <==================
	-----------------------------------------------------------
	 SCS Same-Spin Scale       =       0.3333333333333333 [-]
	 SCS Opposite-Spin Scale   =       1.2000000000000000 [-]
	 SCS Same-Spin Energy      =      -0.0670999077418366 [Eh]
	 SCS Opposite-Spin Energy  =      -0.7773632742217126 [Eh]
	 SCS Correlation Energy    =      -0.8444631819635492 [Eh]
	 SCS Total Energy          =    -413.2322791540307207 [Eh]
	-----------------------------------------------------------

  Dipole Moment: [D]
     X:     2.0402      Y:     0.3512      Z:     0.0019     Total:     2.0702

*** Psi4 exiting successfully. Buy a developer a beer!
