                               Psi4 1.4a3.dev225

  ==> Input File <==

--------------------------------------------------------------------------
#psi4
#
memory 32 gb

molecule  {
0 1
  I       -1.0508630    -0.0327020     0.0000010
  C        1.9876030    -0.5024530    -0.0000080
  C        0.9983820     0.6513080    -0.0000070
  C        3.4267560     0.0178820     0.0000080
  H        1.8145770    -1.1305720     0.8787430
  H        1.8145880    -1.1305600    -0.8787710
  H        1.1000060     1.2738310    -0.8896230
  H        1.1000140     1.2738370     0.8896040
  H        4.1383040    -0.8116210    -0.0000480
  H        3.6167915     0.6010287    -0.8441081
  H        3.6259130     0.6288710     0.8846400
units angstrom
no_reorient  #important for SAPT in psi4, default
symmetry c1  #important for SAPT in psi4, default
}

set PROPERTIES_ORIGIN ["COM"]
properties('MP2/aug-cc-pvtz', properties = ['dipole'])
--------------------------------------------------------------------------

    Molecular point group: c1
  Charge       = 0
  Multiplicity = 1
  Basis Set: AUG-CC-PVTZ
    Blend: AUG-CC-PVTZ
  Basis Set: (AUG-CC-PVTZ AUX)
    Blend: AUG-CC-PVTZ-JKFIT + DEF2-UNIVERSAL-JKFIT

    Orbital Energies [Eh]
    ---------------------

    Doubly Occupied:

       1A    -11.284685     2A    -11.240859     3A    -11.222338
       4A     -7.706491     5A     -5.537694     6A     -5.528869
       7A     -5.528815     8A     -2.266971     9A     -2.262643
      10A     -2.262589    11A     -2.252803    12A     -2.252802
      13A     -1.084752    14A     -0.965682    15A     -0.857721
      16A     -0.808121    17A     -0.659607    18A     -0.597956
      19A     -0.572092    20A     -0.556638    21A     -0.508577
      22A     -0.496797    23A     -0.432614    24A     -0.356608
      25A     -0.356444

  @DF-RHF Final Energy:  -412.38730782637361

   => Energetics <=

    Nuclear Repulsion Energy =            182.7702203952260334
    One-Electron Energy =               -1035.1127169025660351
    Two-Electron Energy =                 439.9551886809663870
    Total Energy =                       -412.3873078263736147
  Basis Set: (AUG-CC-PVTZ AUX)
    Blend: AUG-CC-PVTZ-RI + DEF2-QZVPP-RI
    Molecular point group: c1

    Geometry (in Angstrom), charge = 0, multiplicity = 1:

       Center              X                  Y                   Z               Mass
    ------------   -----------------  -----------------  -----------------  -----------------
         I           -0.821034621162    -0.024236110873    -0.000239035333   126.904471900000
         C            2.217431378838    -0.493987110873    -0.000248035333    12.000000000000
         C            1.228210378838     0.659773889127    -0.000247035333    12.000000000000
         C            3.656584378838     0.026347889127    -0.000232035333    12.000000000000
         H            2.044405378838    -1.122106110873     0.878502964667     1.007825032230
         H            2.044416378838    -1.122094110873    -0.879011035333     1.007825032230
         H            1.329834378838     1.282296889127    -0.889863035333     1.007825032230
         H            1.329842378838     1.282302889127     0.889363964667     1.007825032230
         H            4.368132378838    -0.803155110873    -0.000288035333     1.007825032230
         H            3.846619878838     0.609494589127    -0.844348135333     1.007825032230
         H            3.855741378838     0.637336889127     0.884399964667     1.007825032230

  Basis Set: AUG-CC-PVTZ
    Blend: AUG-CC-PVTZ
  Basis Set: (AUG-CC-PVTZ AUX)
    Blend: AUG-CC-PVTZ-JKFIT + DEF2-UNIVERSAL-JKFIT
	 Reference Energy          =    -412.3873078263736147 [Eh]
	 Singles Energy            =      -0.0000000000000000 [Eh]
	 Same-Spin Energy          =      -0.2012920460652718 [Eh]
	 Opposite-Spin Energy      =      -0.6473987524024336 [Eh]
	 Correlation Energy        =      -0.8486907984677055 [Eh]
	 Total Energy              =    -413.2359986248413293 [Eh]

	 ================> DF-SCS-MP2 Energies <==================
	-----------------------------------------------------------
	 SCS Same-Spin Scale       =       0.3333333333333333 [-]
	 SCS Opposite-Spin Scale   =       1.2000000000000000 [-]
	 SCS Same-Spin Energy      =      -0.0670973486884239 [Eh]
	 SCS Opposite-Spin Energy  =      -0.7768785028829203 [Eh]
	 SCS Correlation Energy    =      -0.8439758515713441 [Eh]
	 SCS Total Energy          =    -413.2312836779449867 [Eh]
	-----------------------------------------------------------

  Dipole Moment: [D]
     X:     2.0554      Y:     0.3725      Z:    -0.0204     Total:     2.0889

*** Psi4 exiting successfully. Buy a developer a beer!
