                               Psi4 1.4a3.dev225

  ==> Input File <==

--------------------------------------------------------------------------
#psi4
#
memory 32 gb

molecule  {
0 1
  I       -1.0508630    -0.0327020     0.0000010
  C        1.9975090    -0.5271109     0.0463290
  C        0.9983820     0.6513080    -0.0000070
  C        3.4267560     0.0178820     0.0000080
  H        1.8145770    -1.1305720     0.8787430
  H        1.8145880    -1.1305600    -0.8787710
  H        1.1000060     1.2738310    -0.8896230
  H        1.1000140     1.2738370     0.8896040
  H        4.1383040    -0.8116210    -0.0000480
  H        3.6258980     0.6289730    -0.8845580
  H        3.6259130     0.6288710     0.8846400
units angstrom
no_reorient  #important for SAPT in psi4, default
symmetry c1  #important for SAPT in psi4, default
}

set PROPERTIES_ORIGIN ["COM"]
properties('MP2/aug-cc-pvtz', properties = ['dipole'])
--------------------------------------------------------------------------

    Molecular point group: c1
  Charge       = 0
  Multiplicity = 1
  Basis Set: AUG-CC-PVTZ
    Blend: AUG-CC-PVTZ
  Basis Set: (AUG-CC-PVTZ AUX)
    Blend: AUG-CC-PVTZ-JKFIT + DEF2-UNIVERSAL-JKFIT

    Orbital Energies [Eh]
    ---------------------

    Doubly Occupied:

       1A    -11.285606     2A    -11.241480     3A    -11.228852
       4A     -7.706017     5A     -5.537191     6A     -5.528416
       7A     -5.528357     8A     -2.266464     9A     -2.262159
      10A     -2.262097    11A     -2.252366    12A     -2.252365
      13A     -1.081040    14A     -0.962462    15A     -0.855647
      16A     -0.809732    17A     -0.658844    18A     -0.595615
      19A     -0.569128    20A     -0.554526    21A     -0.513686
      22A     -0.491832    23A     -0.432116    24A     -0.356194
      25A     -0.355689

  @DF-RHF Final Energy:  -412.38533146189707

   => Energetics <=

    Nuclear Repulsion Energy =            182.2784649083657484
    One-Electron Energy =               -1034.1518326872730995
    Two-Electron Energy =                 439.4880363170102555
    Total Energy =                       -412.3853314618970671
  Basis Set: (AUG-CC-PVTZ AUX)
    Blend: AUG-CC-PVTZ-RI + DEF2-QZVPP-RI
    Molecular point group: c1

    Geometry (in Angstrom), charge = 0, multiplicity = 1:

       Center              X                  Y                   Z               Mass
    ------------   -----------------  -----------------  -----------------  -----------------
         I           -0.821788035647    -0.022660840098    -0.003270806696   126.904471900000
         C            2.226583964353    -0.517069740098     0.043057193304    12.000000000000
         C            1.227456964353     0.661349159902    -0.003278806696    12.000000000000
         C            3.655830964353     0.027923159902    -0.003263806696    12.000000000000
         H            2.043651964353    -1.120530840098     0.875471193304     1.007825032230
         H            2.043662964353    -1.120518840098    -0.882042806696     1.007825032230
         H            1.329080964353     1.283872159902    -0.892894806696     1.007825032230
         H            1.329088964353     1.283878159902     0.886332193304     1.007825032230
         H            4.367378964353    -0.801579840098    -0.003319806696     1.007825032230
         H            3.854972964353     0.639014159902    -0.887829806696     1.007825032230
         H            3.854987964353     0.638912159902     0.881368193304     1.007825032230

  Basis Set: AUG-CC-PVTZ
    Blend: AUG-CC-PVTZ
  Basis Set: (AUG-CC-PVTZ AUX)
    Blend: AUG-CC-PVTZ-JKFIT + DEF2-UNIVERSAL-JKFIT
	 Reference Energy          =    -412.3853314618970671 [Eh]
	 Singles Energy            =      -0.0000000000000000 [Eh]
	 Same-Spin Energy          =      -0.2011467370831805 [Eh]
	 Opposite-Spin Energy      =      -0.6476118044627122 [Eh]
	 Correlation Energy        =      -0.8487585415458927 [Eh]
	 Total Energy              =    -413.2340900034429865 [Eh]

	 ================> DF-SCS-MP2 Energies <==================
	-----------------------------------------------------------
	 SCS Same-Spin Scale       =       0.3333333333333333 [-]
	 SCS Opposite-Spin Scale   =       1.2000000000000000 [-]
	 SCS Same-Spin Energy      =      -0.0670489123610602 [Eh]
	 SCS Opposite-Spin Energy  =      -0.7771341653552546 [Eh]
	 SCS Correlation Energy    =      -0.8441830777163147 [Eh]
	 SCS Total Energy          =    -413.2295145396133762 [Eh]
	-----------------------------------------------------------

  Dipole Moment: [D]
     X:     2.0677      Y:     0.3558      Z:     0.0166     Total:     2.0981

*** Psi4 exiting successfully. Buy a developer a beer!
