                               Psi4 1.4a3.dev225

  ==> Input File <==

--------------------------------------------------------------------------
#psi4
#
memory 32 gb

molecule  {
0 1
  I       -1.0508630    -0.0327020     0.0000010
  C        1.9876030    -0.5024530    -0.0000080
  C        0.9983820     0.6513080    -0.0000070
  C        3.4267560     0.0178820     0.0000080
  H        1.8177404    -1.1190882     0.8626770
  H        1.8145880    -1.1305600    -0.8787710
  H        1.1000060     1.2738310    -0.8896230
  H        1.1000140     1.2738370     0.8896040
  H        4.1383040    -0.8116210    -0.0000480
  H        3.6258980     0.6289730    -0.8845580
  H        3.6259130     0.6288710     0.8846400
units angstrom
no_reorient  #important for SAPT in psi4, default
symmetry c1  #important for SAPT in psi4, default
}

set PROPERTIES_ORIGIN ["COM"]
properties('MP2/aug-cc-pvtz', properties = ['dipole'])
--------------------------------------------------------------------------

    Molecular point group: c1
  Charge       = 0
  Multiplicity = 1
  Basis Set: AUG-CC-PVTZ
    Blend: AUG-CC-PVTZ
  Basis Set: (AUG-CC-PVTZ AUX)
    Blend: AUG-CC-PVTZ-JKFIT + DEF2-UNIVERSAL-JKFIT

    Orbital Energies [Eh]
    ---------------------

    Doubly Occupied:

       1A    -11.284606     2A    -11.238988     3A    -11.228465
       4A     -7.706549     5A     -5.537747     6A     -5.528931
       7A     -5.528875     8A     -2.267024     9A     -2.262701
      10A     -2.262644    11A     -2.252867    12A     -2.252866
      13A     -1.084711    14A     -0.963123    15A     -0.856381
      16A     -0.808732    17A     -0.659633    18A     -0.597170
      19A     -0.568139    20A     -0.556442    21A     -0.508166
      22A     -0.496670    23A     -0.432809    24A     -0.356698
      25A     -0.356494

  @DF-RHF Final Energy:  -412.38843607862503

   => Energetics <=

    Nuclear Repulsion Energy =            182.6542770703544818
    One-Electron Energy =               -1034.8905616588979228
    Two-Electron Energy =                 439.8478485099183786
    Total Energy =                       -412.3884360786250340
  Basis Set: (AUG-CC-PVTZ AUX)
    Blend: AUG-CC-PVTZ-RI + DEF2-QZVPP-RI
    Molecular point group: c1

    Geometry (in Angstrom), charge = 0, multiplicity = 1:

       Center              X                  Y                   Z               Mass
    ------------   -----------------  -----------------  -----------------  -----------------
         I           -0.821107379265    -0.024469911780     0.000096092880   126.904471900000
         C            2.217358620735    -0.494220911780     0.000087092880    12.000000000000
         C            1.228137620735     0.659540088220     0.000088092880    12.000000000000
         C            3.656511620735     0.026114088220     0.000103092880    12.000000000000
         H            2.047496020735    -1.110856111780     0.862772092880     1.007825032230
         H            2.044343620735    -1.122327911780    -0.878675907120     1.007825032230
         H            1.329761620735     1.282063088220    -0.889527907120     1.007825032230
         H            1.329769620735     1.282069088220     0.889699092880     1.007825032230
         H            4.368059620735    -0.803388911780     0.000047092880     1.007825032230
         H            3.855653620735     0.637205088220    -0.884462907120     1.007825032230
         H            3.855668620735     0.637103088220     0.884735092880     1.007825032230

  Basis Set: AUG-CC-PVTZ
    Blend: AUG-CC-PVTZ
  Basis Set: (AUG-CC-PVTZ AUX)
    Blend: AUG-CC-PVTZ-JKFIT + DEF2-UNIVERSAL-JKFIT
	 Reference Energy          =    -412.3884360786250340 [Eh]
	 Singles Energy            =      -0.0000000000000000 [Eh]
	 Same-Spin Energy          =      -0.2012535681350569 [Eh]
	 Opposite-Spin Energy      =      -0.6475134292099819 [Eh]
	 Correlation Energy        =      -0.8487669973450388 [Eh]
	 Total Energy              =    -413.2372030759700579 [Eh]

	 ================> DF-SCS-MP2 Energies <==================
	-----------------------------------------------------------
	 SCS Same-Spin Scale       =       0.3333333333333333 [-]
	 SCS Opposite-Spin Scale   =       1.2000000000000000 [-]
	 SCS Same-Spin Energy      =      -0.0670845227116856 [Eh]
	 SCS Opposite-Spin Energy  =      -0.7770161150519782 [Eh]
	 SCS Correlation Energy    =      -0.8441006377636638 [Eh]
	 SCS Total Energy          =    -413.2325367163887222 [Eh]
	-----------------------------------------------------------

  Dipole Moment: [D]
     X:     2.0414      Y:     0.3500      Z:     0.0060     Total:     2.0712

*** Psi4 exiting successfully. Buy a developer a beer!
