                               Psi4 1.4a3.dev225

  ==> Input File <==

--------------------------------------------------------------------------
#psi4
#
memory 32 gb

molecule  {
0 1
  I       -1.0508630    -0.0327020     0.0000010
  C        1.9876030    -0.5024530    -0.0000080
  C        0.9983820     0.6513080    -0.0000070
  C        3.4267560     0.0178820     0.0000080
  H        1.8145770    -1.1305720     0.8787430
  H        1.8145880    -1.1305600    -0.8787710
  H        1.1000060     1.2738310    -0.8896230
  H        1.1000140     1.2738370     0.8896040
  H        4.2034119    -0.8875220    -0.0000531
  H        3.6258980     0.6289730    -0.8845580
  H        3.6259130     0.6288710     0.8846400
units angstrom
no_reorient  #important for SAPT in psi4, default
symmetry c1  #important for SAPT in psi4, default
}

set PROPERTIES_ORIGIN ["COM"]
properties('MP2/aug-cc-pvtz', properties = ['dipole'])
--------------------------------------------------------------------------

    Molecular point group: c1
  Charge       = 0
  Multiplicity = 1
  Basis Set: AUG-CC-PVTZ
    Blend: AUG-CC-PVTZ
  Basis Set: (AUG-CC-PVTZ AUX)
    Blend: AUG-CC-PVTZ-JKFIT + DEF2-UNIVERSAL-JKFIT

    Orbital Energies [Eh]
    ---------------------

    Doubly Occupied:

       1A    -11.285490     2A    -11.242423     3A    -11.240448
       4A     -7.707281     5A     -5.538507     6A     -5.529645
       7A     -5.529590     8A     -2.267786     9A     -2.263445
      10A     -2.263389    11A     -2.253563    12A     -2.253563
      13A     -1.083563    14A     -0.959039    15A     -0.852506
      16A     -0.807700    17A     -0.659391    18A     -0.586491
      19A     -0.569280    20A     -0.555382    21A     -0.499315
      22A     -0.496061    23A     -0.432794    24A     -0.357303
      25A     -0.357127

  @DF-RHF Final Energy:  -412.38203658560030

   => Energetics <=

    Nuclear Repulsion Energy =            182.1708456821603477
    One-Electron Energy =               -1033.9236008596913052
    Two-Electron Energy =                 439.3707185919306539
    Total Energy =                       -412.3820365856003036
  Basis Set: (AUG-CC-PVTZ AUX)
    Blend: AUG-CC-PVTZ-RI + DEF2-QZVPP-RI
    Molecular point group: c1

    Geometry (in Angstrom), charge = 0, multiplicity = 1:

       Center              X                  Y                   Z               Mass
    ------------   -----------------  -----------------  -----------------  -----------------
         I           -0.821474698012    -0.023951737039     0.000000854890   126.904471900000
         C            2.216991301988    -0.493702737039    -0.000008145110    12.000000000000
         C            1.227770301988     0.660058262961    -0.000007145110    12.000000000000
         C            3.656144301988     0.026632262961     0.000007854890    12.000000000000
         H            2.043965301988    -1.121821737039     0.878742854890     1.007825032230
         H            2.043976301988    -1.121809737039    -0.878771145110     1.007825032230
         H            1.329394301988     1.282581262961    -0.889623145110     1.007825032230
         H            1.329402301988     1.282587262961     0.889603854890     1.007825032230
         H            4.432800201988    -0.878771737039    -0.000053245110     1.007825032230
         H            3.855286301988     0.637723262961    -0.884558145110     1.007825032230
         H            3.855301301988     0.637621262961     0.884639854890     1.007825032230

  Basis Set: AUG-CC-PVTZ
    Blend: AUG-CC-PVTZ
  Basis Set: (AUG-CC-PVTZ AUX)
    Blend: AUG-CC-PVTZ-JKFIT + DEF2-UNIVERSAL-JKFIT
	 Reference Energy          =    -412.3820365856003036 [Eh]
	 Singles Energy            =      -0.0000000000000000 [Eh]
	 Same-Spin Energy          =      -0.2012205470335747 [Eh]
	 Opposite-Spin Energy      =      -0.6483050472613150 [Eh]
	 Correlation Energy        =      -0.8495255942948896 [Eh]
	 Total Energy              =    -413.2315621798952066 [Eh]

	 ================> DF-SCS-MP2 Energies <==================
	-----------------------------------------------------------
	 SCS Same-Spin Scale       =       0.3333333333333333 [-]
	 SCS Opposite-Spin Scale   =       1.2000000000000000 [-]
	 SCS Same-Spin Energy      =      -0.0670735156778582 [Eh]
	 SCS Opposite-Spin Energy  =      -0.7779660567135780 [Eh]
	 SCS Correlation Energy    =      -0.8450395723914362 [Eh]
	 SCS Total Energy          =    -413.2270761579917462 [Eh]
	-----------------------------------------------------------

  Dipole Moment: [D]
     X:     1.9654      Y:     0.3933      Z:    -0.0000     Total:     2.0044

*** Psi4 exiting successfully. Buy a developer a beer!
