                               Psi4 1.4a3.dev225

  ==> Input File <==

--------------------------------------------------------------------------
#psi4
#
memory 32 gb

molecule  {
0 1
  I       -1.0508630    -0.0327020     0.0000010
  C        1.9876030    -0.5024530    -0.0000080
  C        0.9983820     0.6513080    -0.0000070
  C        3.4267560     0.0178820     0.0000080
  H        1.8145770    -1.1305720     0.8787430
  H        1.8145880    -1.1305600    -0.8787710
  H        1.0981423     1.2624142    -0.8733079
  H        1.1000140     1.2738370     0.8896040
  H        4.1383040    -0.8116210    -0.0000480
  H        3.6258980     0.6289730    -0.8845580
  H        3.6259130     0.6288710     0.8846400
units angstrom
no_reorient  #important for SAPT in psi4, default
symmetry c1  #important for SAPT in psi4, default
}

set PROPERTIES_ORIGIN ["COM"]
properties('MP2/aug-cc-pvtz', properties = ['dipole'])
--------------------------------------------------------------------------

    Molecular point group: c1
  Charge       = 0
  Multiplicity = 1
  Basis Set: AUG-CC-PVTZ
    Blend: AUG-CC-PVTZ
  Basis Set: (AUG-CC-PVTZ AUX)
    Blend: AUG-CC-PVTZ-JKFIT + DEF2-UNIVERSAL-JKFIT

    Orbital Energies [Eh]
    ---------------------

    Doubly Occupied:

       1A    -11.282539     2A    -11.241286     3A    -11.228667
       4A     -7.706487     5A     -5.537681     6A     -5.528870
       7A     -5.528816     8A     -2.266957     9A     -2.262635
      10A     -2.262580    11A     -2.252809    12A     -2.252808
      13A     -1.084617    14A     -0.964107    15A     -0.855661
      16A     -0.809121    17A     -0.659854    18A     -0.597391
      19A     -0.569564    20A     -0.556666    21A     -0.507540
      22A     -0.495459    23A     -0.432958    24A     -0.356725
      25A     -0.356552

  @DF-RHF Final Energy:  -412.38849852656091

   => Energetics <=

    Nuclear Repulsion Energy =            182.6624261835419816
    One-Electron Energy =               -1034.9051490805031790
    Two-Electron Energy =                 439.8542243704002317
    Total Energy =                       -412.3884985265609089
  Basis Set: (AUG-CC-PVTZ AUX)
    Blend: AUG-CC-PVTZ-RI + DEF2-QZVPP-RI
    Molecular point group: c1

    Geometry (in Angstrom), charge = 0, multiplicity = 1:

       Center              X                  Y                   Z               Mass
    ------------   -----------------  -----------------  -----------------  -----------------
         I           -0.821077569547    -0.024334115709    -0.000095920698   126.904471900000
         C            2.217388430453    -0.494085115709    -0.000104920698    12.000000000000
         C            1.228167430453     0.659675884291    -0.000103920698    12.000000000000
         C            3.656541430453     0.026249884291    -0.000088920698    12.000000000000
         H            2.044362430453    -1.122204115709     0.878646079302     1.007825032230
         H            2.044373430453    -1.122192115709    -0.878867920698     1.007825032230
         H            1.327927730453     1.270782084291    -0.873404820698     1.007825032230
         H            1.329799430453     1.282204884291     0.889507079302     1.007825032230
         H            4.368089430453    -0.803253115709    -0.000144920698     1.007825032230
         H            3.855683430453     0.637340884291    -0.884654920698     1.007825032230
         H            3.855698430453     0.637238884291     0.884543079302     1.007825032230

  Basis Set: AUG-CC-PVTZ
    Blend: AUG-CC-PVTZ
  Basis Set: (AUG-CC-PVTZ AUX)
    Blend: AUG-CC-PVTZ-JKFIT + DEF2-UNIVERSAL-JKFIT
	 Reference Energy          =    -412.3884985265609089 [Eh]
	 Singles Energy            =      -0.0000000000000000 [Eh]
	 Same-Spin Energy          =      -0.2012260853763415 [Eh]
	 Opposite-Spin Energy      =      -0.6474871168219871 [Eh]
	 Correlation Energy        =      -0.8487132021983286 [Eh]
	 Total Energy              =    -413.2372117287592346 [Eh]

	 ================> DF-SCS-MP2 Energies <==================
	-----------------------------------------------------------
	 SCS Same-Spin Scale       =       0.3333333333333333 [-]
	 SCS Opposite-Spin Scale   =       1.2000000000000000 [-]
	 SCS Same-Spin Energy      =      -0.0670753617921138 [Eh]
	 SCS Opposite-Spin Energy  =      -0.7769845401863845 [Eh]
	 SCS Correlation Energy    =      -0.8440599019784983 [Eh]
	 SCS Total Energy          =    -413.2325584285393916 [Eh]
	-----------------------------------------------------------

  Dipole Moment: [D]
     X:     2.0453      Y:     0.3606      Z:    -0.0015     Total:     2.0768

*** Psi4 exiting successfully. Buy a developer a beer!
