                               Psi4 1.4a3.dev225

  ==> Input File <==

--------------------------------------------------------------------------
#psi4
#
memory 32 gb

molecule  {
0 1
  I       -1.0508630    -0.0327020     0.0000010
  C        1.9876030    -0.5024530    -0.0000080
  C        0.9983820     0.6513080    -0.0000070
  C        3.4267560     0.0178820     0.0000080
  H        1.8145770    -1.1305720     0.8787430
  H        1.8145880    -1.1305600    -0.8787710
  H        1.1000060     1.2738310    -0.8896230
  H        1.1000140     1.2738370     0.8896040
  H        4.1383040    -0.8116210    -0.0000480
  H        3.6258980     0.6289730    -0.8845580
  H        3.6168058     0.6009314     0.8441871
units angstrom
no_reorient  #important for SAPT in psi4, default
symmetry c1  #important for SAPT in psi4, default
}

set PROPERTIES_ORIGIN ["COM"]
properties('MP2/aug-cc-pvtz', properties = ['dipole'])
--------------------------------------------------------------------------

    Molecular point group: c1
  Charge       = 0
  Multiplicity = 1
  Basis Set: AUG-CC-PVTZ
    Blend: AUG-CC-PVTZ
  Basis Set: (AUG-CC-PVTZ AUX)
    Blend: AUG-CC-PVTZ-JKFIT + DEF2-UNIVERSAL-JKFIT

    Orbital Energies [Eh]
    ---------------------

    Doubly Occupied:

       1A    -11.284685     2A    -11.240859     3A    -11.222338
       4A     -7.706491     5A     -5.537694     6A     -5.528869
       7A     -5.528815     8A     -2.266971     9A     -2.262643
      10A     -2.262589    11A     -2.252803    12A     -2.252802
      13A     -1.084752    14A     -0.965682    15A     -0.857721
      16A     -0.808121    17A     -0.659608    18A     -0.597955
      19A     -0.572093    20A     -0.556638    21A     -0.508576
      22A     -0.496797    23A     -0.432614    24A     -0.356608
      25A     -0.356444

  @DF-RHF Final Energy:  -412.38730778224658

   => Energetics <=

    Nuclear Repulsion Energy =            182.7702213065809360
    One-Electron Energy =               -1035.1127188172092701
    Two-Electron Energy =                 439.9551897283818107
    Total Energy =                       -412.3873077822465802
  Basis Set: (AUG-CC-PVTZ AUX)
    Blend: AUG-CC-PVTZ-RI + DEF2-QZVPP-RI
    Molecular point group: c1

    Geometry (in Angstrom), charge = 0, multiplicity = 1:

       Center              X                  Y                   Z               Mass
    ------------   -----------------  -----------------  -----------------  -----------------
         I           -0.821034617011    -0.024236138743     0.000240702418   126.904471900000
         C            2.217431382989    -0.493987138743     0.000231702418    12.000000000000
         C            1.228210382989     0.659773861257     0.000232702418    12.000000000000
         C            3.656584382989     0.026347861257     0.000247702418    12.000000000000
         H            2.044405382989    -1.122106138743     0.878982702418     1.007825032230
         H            2.044416382989    -1.122094138743    -0.878531297582     1.007825032230
         H            1.329834382989     1.282296861257    -0.889383297582     1.007825032230
         H            1.329842382989     1.282302861257     0.889843702418     1.007825032230
         H            4.368132382989    -0.803155138743     0.000191702418     1.007825032230
         H            3.855726382989     0.637438861257    -0.884318297582     1.007825032230
         H            3.846634182989     0.609397261257     0.844426802418     1.007825032230

  Basis Set: AUG-CC-PVTZ
    Blend: AUG-CC-PVTZ
  Basis Set: (AUG-CC-PVTZ AUX)
    Blend: AUG-CC-PVTZ-JKFIT + DEF2-UNIVERSAL-JKFIT
	 Reference Energy          =    -412.3873077822465802 [Eh]
	 Singles Energy            =      -0.0000000000000000 [Eh]
	 Same-Spin Energy          =      -0.2012920486043539 [Eh]
	 Opposite-Spin Energy      =      -0.6473987557001255 [Eh]
	 Correlation Energy        =      -0.8486908043044794 [Eh]
	 Total Energy              =    -413.2359985865510339 [Eh]

	 ================> DF-SCS-MP2 Energies <==================
	-----------------------------------------------------------
	 SCS Same-Spin Scale       =       0.3333333333333333 [-]
	 SCS Opposite-Spin Scale   =       1.2000000000000000 [-]
	 SCS Same-Spin Energy      =      -0.0670973495347846 [Eh]
	 SCS Opposite-Spin Energy  =      -0.7768785068401506 [Eh]
	 SCS Correlation Energy    =      -0.8439758563749352 [Eh]
	 SCS Total Energy          =    -413.2312836386215054 [Eh]
	-----------------------------------------------------------

  Dipole Moment: [D]
     X:     2.0554      Y:     0.3725      Z:     0.0204     Total:     2.0889

*** Psi4 exiting successfully. Buy a developer a beer!
