                               Psi4 1.4a3.dev225

  ==> Input File <==

--------------------------------------------------------------------------
#psi4
#
memory 32 gb

molecule  {
0 1
  I       -1.0508630    -0.0327020     0.0000010
  C        1.9730611    -0.4512662    -0.0926254
  C        0.9983820     0.6513080    -0.0000070
  C        3.4267560     0.0178820     0.0000080
  H        1.8145770    -1.1305720     0.8787430
  H        1.8145880    -1.1305600    -0.8787710
  H        1.1000060     1.2738310    -0.8896230
  H        1.1000140     1.2738370     0.8896040
  H        4.1383040    -0.8116210    -0.0000480
  H        3.6258980     0.6289730    -0.8845580
  H        3.6259130     0.6288710     0.8846400
units angstrom
no_reorient  #important for SAPT in psi4, default
symmetry c1  #important for SAPT in psi4, default
}

set PROPERTIES_ORIGIN ["COM"]
properties('MP2/aug-cc-pvtz', properties = ['dipole'])
--------------------------------------------------------------------------

    Molecular point group: c1
  Charge       = 0
  Multiplicity = 1
  Basis Set: AUG-CC-PVTZ
    Blend: AUG-CC-PVTZ
  Basis Set: (AUG-CC-PVTZ AUX)
    Blend: AUG-CC-PVTZ-JKFIT + DEF2-UNIVERSAL-JKFIT

    Orbital Energies [Eh]
    ---------------------

    Doubly Occupied:

       1A    -11.283836     2A    -11.243880     3A    -11.229553
       4A     -7.707786     5A     -5.539059     6A     -5.530126
       7A     -5.530060     8A     -2.268348     9A     -2.263978
      10A     -2.263912    11A     -2.254008    12A     -2.254007
      13A     -1.091037    14A     -0.965175    15A     -0.857788
      16A     -0.805839    17A     -0.656815    18A     -0.603852
      19A     -0.571904    20A     -0.558045    21A     -0.520354
      22A     -0.469343    23A     -0.431408    24A     -0.358440
      25A     -0.357274

  @DF-RHF Final Energy:  -412.37636173681614

   => Energetics <=

    Nuclear Repulsion Energy =            183.0603445541042333
    One-Electron Energy =               -1035.6417547824844405
    Two-Electron Energy =                 440.2050484915641277
    Total Energy =                       -412.3763617368161363
  Basis Set: (AUG-CC-PVTZ AUX)
    Blend: AUG-CC-PVTZ-RI + DEF2-QZVPP-RI
    Molecular point group: c1

    Geometry (in Angstrom), charge = 0, multiplicity = 1:

       Center              X                  Y                   Z               Mass
    ------------   -----------------  -----------------  -----------------  -----------------
         I           -0.820061887732    -0.028015867349     0.006540091082   126.904471900000
         C            2.203862212268    -0.446580067349    -0.086086308918    12.000000000000
         C            1.229183112268     0.655994132651     0.006532091082    12.000000000000
         C            3.657557112268     0.022568132651     0.006547091082    12.000000000000
         H            2.045378112268    -1.125885867349     0.885282091082     1.007825032230
         H            2.045389112268    -1.125873867349    -0.872231908918     1.007825032230
         H            1.330807112268     1.278517132651    -0.883083908918     1.007825032230
         H            1.330815112268     1.278523132651     0.896143091082     1.007825032230
         H            4.369105112268    -0.806934867349     0.006491091082     1.007825032230
         H            3.856699112268     0.633659132651    -0.878018908918     1.007825032230
         H            3.856714112268     0.633557132651     0.891179091082     1.007825032230

  Basis Set: AUG-CC-PVTZ
    Blend: AUG-CC-PVTZ
  Basis Set: (AUG-CC-PVTZ AUX)
    Blend: AUG-CC-PVTZ-JKFIT + DEF2-UNIVERSAL-JKFIT
	 Reference Energy          =    -412.3763617368161363 [Eh]
	 Singles Energy            =      -0.0000000000000000 [Eh]
	 Same-Spin Energy          =      -0.2018224951244639 [Eh]
	 Opposite-Spin Energy      =      -0.6486652986148098 [Eh]
	 Correlation Energy        =      -0.8504877937392737 [Eh]
	 Total Energy              =    -413.2268495305553984 [Eh]

	 ================> DF-SCS-MP2 Energies <==================
	-----------------------------------------------------------
	 SCS Same-Spin Scale       =       0.3333333333333333 [-]
	 SCS Opposite-Spin Scale   =       1.2000000000000000 [-]
	 SCS Same-Spin Energy      =      -0.0672741650414880 [Eh]
	 SCS Opposite-Spin Energy  =      -0.7783983583377717 [Eh]
	 SCS Correlation Energy    =      -0.8456725233792597 [Eh]
	 SCS Total Energy          =    -413.2220342601954144 [Eh]
	-----------------------------------------------------------

  Dipole Moment: [D]
     X:     2.0003      Y:     0.3793      Z:    -0.0445     Total:     2.0365

*** Psi4 exiting successfully. Buy a developer a beer!
