                               Psi4 1.4a3.dev225

  ==> Input File <==

--------------------------------------------------------------------------
#psi4
#
memory 32 gb

molecule  {
0 1
  I       -1.0508630    -0.0327020     0.0000010
  C        1.9876030    -0.5024530    -0.0000080
  C        0.9983820     0.6513080    -0.0000070
  C        3.4267560     0.0178820     0.0000080
  H        1.8145770    -1.1305720     0.8787430
  H        1.8145880    -1.1305600    -0.8787710
  H        1.1186434     1.3879988    -1.0527744
  H        1.1000140     1.2738370     0.8896040
  H        4.1383040    -0.8116210    -0.0000480
  H        3.6258980     0.6289730    -0.8845580
  H        3.6259130     0.6288710     0.8846400
units angstrom
no_reorient  #important for SAPT in psi4, default
symmetry c1  #important for SAPT in psi4, default
}

set PROPERTIES_ORIGIN ["COM"]
properties('MP2/aug-cc-pvtz', properties = ['dipole'])
--------------------------------------------------------------------------

    Molecular point group: c1
  Charge       = 0
  Multiplicity = 1
  Basis Set: AUG-CC-PVTZ
    Blend: AUG-CC-PVTZ
  Basis Set: (AUG-CC-PVTZ AUX)
    Blend: AUG-CC-PVTZ-JKFIT + DEF2-UNIVERSAL-JKFIT

    Orbital Energies [Eh]
    ---------------------

    Doubly Occupied:

       1A    -11.305191     2A    -11.243262     3A    -11.228379
       4A     -7.707894     5A     -5.539188     6A     -5.530215
       7A     -5.530160     8A     -2.268488     9A     -2.264095
      10A     -2.264042    11A     -2.254085    12A     -2.254084
      13A     -1.080421    14A     -0.957160    15A     -0.856476
      16A     -0.795650    17A     -0.648168    18A     -0.595058
      19A     -0.559955    20A     -0.546651    21A     -0.506979
      22A     -0.489791    23A     -0.431813    24A     -0.357644
      25A     -0.355397

  @DF-RHF Final Energy:  -412.36738277143087

   => Energetics <=

    Nuclear Repulsion Energy =            181.6961672074266971
    One-Electron Energy =               -1032.9866089231211390
    Two-Electron Energy =                 438.9230589442635733
    Total Energy =                       -412.3673827714308686
  Basis Set: (AUG-CC-PVTZ AUX)
    Blend: AUG-CC-PVTZ-RI + DEF2-QZVPP-RI
    Molecular point group: c1

    Geometry (in Angstrom), charge = 0, multiplicity = 1:

       Center              X                  Y                   Z               Mass
    ------------   -----------------  -----------------  -----------------  -----------------
         I           -0.821199137053    -0.025078807779     0.000968280480   126.904471900000
         C            2.217266862947    -0.494829807779     0.000959280480    12.000000000000
         C            1.228045862947     0.658931192221     0.000960280480    12.000000000000
         C            3.656419862947     0.025505192221     0.000975280480    12.000000000000
         H            2.044240862947    -1.122948807779     0.879710280480     1.007825032230
         H            2.044251862947    -1.122936807779    -0.877803719520     1.007825032230
         H            1.348307262947     1.395621992221    -1.051807119520     1.007825032230
         H            1.329677862947     1.281460192221     0.890571280480     1.007825032230
         H            4.367967862947    -0.803997807779     0.000919280480     1.007825032230
         H            3.855561862947     0.636596192221    -0.883590719520     1.007825032230
         H            3.855576862947     0.636494192221     0.885607280480     1.007825032230

  Basis Set: AUG-CC-PVTZ
    Blend: AUG-CC-PVTZ
  Basis Set: (AUG-CC-PVTZ AUX)
    Blend: AUG-CC-PVTZ-JKFIT + DEF2-UNIVERSAL-JKFIT
	 Reference Energy          =    -412.3673827714308686 [Eh]
	 Singles Energy            =      -0.0000000000000000 [Eh]
	 Same-Spin Energy          =      -0.2016795020755018 [Eh]
	 Opposite-Spin Energy      =      -0.6497112121110371 [Eh]
	 Correlation Energy        =      -0.8513907141865389 [Eh]
	 Total Energy              =    -413.2187734856174188 [Eh]

	 ================> DF-SCS-MP2 Energies <==================
	-----------------------------------------------------------
	 SCS Same-Spin Scale       =       0.3333333333333333 [-]
	 SCS Opposite-Spin Scale   =       1.2000000000000000 [-]
	 SCS Same-Spin Energy      =      -0.0672265006918339 [Eh]
	 SCS Opposite-Spin Energy  =      -0.7796534545332445 [Eh]
	 SCS Correlation Energy    =      -0.8468799552250784 [Eh]
	 SCS Total Energy          =    -413.2142627266559316 [Eh]
	-----------------------------------------------------------

  Dipole Moment: [D]
     X:     2.0022      Y:     0.2838      Z:     0.0393     Total:     2.0226

*** Psi4 exiting successfully. Buy a developer a beer!
