                               Psi4 1.4a3.dev225

  ==> Input File <==

--------------------------------------------------------------------------
#psi4
#
memory 32 gb

molecule  {
0 1
  I       -1.0508630    -0.0327020     0.0000010
  C        1.9876030    -0.5024530    -0.0000080
  C        0.9983820     0.6513080    -0.0000070
  C        3.4267560     0.0178820     0.0000080
  H        1.8145770    -1.1305720     0.8787430
  H        1.8145880    -1.1305600    -0.8787710
  H        1.1000060     1.2738310    -0.8896230
  H        1.1000140     1.2738370     0.8896040
  H        4.1383040    -0.8116210    -0.0000480
  H        3.6258980     0.6289730    -0.8845580
  H        3.5894844     0.5171125     0.7228284
units angstrom
no_reorient  #important for SAPT in psi4, default
symmetry c1  #important for SAPT in psi4, default
}

set PROPERTIES_ORIGIN ["COM"]
properties('MP2/aug-cc-pvtz', properties = ['dipole'])
--------------------------------------------------------------------------

    Molecular point group: c1
  Charge       = 0
  Multiplicity = 1
  Basis Set: AUG-CC-PVTZ
    Blend: AUG-CC-PVTZ
  Basis Set: (AUG-CC-PVTZ AUX)
    Blend: AUG-CC-PVTZ-JKFIT + DEF2-UNIVERSAL-JKFIT

    Orbital Energies [Eh]
    ---------------------

    Doubly Occupied:

       1A    -11.284546     2A    -11.239596     3A    -11.203387
       4A     -7.706360     5A     -5.537565     6A     -5.528735
       7A     -5.528684     8A     -2.266843     9A     -2.262512
      10A     -2.262461    11A     -2.252669    12A     -2.252668
      13A     -1.089065    14A     -0.976989    15A     -0.865668
      16A     -0.810352    17A     -0.664631    18A     -0.605566
      19A     -0.581785    20A     -0.556292    21A     -0.512302
      22A     -0.498518    23A     -0.432115    24A     -0.356421
      25A     -0.356334

  @DF-RHF Final Energy:  -412.35391351623002

   => Energetics <=

    Nuclear Repulsion Energy =            183.4818085416045506
    One-Electron Energy =               -1036.4073098250073599
    Two-Electron Energy =                 440.5715877671727867
    Total Energy =                       -412.3539135162300227
  Basis Set: (AUG-CC-PVTZ AUX)
    Blend: AUG-CC-PVTZ-RI + DEF2-QZVPP-RI
    Molecular point group: c1

    Geometry (in Angstrom), charge = 0, multiplicity = 1:

       Center              X                  Y                   Z               Mass
    ------------   -----------------  -----------------  -----------------  -----------------
         I           -0.820872606463    -0.023739109090     0.000960335729   126.904471900000
         C            2.217593393537    -0.493490109090     0.000951335729    12.000000000000
         C            1.228372393537     0.660270890910     0.000952335729    12.000000000000
         C            3.656746393537     0.026844890910     0.000967335729    12.000000000000
         H            2.044567393537    -1.121609109090     0.879702335729     1.007825032230
         H            2.044578393537    -1.121597109090    -0.877811664271     1.007825032230
         H            1.329996393537     1.282793890910    -0.888663664271     1.007825032230
         H            1.330004393537     1.282799890910     0.890563335729     1.007825032230
         H            4.368294393537    -0.802658109090     0.000911335729     1.007825032230
         H            3.855888393537     0.637935890910    -0.883598664271     1.007825032230
         H            3.819474793537     0.526075390910     0.723787735729     1.007825032230

  Basis Set: AUG-CC-PVTZ
    Blend: AUG-CC-PVTZ
  Basis Set: (AUG-CC-PVTZ AUX)
    Blend: AUG-CC-PVTZ-JKFIT + DEF2-UNIVERSAL-JKFIT
	 Reference Energy          =    -412.3539135162300227 [Eh]
	 Singles Energy            =      -0.0000000000000000 [Eh]
	 Same-Spin Energy          =      -0.2014565320454150 [Eh]
	 Opposite-Spin Energy      =      -0.6471751955234656 [Eh]
	 Correlation Energy        =      -0.8486317275688806 [Eh]
	 Total Energy              =    -413.2025452437989088 [Eh]

	 ================> DF-SCS-MP2 Energies <==================
	-----------------------------------------------------------
	 SCS Same-Spin Scale       =       0.3333333333333333 [-]
	 SCS Opposite-Spin Scale   =       1.2000000000000000 [-]
	 SCS Same-Spin Energy      =      -0.0671521773484717 [Eh]
	 SCS Opposite-Spin Energy  =      -0.7766102346281587 [Eh]
	 SCS Correlation Energy    =      -0.8437624119766304 [Eh]
	 SCS Total Energy          =    -413.1976759282066496 [Eh]
	-----------------------------------------------------------

  Dipole Moment: [D]
     X:     2.0826      Y:     0.4086      Z:     0.0634     Total:     2.1232

*** Psi4 exiting successfully. Buy a developer a beer!
