                               Psi4 1.4a3.dev225

  ==> Input File <==

--------------------------------------------------------------------------
#psi4
#
memory 32 gb

molecule  {
0 1
  I       -1.0508630    -0.0327020     0.0000010
  C        1.9876030    -0.5024530    -0.0000080
  C        1.0309269     0.6133498    -0.0000070
  C        3.4267560     0.0178820     0.0000080
  H        1.8145770    -1.1305720     0.8787430
  H        1.8145880    -1.1305600    -0.8787710
  H        1.1000060     1.2738310    -0.8896230
  H        1.1000140     1.2738370     0.8896040
  H        4.1383040    -0.8116210    -0.0000480
  H        3.6258980     0.6289730    -0.8845580
  H        3.6259130     0.6288710     0.8846400
units angstrom
no_reorient  #important for SAPT in psi4, default
symmetry c1  #important for SAPT in psi4, default
}

set PROPERTIES_ORIGIN ["COM"]
properties('MP2/aug-cc-pvtz', properties = ['dipole'])
--------------------------------------------------------------------------

    Molecular point group: c1
  Charge       = 0
  Multiplicity = 1
  Basis Set: AUG-CC-PVTZ
    Blend: AUG-CC-PVTZ
  Basis Set: (AUG-CC-PVTZ AUX)
    Blend: AUG-CC-PVTZ-JKFIT + DEF2-UNIVERSAL-JKFIT

    Orbital Energies [Eh]
    ---------------------

    Doubly Occupied:

       1A    -11.287997     2A    -11.239385     3A    -11.229865
       4A     -7.705308     5A     -5.536438     6A     -5.527721
       7A     -5.527635     8A     -2.265616     9A     -2.261421
      10A     -2.261339    11A     -2.251665    12A     -2.251663
      13A     -1.093245    14A     -0.961258    15A     -0.858422
      16A     -0.804872    17A     -0.659836    18A     -0.603283
      19A     -0.562364    20A     -0.562140    21A     -0.514377
      22A     -0.492897    23A     -0.426499    24A     -0.356909
      25A     -0.355167

  @DF-RHF Final Energy:  -412.38574279259319

   => Energetics <=

    Nuclear Repulsion Energy =            182.7880617571487107
    One-Electron Energy =               -1035.1529642927969235
    Two-Electron Energy =                 439.9791597430549928
    Total Energy =                       -412.3857427925931916
  Basis Set: (AUG-CC-PVTZ AUX)
    Blend: AUG-CC-PVTZ-RI + DEF2-QZVPP-RI
    Molecular point group: c1

    Geometry (in Angstrom), charge = 0, multiplicity = 1:

       Center              X                  Y                   Z               Mass
    ------------   -----------------  -----------------  -----------------  -----------------
         I           -0.823386458825    -0.021721770275     0.000000824648   126.904471900000
         C            2.215079541175    -0.491472770275    -0.000008175352    12.000000000000
         C            1.258403441175     0.624330029725    -0.000007175352    12.000000000000
         C            3.654232541175     0.028862229725     0.000007824648    12.000000000000
         H            2.042053541175    -1.119591770275     0.878742824648     1.007825032230
         H            2.042064541175    -1.119579770275    -0.878771175352     1.007825032230
         H            1.327482541175     1.284811229725    -0.889623175352     1.007825032230
         H            1.327490541175     1.284817229725     0.889603824648     1.007825032230
         H            4.365780541175    -0.800640770275    -0.000048175352     1.007825032230
         H            3.853374541175     0.639953229725    -0.884558175352     1.007825032230
         H            3.853389541175     0.639851229725     0.884639824648     1.007825032230

  Basis Set: AUG-CC-PVTZ
    Blend: AUG-CC-PVTZ
  Basis Set: (AUG-CC-PVTZ AUX)
    Blend: AUG-CC-PVTZ-JKFIT + DEF2-UNIVERSAL-JKFIT
	 Reference Energy          =    -412.3857427925931916 [Eh]
	 Singles Energy            =      -0.0000000000000000 [Eh]
	 Same-Spin Energy          =      -0.2016840394987864 [Eh]
	 Opposite-Spin Energy      =      -0.6479759463279757 [Eh]
	 Correlation Energy        =      -0.8496599858267622 [Eh]
	 Total Energy              =    -413.2354027784199388 [Eh]

	 ================> DF-SCS-MP2 Energies <==================
	-----------------------------------------------------------
	 SCS Same-Spin Scale       =       0.3333333333333333 [-]
	 SCS Opposite-Spin Scale   =       1.2000000000000000 [-]
	 SCS Same-Spin Energy      =      -0.0672280131662621 [Eh]
	 SCS Opposite-Spin Energy  =      -0.7775711355935708 [Eh]
	 SCS Correlation Energy    =      -0.8447991487598330 [Eh]
	 SCS Total Energy          =    -413.2305419413530103 [Eh]
	-----------------------------------------------------------

  Dipole Moment: [D]
     X:     2.1226      Y:     0.3573      Z:    -0.0000     Total:     2.1525

*** Psi4 exiting successfully. Buy a developer a beer!
