                               Psi4 1.4a3.dev225

  ==> Input File <==

--------------------------------------------------------------------------
#psi4
#
memory 32 gb

molecule  {
0 1
  I       -1.0508630    -0.0327020     0.0000010
  C        1.9876030    -0.5024530    -0.0000080
  C        0.9983820     0.6513080    -0.0000070
  C        3.2386720    -0.0501210     0.0000059
  H        1.8145770    -1.1305720     0.8787430
  H        1.8145880    -1.1305600    -0.8787710
  H        1.1000060     1.2738310    -0.8896230
  H        1.1000140     1.2738370     0.8896040
  H        4.1383040    -0.8116210    -0.0000480
  H        3.6258980     0.6289730    -0.8845580
  H        3.6259130     0.6288710     0.8846400
units angstrom
no_reorient  #important for SAPT in psi4, default
symmetry c1  #important for SAPT in psi4, default
}

set PROPERTIES_ORIGIN ["COM"]
properties('MP2/aug-cc-pvtz', properties = ['dipole'])
--------------------------------------------------------------------------

    Molecular point group: c1
  Charge       = 0
  Multiplicity = 1
  Basis Set: AUG-CC-PVTZ
    Blend: AUG-CC-PVTZ
  Basis Set: (AUG-CC-PVTZ AUX)
    Blend: AUG-CC-PVTZ-JKFIT + DEF2-UNIVERSAL-JKFIT

    Orbital Energies [Eh]
    ---------------------

    Doubly Occupied:

       1A    -11.286536     2A    -11.242784     3A    -11.232601
       4A     -7.707476     5A     -5.538692     6A     -5.529846
       7A     -5.529800     8A     -2.267973     9A     -2.263632
      10A     -2.263587    11A     -2.253776    12A     -2.253775
      13A     -1.122516    14A     -0.970512    15A     -0.844175
      16A     -0.807916    17A     -0.669407    18A     -0.615972
      19A     -0.596971    20A     -0.562321    21A     -0.476003
      22A     -0.459477    23A     -0.436663    24A     -0.358026
      25A     -0.357332

  @DF-RHF Final Energy:  -412.33948003537643

   => Energetics <=

    Nuclear Repulsion Energy =            185.4591529679755411
    One-Electron Energy =               -1040.3017288353873937
    Two-Electron Energy =                 442.5030958320353989
    Total Energy =                       -412.3394800353764253
  Basis Set: (AUG-CC-PVTZ AUX)
    Blend: AUG-CC-PVTZ-RI + DEF2-QZVPP-RI
    Molecular point group: c1

    Geometry (in Angstrom), charge = 0, multiplicity = 1:

       Center              X                  Y                   Z               Mass
    ------------   -----------------  -----------------  -----------------  -----------------
         I           -0.807808919828    -0.019600452335     0.000000972919   126.904471900000
         C            2.230657080172    -0.489351452335    -0.000008027081    12.000000000000
         C            1.241436080172     0.664409547665    -0.000007027081    12.000000000000
         C            3.481726080172    -0.037019452335     0.000005872919    12.000000000000
         H            2.057631080172    -1.117470452335     0.878742972919     1.007825032230
         H            2.057642080172    -1.117458452335    -0.878771027081     1.007825032230
         H            1.343060080172     1.286932547665    -0.889623027081     1.007825032230
         H            1.343068080172     1.286938547665     0.889603972919     1.007825032230
         H            4.381358080172    -0.798519452335    -0.000048027081     1.007825032230
         H            3.868952080172     0.642074547665    -0.884558027081     1.007825032230
         H            3.868967080172     0.641972547665     0.884639972919     1.007825032230

  Basis Set: AUG-CC-PVTZ
    Blend: AUG-CC-PVTZ
  Basis Set: (AUG-CC-PVTZ AUX)
    Blend: AUG-CC-PVTZ-JKFIT + DEF2-UNIVERSAL-JKFIT
	 Reference Energy          =    -412.3394800353764253 [Eh]
	 Singles Energy            =      -0.0000000000000000 [Eh]
	 Same-Spin Energy          =      -0.2040371477523167 [Eh]
	 Opposite-Spin Energy      =      -0.6513545708565228 [Eh]
	 Correlation Energy        =      -0.8553917186088396 [Eh]
	 Total Energy              =    -413.1948717539852396 [Eh]

	 ================> DF-SCS-MP2 Energies <==================
	-----------------------------------------------------------
	 SCS Same-Spin Scale       =       0.3333333333333333 [-]
	 SCS Opposite-Spin Scale   =       1.2000000000000000 [-]
	 SCS Same-Spin Energy      =      -0.0680123825841056 [Eh]
	 SCS Opposite-Spin Energy  =      -0.7816254850278274 [Eh]
	 SCS Correlation Energy    =      -0.8496378676119329 [Eh]
	 SCS Total Energy          =    -413.1891179029883574 [Eh]
	-----------------------------------------------------------

  Dipole Moment: [D]
     X:     1.9768      Y:     0.3084      Z:    -0.0000     Total:     2.0008

*** Psi4 exiting successfully. Buy a developer a beer!
