                               Psi4 1.4a3.dev225

  ==> Input File <==

--------------------------------------------------------------------------
#psi4
#
memory 32 gb

molecule  {
0 1
  I       -1.0508630    -0.0327020     0.0000010
  C        1.9876030    -0.5024530    -0.0000080
  C        0.9983820     0.6513080    -0.0000070
  C        3.4737770     0.0348827     0.0000085
  H        1.8145770    -1.1305720     0.8787430
  H        1.8145880    -1.1305600    -0.8787710
  H        1.1000060     1.2738310    -0.8896230
  H        1.1000140     1.2738370     0.8896040
  H        4.1383040    -0.8116210    -0.0000480
  H        3.6258980     0.6289730    -0.8845580
  H        3.6259130     0.6288710     0.8846400
units angstrom
no_reorient  #important for SAPT in psi4, default
symmetry c1  #important for SAPT in psi4, default
}

set PROPERTIES_ORIGIN ["COM"]
properties('MP2/aug-cc-pvtz', properties = ['dipole'])
--------------------------------------------------------------------------

    Molecular point group: c1
  Charge       = 0
  Multiplicity = 1
  Basis Set: AUG-CC-PVTZ
    Blend: AUG-CC-PVTZ
  Basis Set: (AUG-CC-PVTZ AUX)
    Blend: AUG-CC-PVTZ-JKFIT + DEF2-UNIVERSAL-JKFIT

    Orbital Energies [Eh]
    ---------------------

    Doubly Occupied:

       1A    -11.284615     2A    -11.243174     3A    -11.226852
       4A     -7.706386     5A     -5.537585     6A     -5.528768
       7A     -5.528709     8A     -2.266862     9A     -2.262539
      10A     -2.262480    11A     -2.252703    12A     -2.252702
      13A     -1.077959    14A     -0.962449    15A     -0.857960
      16A     -0.806889    17A     -0.657088    18A     -0.598830
      19A     -0.572440    20A     -0.544558    21A     -0.512595
      22A     -0.500367    23A     -0.429022    24A     -0.356349
      25A     -0.356315

  @DF-RHF Final Energy:  -412.38666398266514

   => Energetics <=

    Nuclear Repulsion Energy =            181.9161889218899262
    One-Electron Energy =               -1033.4333144328766139
    Two-Electron Energy =                 439.1304615283215753
    Total Energy =                       -412.3866639826651408
  Basis Set: (AUG-CC-PVTZ AUX)
    Blend: AUG-CC-PVTZ-RI + DEF2-QZVPP-RI
    Molecular point group: c1

    Geometry (in Angstrom), charge = 0, multiplicity = 1:

       Center              X                  Y                   Z               Mass
    ------------   -----------------  -----------------  -----------------  -----------------
         I           -0.824408546196    -0.025602152256     0.000000789345   126.904471900000
         C            2.214057453804    -0.495353152256    -0.000008210655    12.000000000000
         C            1.224836453804     0.658407847744    -0.000007210655    12.000000000000
         C            3.700231453804     0.041982547744     0.000008289345    12.000000000000
         H            2.041031453804    -1.123472152256     0.878742789345     1.007825032230
         H            2.041042453804    -1.123460152256    -0.878771210655     1.007825032230
         H            1.326460453804     1.280930847744    -0.889623210655     1.007825032230
         H            1.326468453804     1.280936847744     0.889603789345     1.007825032230
         H            4.364758453804    -0.804521152256    -0.000048210655     1.007825032230
         H            3.852352453804     0.636072847744    -0.884558210655     1.007825032230
         H            3.852367453804     0.635970847744     0.884639789345     1.007825032230

  Basis Set: AUG-CC-PVTZ
    Blend: AUG-CC-PVTZ
  Basis Set: (AUG-CC-PVTZ AUX)
    Blend: AUG-CC-PVTZ-JKFIT + DEF2-UNIVERSAL-JKFIT
	 Reference Energy          =    -412.3866639826651408 [Eh]
	 Singles Energy            =      -0.0000000000000000 [Eh]
	 Same-Spin Energy          =      -0.2010503143727043 [Eh]
	 Opposite-Spin Energy      =      -0.6475305906030504 [Eh]
	 Correlation Energy        =      -0.8485809049757547 [Eh]
	 Total Energy              =    -413.2352448876408744 [Eh]

	 ================> DF-SCS-MP2 Energies <==================
	-----------------------------------------------------------
	 SCS Same-Spin Scale       =       0.3333333333333333 [-]
	 SCS Opposite-Spin Scale   =       1.2000000000000000 [-]
	 SCS Same-Spin Energy      =      -0.0670167714575681 [Eh]
	 SCS Opposite-Spin Energy  =      -0.7770367087236605 [Eh]
	 SCS Correlation Energy    =      -0.8440534801812286 [Eh]
	 SCS Total Energy          =    -413.2307174628463713 [Eh]
	-----------------------------------------------------------

  Dipole Moment: [D]
     X:     2.0433      Y:     0.3602      Z:    -0.0000     Total:     2.0748

*** Psi4 exiting successfully. Buy a developer a beer!
