                               Psi4 1.4a3.dev225

  ==> Input File <==

--------------------------------------------------------------------------
#psi4
#
memory 32 gb

molecule  {
0 1
  I       -1.0508630    -0.0327020     0.0000010
  C        1.9876030    -0.5024530    -0.0000080
  C        0.9983820     0.6513080    -0.0000070
  C        3.4267560     0.0178820     0.0000080
  H        1.8145770    -1.1305720     0.8787430
  H        1.8145880    -1.1305600    -0.8787710
  H        1.0844666     1.1786455    -0.9506823
  H        1.1000140     1.2738370     0.8896040
  H        4.1383040    -0.8116210    -0.0000480
  H        3.6258980     0.6289730    -0.8845580
  H        3.6259130     0.6288710     0.8846400
units angstrom
no_reorient  #important for SAPT in psi4, default
symmetry c1  #important for SAPT in psi4, default
}

set PROPERTIES_ORIGIN ["COM"]
properties('MP2/aug-cc-pvtz', properties = ['dipole'])
--------------------------------------------------------------------------

    Molecular point group: c1
  Charge       = 0
  Multiplicity = 1
  Basis Set: AUG-CC-PVTZ
    Blend: AUG-CC-PVTZ
  Basis Set: (AUG-CC-PVTZ AUX)
    Blend: AUG-CC-PVTZ-JKFIT + DEF2-UNIVERSAL-JKFIT

    Orbital Energies [Eh]
    ---------------------

    Doubly Occupied:

       1A    -11.285662     2A    -11.240827     3A    -11.228798
       4A     -7.705931     5A     -5.537096     6A     -5.528328
       7A     -5.528287     8A     -2.266373     9A     -2.262064
      10A     -2.262027    11A     -2.252304    12A     -2.252303
      13A     -1.084941    14A     -0.963520    15A     -0.855707
      16A     -0.804503    17A     -0.664471    18A     -0.595763
      19A     -0.573228    20A     -0.554243    21A     -0.505887
      22A     -0.495827    23A     -0.430882    24A     -0.356646
      25A     -0.355852

  @DF-RHF Final Energy:  -412.38711368834561

   => Energetics <=

    Nuclear Repulsion Energy =            182.6664295929164723
    One-Electron Energy =               -1034.9241504020005777
    Two-Electron Energy =                 439.8706071207384412
    Total Energy =                       -412.3871136883456074
  Basis Set: (AUG-CC-PVTZ AUX)
    Blend: AUG-CC-PVTZ-RI + DEF2-QZVPP-RI
    Molecular point group: c1

    Geometry (in Angstrom), charge = 0, multiplicity = 1:

       Center              X                  Y                   Z               Mass
    ------------   -----------------  -----------------  -----------------  -----------------
         I           -0.820996475325    -0.023837383732     0.000362894332   126.904471900000
         C            2.217469524675    -0.493588383732     0.000353894332    12.000000000000
         C            1.228248524675     0.660172616268     0.000354894332    12.000000000000
         C            3.656622524675     0.026746616268     0.000369894332    12.000000000000
         H            2.044443524675    -1.121707383732     0.879104894332     1.007825032230
         H            2.044454524675    -1.121695383732    -0.878409105668     1.007825032230
         H            1.314333124675     1.187510116268    -0.950320405668     1.007825032230
         H            1.329880524675     1.282701616268     0.889965894332     1.007825032230
         H            4.368170524675    -0.802756383732     0.000313894332     1.007825032230
         H            3.855764524675     0.637837616268    -0.884196105668     1.007825032230
         H            3.855779524675     0.637735616268     0.885001894332     1.007825032230

  Basis Set: AUG-CC-PVTZ
    Blend: AUG-CC-PVTZ
  Basis Set: (AUG-CC-PVTZ AUX)
    Blend: AUG-CC-PVTZ-JKFIT + DEF2-UNIVERSAL-JKFIT
	 Reference Energy          =    -412.3871136883456074 [Eh]
	 Singles Energy            =      -0.0000000000000000 [Eh]
	 Same-Spin Energy          =      -0.2013846399930553 [Eh]
	 Opposite-Spin Energy      =      -0.6477889896886766 [Eh]
	 Correlation Energy        =      -0.8491736296817318 [Eh]
	 Total Energy              =    -413.2362873180273368 [Eh]

	 ================> DF-SCS-MP2 Energies <==================
	-----------------------------------------------------------
	 SCS Same-Spin Scale       =       0.3333333333333333 [-]
	 SCS Opposite-Spin Scale   =       1.2000000000000000 [-]
	 SCS Same-Spin Energy      =      -0.0671282133310184 [Eh]
	 SCS Opposite-Spin Energy  =      -0.7773467876264119 [Eh]
	 SCS Correlation Energy    =      -0.8444750009574302 [Eh]
	 SCS Total Energy          =    -413.2315886893030097 [Eh]
	-----------------------------------------------------------

  Dipole Moment: [D]
     X:     2.0608      Y:     0.3420      Z:    -0.0203     Total:     2.0891

*** Psi4 exiting successfully. Buy a developer a beer!
