                               Psi4 1.4a3.dev225

  ==> Input File <==

--------------------------------------------------------------------------
#psi4
#
memory 32 gb

molecule  {
0 1
  I       -1.0508630    -0.0327020     0.0000010
  C        1.9876030    -0.5024530    -0.0000080
  C        0.9983820     0.6513080    -0.0000070
  C        3.4267560     0.0178820     0.0000080
  H        1.8145770    -1.1305720     0.8787430
  H        1.8145880    -1.1305600    -0.8787710
  H        1.0949417     1.2428103    -0.9110944
  H        1.1000140     1.2738370     0.8896040
  H        4.1383040    -0.8116210    -0.0000480
  H        3.6258980     0.6289730    -0.8845580
  H        3.6259130     0.6288710     0.8846400
units angstrom
no_reorient  #important for SAPT in psi4, default
symmetry c1  #important for SAPT in psi4, default
}

set PROPERTIES_ORIGIN ["COM"]
properties('MP2/aug-cc-pvtz', properties = ['dipole'])
--------------------------------------------------------------------------

    Molecular point group: c1
  Charge       = 0
  Multiplicity = 1
  Basis Set: AUG-CC-PVTZ
    Blend: AUG-CC-PVTZ
  Basis Set: (AUG-CC-PVTZ AUX)
    Blend: AUG-CC-PVTZ-JKFIT + DEF2-UNIVERSAL-JKFIT

    Orbital Energies [Eh]
    ---------------------

    Doubly Occupied:

       1A    -11.285067     2A    -11.241214     3A    -11.228686
       4A     -7.706351     5A     -5.537541     6A     -5.528736
       7A     -5.528687     8A     -2.266818     9A     -2.262497
      10A     -2.262448    11A     -2.252685    12A     -2.252684
      13A     -1.084285    14A     -0.963274    15A     -0.855697
      16A     -0.806444    17A     -0.660435    18A     -0.596556
      19A     -0.569848    20A     -0.555836    21A     -0.506915
      22A     -0.495483    23A     -0.432222    24A     -0.356597
      25A     -0.356396

  @DF-RHF Final Energy:  -412.38825811119847

   => Energetics <=

    Nuclear Repulsion Energy =            182.5974744246666717
    One-Electron Energy =               -1034.7846624088867884
    Two-Electron Energy =                 439.7989298730216774
    Total Energy =                       -412.3882581111984678
  Basis Set: (AUG-CC-PVTZ AUX)
    Blend: AUG-CC-PVTZ-RI + DEF2-QZVPP-RI
    Molecular point group: c1

    Geometry (in Angstrom), charge = 0, multiplicity = 1:

       Center              X                  Y                   Z               Mass
    ------------   -----------------  -----------------  -----------------  -----------------
         I           -0.821058590616    -0.024217868423     0.000128145842   126.904471900000
         C            2.217407409384    -0.493968868423     0.000119145842    12.000000000000
         C            1.228186409384     0.659792131577     0.000120145842    12.000000000000
         C            3.656560409384     0.026366131577     0.000135145842    12.000000000000
         H            2.044381409384    -1.122087868423     0.878870145842     1.007825032230
         H            2.044392409384    -1.122075868423    -0.878643854158     1.007825032230
         H            1.324746109384     1.251294431577    -0.910967254158     1.007825032230
         H            1.329818409384     1.282321131577     0.889731145842     1.007825032230
         H            4.368108409384    -0.803136868423     0.000079145842     1.007825032230
         H            3.855702409384     0.637457131577    -0.884430854158     1.007825032230
         H            3.855717409384     0.637355131577     0.884767145842     1.007825032230

  Basis Set: AUG-CC-PVTZ
    Blend: AUG-CC-PVTZ
  Basis Set: (AUG-CC-PVTZ AUX)
    Blend: AUG-CC-PVTZ-JKFIT + DEF2-UNIVERSAL-JKFIT
	 Reference Energy          =    -412.3882581111984678 [Eh]
	 Singles Energy            =      -0.0000000000000000 [Eh]
	 Same-Spin Energy          =      -0.2012897415016885 [Eh]
	 Opposite-Spin Energy      =      -0.6476689120928665 [Eh]
	 Correlation Energy        =      -0.8489586535945550 [Eh]
	 Total Energy              =    -413.2372167647930041 [Eh]

	 ================> DF-SCS-MP2 Energies <==================
	-----------------------------------------------------------
	 SCS Same-Spin Scale       =       0.3333333333333333 [-]
	 SCS Opposite-Spin Scale   =       1.2000000000000000 [-]
	 SCS Same-Spin Energy      =      -0.0670965805005628 [Eh]
	 SCS Opposite-Spin Energy  =      -0.7772026945114398 [Eh]
	 SCS Correlation Energy    =      -0.8442992750120026 [Eh]
	 SCS Total Energy          =    -413.2325573862104875 [Eh]
	-----------------------------------------------------------

  Dipole Moment: [D]
     X:     2.0488      Y:     0.3515      Z:    -0.0075     Total:     2.0787

*** Psi4 exiting successfully. Buy a developer a beer!
