                               Psi4 1.4a3.dev225

  ==> Input File <==

--------------------------------------------------------------------------
#psi4
#
memory 32 gb

molecule  {
0 1
  I       -1.0508630    -0.0327020     0.0000010
  C        2.0225308    -0.5744055     0.1387773
  C        0.9983820     0.6513080    -0.0000070
  C        3.4267560     0.0178820     0.0000080
  H        1.8145770    -1.1305720     0.8787430
  H        1.8145880    -1.1305600    -0.8787710
  H        1.1000060     1.2738310    -0.8896230
  H        1.1000140     1.2738370     0.8896040
  H        4.1383040    -0.8116210    -0.0000480
  H        3.6258980     0.6289730    -0.8845580
  H        3.6259130     0.6288710     0.8846400
units angstrom
no_reorient  #important for SAPT in psi4, default
symmetry c1  #important for SAPT in psi4, default
}

set PROPERTIES_ORIGIN ["COM"]
properties('MP2/aug-cc-pvtz', properties = ['dipole'])
--------------------------------------------------------------------------

    Molecular point group: c1
  Charge       = 0
  Multiplicity = 1
  Basis Set: AUG-CC-PVTZ
    Blend: AUG-CC-PVTZ
  Basis Set: (AUG-CC-PVTZ AUX)
    Blend: AUG-CC-PVTZ-JKFIT + DEF2-UNIVERSAL-JKFIT

    Orbital Energies [Eh]
    ---------------------

    Doubly Occupied:

       1A    -11.287778     2A    -11.244019     3A    -11.230735
       4A     -7.705023     5A     -5.536155     6A     -5.527457
       7A     -5.527379     8A     -2.265420     9A     -2.261155
      10A     -2.261071    11A     -2.251423    12A     -2.251421
      13A     -1.076654    14A     -0.961441    15A     -0.859891
      16A     -0.816095    17A     -0.658212    18A     -0.596664
      19A     -0.571393    20A     -0.562261    21A     -0.521876
      22A     -0.471077    23A     -0.429584    24A     -0.355440
      25A     -0.353532

  @DF-RHF Final Energy:  -412.35653354776213

   => Energetics <=

    Nuclear Repulsion Energy =            181.6512520092134650
    One-Electron Energy =               -1032.8492593731732541
    Two-Electron Energy =                 438.8414738161976061
    Total Energy =                       -412.3565335477621261
  Basis Set: (AUG-CC-PVTZ AUX)
    Blend: AUG-CC-PVTZ-RI + DEF2-QZVPP-RI
    Molecular point group: c1

    Geometry (in Angstrom), charge = 0, multiplicity = 1:

       Center              X                  Y                   Z               Mass
    ------------   -----------------  -----------------  -----------------  -----------------
         I           -0.823554703863    -0.019321597252    -0.009798133798   126.904471900000
         C            2.249839096137    -0.561025097252     0.128978166202    12.000000000000
         C            1.225690296137     0.664688402748    -0.009806133798    12.000000000000
         C            3.654064296137     0.031262402748    -0.009791133798    12.000000000000
         H            2.041885296137    -1.117191597252     0.868943866202     1.007825032230
         H            2.041896296137    -1.117179597252    -0.888570133798     1.007825032230
         H            1.327314296137     1.287211402748    -0.899422133798     1.007825032230
         H            1.327322296137     1.287217402748     0.879804866202     1.007825032230
         H            4.365612296137    -0.798240597252    -0.009847133798     1.007825032230
         H            3.853206296137     0.642353402748    -0.894357133798     1.007825032230
         H            3.853221296137     0.642251402748     0.874840866202     1.007825032230

  Basis Set: AUG-CC-PVTZ
    Blend: AUG-CC-PVTZ
  Basis Set: (AUG-CC-PVTZ AUX)
    Blend: AUG-CC-PVTZ-JKFIT + DEF2-UNIVERSAL-JKFIT
	 Reference Energy          =    -412.3565335477621261 [Eh]
	 Singles Energy            =      -0.0000000000000000 [Eh]
	 Same-Spin Energy          =      -0.2012826711706330 [Eh]
	 Opposite-Spin Energy      =      -0.6486722180327599 [Eh]
	 Correlation Energy        =      -0.8499548892033929 [Eh]
	 Total Energy              =    -413.2064884369655147 [Eh]

	 ================> DF-SCS-MP2 Energies <==================
	-----------------------------------------------------------
	 SCS Same-Spin Scale       =       0.3333333333333333 [-]
	 SCS Opposite-Spin Scale   =       1.2000000000000000 [-]
	 SCS Same-Spin Energy      =      -0.0670942237235443 [Eh]
	 SCS Opposite-Spin Energy  =      -0.7784066616393118 [Eh]
	 SCS Correlation Energy    =      -0.8455008853628562 [Eh]
	 SCS Total Energy          =    -413.2020344331249930 [Eh]
	-----------------------------------------------------------

  Dipole Moment: [D]
     X:     2.1260      Y:     0.3764      Z:     0.0403     Total:     2.1595

*** Psi4 exiting successfully. Buy a developer a beer!
