                               Psi4 1.4a3.dev225

  ==> Input File <==

--------------------------------------------------------------------------
#psi4
#
memory 32 gb

molecule  {
0 1
  I       -1.0508630    -0.0327020     0.0000010
  C        1.9876030    -0.5024530    -0.0000080
  C        0.9332921     0.7272245    -0.0000069
  C        3.4267560     0.0178820     0.0000080
  H        1.8145770    -1.1305720     0.8787430
  H        1.8145880    -1.1305600    -0.8787710
  H        1.1000060     1.2738310    -0.8896230
  H        1.1000140     1.2738370     0.8896040
  H        4.1383040    -0.8116210    -0.0000480
  H        3.6258980     0.6289730    -0.8845580
  H        3.6259130     0.6288710     0.8846400
units angstrom
no_reorient  #important for SAPT in psi4, default
symmetry c1  #important for SAPT in psi4, default
}

set PROPERTIES_ORIGIN ["COM"]
properties('MP2/aug-cc-pvtz', properties = ['dipole'])
--------------------------------------------------------------------------

    Molecular point group: c1
  Charge       = 0
  Multiplicity = 1
  Basis Set: AUG-CC-PVTZ
    Blend: AUG-CC-PVTZ
  Basis Set: (AUG-CC-PVTZ AUX)
    Blend: AUG-CC-PVTZ-JKFIT + DEF2-UNIVERSAL-JKFIT

    Orbital Energies [Eh]
    ---------------------

    Doubly Occupied:

       1A    -11.279510     2A    -11.245125     3A    -11.226980
       4A     -7.708841     5A     -5.540196     6A     -5.531157
       7A     -5.531148     8A     -2.269679     9A     -2.265081
      10A     -2.265077    11A     -2.255062    12A     -2.255060
      13A     -1.069563    14A     -0.967537    15A     -0.850976
      16A     -0.811565    17A     -0.658449    18A     -0.587584
      19A     -0.579138    20A     -0.546833    21A     -0.497320
      22A     -0.491994    23A     -0.443713    24A     -0.358817
      25A     -0.354885

  @DF-RHF Final Energy:  -412.38145630551003

   => Energetics <=

    Nuclear Repulsion Energy =            182.1576215218206016
    One-Electron Energy =               -1033.8955763383567046
    Two-Electron Energy =                 439.3564985110260750
    Total Energy =                       -412.3814563055100280
  Basis Set: (AUG-CC-PVTZ AUX)
    Blend: AUG-CC-PVTZ-RI + DEF2-QZVPP-RI
    Molecular point group: c1

    Geometry (in Angstrom), charge = 0, multiplicity = 1:

       Center              X                  Y                   Z               Mass
    ------------   -----------------  -----------------  -----------------  -----------------
         I           -0.816492938056    -0.029761911798     0.000000817587   126.904471900000
         C            2.221973061944    -0.499512911798    -0.000008182413    12.000000000000
         C            1.167662161944     0.730164588202    -0.000007082413    12.000000000000
         C            3.661126061944     0.020822088202     0.000007817587    12.000000000000
         H            2.048947061944    -1.127631911798     0.878742817587     1.007825032230
         H            2.048958061944    -1.127619911798    -0.878771182413     1.007825032230
         H            1.334376061944     1.276771088202    -0.889623182413     1.007825032230
         H            1.334384061944     1.276777088202     0.889603817587     1.007825032230
         H            4.372674061944    -0.808680911798    -0.000048182413     1.007825032230
         H            3.860268061944     0.631913088202    -0.884558182413     1.007825032230
         H            3.860283061944     0.631811088202     0.884639817587     1.007825032230

  Basis Set: AUG-CC-PVTZ
    Blend: AUG-CC-PVTZ
  Basis Set: (AUG-CC-PVTZ AUX)
    Blend: AUG-CC-PVTZ-JKFIT + DEF2-UNIVERSAL-JKFIT
	 Reference Energy          =    -412.3814563055100280 [Eh]
	 Singles Energy            =      -0.0000000000000000 [Eh]
	 Same-Spin Energy          =      -0.2009534434550769 [Eh]
	 Opposite-Spin Energy      =      -0.6478709348321037 [Eh]
	 Correlation Energy        =      -0.8488243782871805 [Eh]
	 Total Energy              =    -413.2302806837972184 [Eh]

	 ================> DF-SCS-MP2 Energies <==================
	-----------------------------------------------------------
	 SCS Same-Spin Scale       =       0.3333333333333333 [-]
	 SCS Opposite-Spin Scale   =       1.2000000000000000 [-]
	 SCS Same-Spin Energy      =      -0.0669844811516923 [Eh]
	 SCS Opposite-Spin Energy  =      -0.7774451217985244 [Eh]
	 SCS Correlation Energy    =      -0.8444296029502167 [Eh]
	 SCS Total Energy          =    -413.2258859084602705 [Eh]
	-----------------------------------------------------------

  Dipole Moment: [D]
     X:     1.9215      Y:     0.3328      Z:    -0.0000     Total:     1.9501

*** Psi4 exiting successfully. Buy a developer a beer!
