                               Psi4 1.4a3.dev225

  ==> Input File <==

--------------------------------------------------------------------------
#psi4
#
memory 32 gb

molecule  {
0 1
  I       -1.0508630    -0.0327020     0.0000010
  C        1.9876030    -0.5024530    -0.0000080
  C        0.9983820     0.6513080    -0.0000070
  C        3.4267560     0.0178820     0.0000080
  H        1.8145770    -1.1305720     0.8787430
  H        1.8145880    -1.1305600    -0.8787710
  H        1.1000060     1.2738310    -0.8896230
  H        1.1000140     1.2738370     0.8896040
  H        4.2685198    -0.9634230    -0.0000582
  H        3.6258980     0.6289730    -0.8845580
  H        3.6259130     0.6288710     0.8846400
units angstrom
no_reorient  #important for SAPT in psi4, default
symmetry c1  #important for SAPT in psi4, default
}

set PROPERTIES_ORIGIN ["COM"]
properties('MP2/aug-cc-pvtz', properties = ['dipole'])
--------------------------------------------------------------------------

    Molecular point group: c1
  Charge       = 0
  Multiplicity = 1
  Basis Set: AUG-CC-PVTZ
    Blend: AUG-CC-PVTZ
  Basis Set: (AUG-CC-PVTZ AUX)
    Blend: AUG-CC-PVTZ-JKFIT + DEF2-UNIVERSAL-JKFIT

    Orbital Energies [Eh]
    ---------------------

    Doubly Occupied:

       1A    -11.286421     2A    -11.251596     3A    -11.243561
       4A     -7.708149     5A     -5.539402     6A     -5.530497
       7A     -5.530440     8A     -2.268684     9A     -2.264326
      10A     -2.264270    11A     -2.254396    12A     -2.254395
      13A     -1.083844    14A     -0.956653    15A     -0.850472
      16A     -0.808242    17A     -0.660529    18A     -0.580003
      19A     -0.570851    20A     -0.554181    21A     -0.497235
      22A     -0.488805    23A     -0.432331    24A     -0.358031
      25A     -0.357885

  @DF-RHF Final Energy:  -412.36862057516868

   => Energetics <=

    Nuclear Repulsion Energy =            181.8199012899077331
    One-Electron Energy =               -1033.1866419927528113
    Two-Electron Energy =                 438.9981201276763727
    Total Energy =                       -412.3686205751686771
  Basis Set: (AUG-CC-PVTZ AUX)
    Blend: AUG-CC-PVTZ-RI + DEF2-QZVPP-RI
    Molecular point group: c1

    Geometry (in Angstrom), charge = 0, multiplicity = 1:

       Center              X                  Y                   Z               Mass
    ------------   -----------------  -----------------  -----------------  -----------------
         I           -0.821860775101    -0.023501658981     0.000000885132   126.904471900000
         C            2.216605224899    -0.493252658981    -0.000008114868    12.000000000000
         C            1.227384224899     0.660508341019    -0.000007114868    12.000000000000
         C            3.655758224899     0.027082341019     0.000007885132    12.000000000000
         H            2.043579224899    -1.121371658981     0.878742885132     1.007825032230
         H            2.043590224899    -1.121359658981    -0.878771114868     1.007825032230
         H            1.329008224899     1.283031341019    -0.889623114868     1.007825032230
         H            1.329016224899     1.283037341019     0.889603885132     1.007825032230
         H            4.497522024899    -0.954222658981    -0.000058314868     1.007825032230
         H            3.854900224899     0.638173341019    -0.884558114868     1.007825032230
         H            3.854915224899     0.638071341019     0.884639885132     1.007825032230

  Basis Set: AUG-CC-PVTZ
    Blend: AUG-CC-PVTZ
  Basis Set: (AUG-CC-PVTZ AUX)
    Blend: AUG-CC-PVTZ-JKFIT + DEF2-UNIVERSAL-JKFIT
	 Reference Energy          =    -412.3686205751686771 [Eh]
	 Singles Energy            =      -0.0000000000000000 [Eh]
	 Same-Spin Energy          =      -0.2011733369685442 [Eh]
	 Opposite-Spin Energy      =      -0.6491170028470182 [Eh]
	 Correlation Energy        =      -0.8502903398155623 [Eh]
	 Total Energy              =    -413.2189109149842352 [Eh]

	 ================> DF-SCS-MP2 Energies <==================
	-----------------------------------------------------------
	 SCS Same-Spin Scale       =       0.3333333333333333 [-]
	 SCS Opposite-Spin Scale   =       1.2000000000000000 [-]
	 SCS Same-Spin Energy      =      -0.0670577789895147 [Eh]
	 SCS Opposite-Spin Energy  =      -0.7789404034164219 [Eh]
	 SCS Correlation Energy    =      -0.8459981824059366 [Eh]
	 SCS Total Energy          =    -413.2146187575746126 [Eh]
	-----------------------------------------------------------

  Dipole Moment: [D]
     X:     1.8730      Y:     0.4400      Z:    -0.0000     Total:     1.9240

*** Psi4 exiting successfully. Buy a developer a beer!
