                               Psi4 1.4a3.dev225

  ==> Input File <==

--------------------------------------------------------------------------
#psi4
#
memory 32 gb

molecule  {
0 1
  I       -1.0205068    -0.1070241     0.1276459
  C        1.9876030    -0.5024530    -0.0000080
  C        0.9983820     0.6513080    -0.0000070
  C        3.4267560     0.0178820     0.0000080
  H        1.8145770    -1.1305720     0.8787430
  H        1.8145880    -1.1305600    -0.8787710
  H        1.1000060     1.2738310    -0.8896230
  H        1.1000140     1.2738370     0.8896040
  H        4.1383040    -0.8116210    -0.0000480
  H        3.6258980     0.6289730    -0.8845580
  H        3.6259130     0.6288710     0.8846400
units angstrom
no_reorient  #important for SAPT in psi4, default
symmetry c1  #important for SAPT in psi4, default
}

set PROPERTIES_ORIGIN ["COM"]
properties('MP2/aug-cc-pvtz', properties = ['dipole'])
--------------------------------------------------------------------------

    Molecular point group: c1
  Charge       = 0
  Multiplicity = 1
  Basis Set: AUG-CC-PVTZ
    Blend: AUG-CC-PVTZ
  Basis Set: (AUG-CC-PVTZ AUX)
    Blend: AUG-CC-PVTZ-JKFIT + DEF2-UNIVERSAL-JKFIT

    Orbital Energies [Eh]
    ---------------------

    Doubly Occupied:

       1A    -11.284882     2A    -11.240819     3A    -11.227996
       4A     -7.706586     5A     -5.537803     6A     -5.528948
       7A     -5.528911     8A     -2.267085     9A     -2.262743
      10A     -2.262706    11A     -2.252886    12A     -2.252884
      13A     -1.084245    14A     -0.962827    15A     -0.854393
      16A     -0.808700    17A     -0.658467    18A     -0.596549
      19A     -0.567794    20A     -0.557034    21A     -0.507063
      22A     -0.494892    23A     -0.432652    24A     -0.356876
      25A     -0.356271

  @DF-RHF Final Energy:  -412.38761841392989

   => Energetics <=

    Nuclear Repulsion Energy =            183.1105700196259818
    One-Electron Energy =               -1035.8123520458436815
    Two-Electron Energy =                 440.3141636122877571
    Total Energy =                       -412.3876184139298857
  Basis Set: (AUG-CC-PVTZ AUX)
    Blend: AUG-CC-PVTZ-RI + DEF2-QZVPP-RI
    Molecular point group: c1

    Geometry (in Angstrom), charge = 0, multiplicity = 1:

       Center              X                  Y                   Z               Mass
    ------------   -----------------  -----------------  -----------------  -----------------
         I           -0.813398663537    -0.043229395024     0.032336355495   126.904471900000
         C            2.194711136463    -0.438658295024    -0.095317544505    12.000000000000
         C            1.205490136463     0.715102704976    -0.095316544505    12.000000000000
         C            3.633864136463     0.081676704976    -0.095301544505    12.000000000000
         H            2.021685136463    -1.066777295024     0.783433455495     1.007825032230
         H            2.021696136463    -1.066765295024    -0.974080544505     1.007825032230
         H            1.307114136463     1.337625704976    -0.984932544505     1.007825032230
         H            1.307122136463     1.337631704976     0.794294455495     1.007825032230
         H            4.345412136463    -0.747826295024    -0.095357544505     1.007825032230
         H            3.833006136463     0.692767704976    -0.979867544505     1.007825032230
         H            3.833021136463     0.692665704976     0.789330455495     1.007825032230

  Basis Set: AUG-CC-PVTZ
    Blend: AUG-CC-PVTZ
  Basis Set: (AUG-CC-PVTZ AUX)
    Blend: AUG-CC-PVTZ-JKFIT + DEF2-UNIVERSAL-JKFIT
	 Reference Energy          =    -412.3876184139298857 [Eh]
	 Singles Energy            =      -0.0000000000000000 [Eh]
	 Same-Spin Energy          =      -0.2013887925264725 [Eh]
	 Opposite-Spin Energy      =      -0.6478545512760199 [Eh]
	 Correlation Energy        =      -0.8492433438024923 [Eh]
	 Total Energy              =    -413.2368617577323562 [Eh]

	 ================> DF-SCS-MP2 Energies <==================
	-----------------------------------------------------------
	 SCS Same-Spin Scale       =       0.3333333333333333 [-]
	 SCS Opposite-Spin Scale   =       1.2000000000000000 [-]
	 SCS Same-Spin Energy      =      -0.0671295975088241 [Eh]
	 SCS Opposite-Spin Energy  =      -0.7774254615312238 [Eh]
	 SCS Correlation Energy    =      -0.8445550590400480 [Eh]
	 SCS Total Energy          =    -413.2321734729699187 [Eh]
	-----------------------------------------------------------

  Dipole Moment: [D]
     X:     2.0151      Y:     0.3974      Z:    -0.0754     Total:     2.0553

*** Psi4 exiting successfully. Buy a developer a beer!
