                               Psi4 1.4a3.dev225

  ==> Input File <==

--------------------------------------------------------------------------
#psi4
#
memory 32 gb

molecule  {
0 1
  I       -1.0508630    -0.0327020     0.0000010
  C        1.9876030    -0.5024530    -0.0000080
  C        0.9983820     0.6513080    -0.0000070
  C        3.4267560     0.0178820     0.0000080
  H        1.8145770    -1.1305720     0.8787430
  H        1.8145880    -1.1305600    -0.8787710
  H        1.1000060     1.2738310    -0.8896230
  H        1.1000140     1.2738370     0.8896040
  H        4.1383040    -0.8116210    -0.0000480
  H        3.6076851     0.5730845    -0.8036583
  H        3.6259130     0.6288710     0.8846400
units angstrom
no_reorient  #important for SAPT in psi4, default
symmetry c1  #important for SAPT in psi4, default
}

set PROPERTIES_ORIGIN ["COM"]
properties('MP2/aug-cc-pvtz', properties = ['dipole'])
--------------------------------------------------------------------------

    Molecular point group: c1
  Charge       = 0
  Multiplicity = 1
  Basis Set: AUG-CC-PVTZ
    Blend: AUG-CC-PVTZ
  Basis Set: (AUG-CC-PVTZ AUX)
    Blend: AUG-CC-PVTZ-JKFIT + DEF2-UNIVERSAL-JKFIT

    Orbital Energies [Eh]
    ---------------------

    Doubly Occupied:

       1A    -11.284623     2A    -11.240364     3A    -11.215955
       4A     -7.706433     5A     -5.537637     6A     -5.528810
       7A     -5.528757     8A     -2.266914     9A     -2.262585
      10A     -2.262532    11A     -2.252744    12A     -2.252743
      13A     -1.085804    14A     -0.968777    15A     -0.860079
      16A     -0.808846    17A     -0.660978    18A     -0.599639
      19A     -0.576022    20A     -0.556534    21A     -0.509856
      22A     -0.497720    23A     -0.432411    24A     -0.356529
      25A     -0.356395

  @DF-RHF Final Energy:  -412.38212883086226

   => Energetics <=

    Nuclear Repulsion Energy =            182.9897092475581530
    One-Electron Energy =               -1035.5242964767940066
    Two-Electron Energy =                 440.1524583983735965
    Total Energy =                       -412.3821288308622570
  Basis Set: (AUG-CC-PVTZ AUX)
    Blend: AUG-CC-PVTZ-RI + DEF2-QZVPP-RI
    Molecular point group: c1

    Geometry (in Angstrom), charge = 0, multiplicity = 1:

       Center              X                  Y                   Z               Mass
    ------------   -----------------  -----------------  -----------------  -----------------
         I           -0.820980621994    -0.024070407242    -0.000478894721   126.904471900000
         C            2.217485378006    -0.493821407242    -0.000487894721    12.000000000000
         C            1.228264378006     0.659939592758    -0.000486894721    12.000000000000
         C            3.656638378006     0.026513592758    -0.000471894721    12.000000000000
         H            2.044459378006    -1.121940407242     0.878263105279     1.007825032230
         H            2.044470378006    -1.121928407242    -0.879250894721     1.007825032230
         H            1.329888378006     1.282462592758    -0.890102894721     1.007825032230
         H            1.329896378006     1.282468592758     0.889124105279     1.007825032230
         H            4.368186378006    -0.802989407242    -0.000527894721     1.007825032230
         H            3.837567478006     0.581716092758    -0.804138194721     1.007825032230
         H            3.855795378006     0.637502592758     0.884160105279     1.007825032230

  Basis Set: AUG-CC-PVTZ
    Blend: AUG-CC-PVTZ
  Basis Set: (AUG-CC-PVTZ AUX)
    Blend: AUG-CC-PVTZ-JKFIT + DEF2-UNIVERSAL-JKFIT
	 Reference Energy          =    -412.3821288308622570 [Eh]
	 Singles Energy            =      -0.0000000000000000 [Eh]
	 Same-Spin Energy          =      -0.2013317868487297 [Eh]
	 Opposite-Spin Energy      =      -0.6472327333582171 [Eh]
	 Correlation Energy        =      -0.8485645202069468 [Eh]
	 Total Energy              =    -413.2306933510691920 [Eh]

	 ================> DF-SCS-MP2 Energies <==================
	-----------------------------------------------------------
	 SCS Same-Spin Scale       =       0.3333333333333333 [-]
	 SCS Opposite-Spin Scale   =       1.2000000000000000 [-]
	 SCS Same-Spin Energy      =      -0.0671105956162432 [Eh]
	 SCS Opposite-Spin Energy  =      -0.7766792800298604 [Eh]
	 SCS Correlation Energy    =      -0.8437898756461036 [Eh]
	 SCS Total Energy          =    -413.2259187065083665 [Eh]
	-----------------------------------------------------------

  Dipole Moment: [D]
     X:     2.0661      Y:     0.3867      Z:    -0.0378     Total:     2.1023

*** Psi4 exiting successfully. Buy a developer a beer!
