                               Psi4 1.4a3.dev225

  ==> Input File <==

--------------------------------------------------------------------------
#psi4
#
memory 32 gb

molecule  {
0 1
  I       -1.0568968    -0.0135863    -0.0319345
  C        1.9876030    -0.5024530    -0.0000080
  C        0.9983820     0.6513080    -0.0000070
  C        3.4267560     0.0178820     0.0000080
  H        1.8145770    -1.1305720     0.8787430
  H        1.8145880    -1.1305600    -0.8787710
  H        1.1000060     1.2738310    -0.8896230
  H        1.1000140     1.2738370     0.8896040
  H        4.1383040    -0.8116210    -0.0000480
  H        3.6258980     0.6289730    -0.8845580
  H        3.6259130     0.6288710     0.8846400
units angstrom
no_reorient  #important for SAPT in psi4, default
symmetry c1  #important for SAPT in psi4, default
}

set PROPERTIES_ORIGIN ["COM"]
properties('MP2/aug-cc-pvtz', properties = ['dipole'])
--------------------------------------------------------------------------

    Molecular point group: c1
  Charge       = 0
  Multiplicity = 1
  Basis Set: AUG-CC-PVTZ
    Blend: AUG-CC-PVTZ
  Basis Set: (AUG-CC-PVTZ AUX)
    Blend: AUG-CC-PVTZ-JKFIT + DEF2-UNIVERSAL-JKFIT

    Orbital Energies [Eh]
    ---------------------

    Doubly Occupied:

       1A    -11.284727     2A    -11.241577     3A    -11.228787
       4A     -7.706572     5A     -5.537773     6A     -5.528954
       7A     -5.528893     8A     -2.267050     9A     -2.262726
      10A     -2.262666    11A     -2.252885    12A     -2.252884
      13A     -1.083950    14A     -0.963290    15A     -0.856023
      16A     -0.807143    17A     -0.658517    18A     -0.597126
      19A     -0.568142    20A     -0.556456    21A     -0.507580
      22A     -0.495236    23A     -0.432835    24A     -0.356784
      25A     -0.356404

  @DF-RHF Final Energy:  -412.38840739256153

   => Energetics <=

    Nuclear Repulsion Energy =            182.4419272412700934
    One-Electron Energy =               -1034.4707118591295512
    Two-Electron Energy =                 439.6403772252978683
    Total Energy =                       -412.3884073925615326
  Basis Set: (AUG-CC-PVTZ AUX)
    Blend: AUG-CC-PVTZ-RI + DEF2-QZVPP-RI
    Molecular point group: c1

    Geometry (in Angstrom), charge = 0, multiplicity = 1:

       Center              X                  Y                   Z               Mass
    ------------   -----------------  -----------------  -----------------  -----------------
         I           -0.822617127945    -0.019559347383    -0.008089207507   126.904471900000
         C            2.221882672055    -0.508426047383     0.023837292493    12.000000000000
         C            1.232661672055     0.645334952617     0.023838292493    12.000000000000
         C            3.661035672055     0.011908952617     0.023853292493    12.000000000000
         H            2.048856672055    -1.136545047383     0.902588292493     1.007825032230
         H            2.048867672055    -1.136533047383    -0.854925707507     1.007825032230
         H            1.334285672055     1.267857952617    -0.865777707507     1.007825032230
         H            1.334293672055     1.267863952617     0.913449292493     1.007825032230
         H            4.372583672055    -0.817594047383     0.023797292493     1.007825032230
         H            3.860177672055     0.622999952617    -0.860712707507     1.007825032230
         H            3.860192672055     0.622897952617     0.908485292493     1.007825032230

  Basis Set: AUG-CC-PVTZ
    Blend: AUG-CC-PVTZ
  Basis Set: (AUG-CC-PVTZ AUX)
    Blend: AUG-CC-PVTZ-JKFIT + DEF2-UNIVERSAL-JKFIT
	 Reference Energy          =    -412.3884073925615326 [Eh]
	 Singles Energy            =      -0.0000000000000000 [Eh]
	 Same-Spin Energy          =      -0.2012422067489536 [Eh]
	 Opposite-Spin Energy      =      -0.6476065782885165 [Eh]
	 Correlation Energy        =      -0.8488487850374702 [Eh]
	 Total Energy              =    -413.2372561775990221 [Eh]

	 ================> DF-SCS-MP2 Energies <==================
	-----------------------------------------------------------
	 SCS Same-Spin Scale       =       0.3333333333333333 [-]
	 SCS Opposite-Spin Scale   =       1.2000000000000000 [-]
	 SCS Same-Spin Energy      =      -0.0670807355829845 [Eh]
	 SCS Opposite-Spin Energy  =      -0.7771278939462198 [Eh]
	 SCS Correlation Energy    =      -0.8442086295292044 [Eh]
	 SCS Total Energy          =    -413.2326160220907241 [Eh]
	-----------------------------------------------------------

  Dipole Moment: [D]
     X:     2.0491      Y:     0.3453      Z:     0.0190     Total:     2.0781

*** Psi4 exiting successfully. Buy a developer a beer!
