                               Psi4 1.4a3.dev225

  ==> Input File <==

--------------------------------------------------------------------------
#psi4
#
memory 32 gb

molecule  {
0 1
  I       -1.0508630    -0.0327020     0.0000010
  C        1.9876030    -0.5024530    -0.0000080
  C        0.9983820     0.6513080    -0.0000070
  C        3.4267560     0.0178820     0.0000080
  H        1.8145770    -1.1305720     0.8787430
  H        1.8145880    -1.1305600    -0.8787710
  H        1.0906873     1.2167471    -0.8080473
  H        1.1000140     1.2738370     0.8896040
  H        4.1383040    -0.8116210    -0.0000480
  H        3.6258980     0.6289730    -0.8845580
  H        3.6259130     0.6288710     0.8846400
units angstrom
no_reorient  #important for SAPT in psi4, default
symmetry c1  #important for SAPT in psi4, default
}

set PROPERTIES_ORIGIN ["COM"]
properties('MP2/aug-cc-pvtz', properties = ['dipole'])
--------------------------------------------------------------------------

    Molecular point group: c1
  Charge       = 0
  Multiplicity = 1
  Basis Set: AUG-CC-PVTZ
    Blend: AUG-CC-PVTZ
  Basis Set: (AUG-CC-PVTZ AUX)
    Blend: AUG-CC-PVTZ-JKFIT + DEF2-UNIVERSAL-JKFIT

    Orbital Energies [Eh]
    ---------------------

    Doubly Occupied:

       1A    -11.273409     2A    -11.240795     3A    -11.228783
       4A     -7.706266     5A     -5.537433     6A     -5.528665
       7A     -5.528613     8A     -2.266701     9A     -2.262397
      10A     -2.262344    11A     -2.252623    12A     -2.252622
      13A     -1.087766    14A     -0.968528    15A     -0.855573
      16A     -0.816738    17A     -0.665706    18A     -0.599267
      19A     -0.574936    20A     -0.556788    21A     -0.507812
      22A     -0.496426    23A     -0.433424    24A     -0.357170
      25A     -0.356445

  @DF-RHF Final Energy:  -412.38255570153666

   => Energetics <=

    Nuclear Repulsion Energy =            183.0740280010349466
    One-Electron Energy =               -1035.6787023094204869
    Two-Electron Energy =                 440.2221186068488237
    Total Energy =                       -412.3825557015366599
  Basis Set: (AUG-CC-PVTZ AUX)
    Blend: AUG-CC-PVTZ-RI + DEF2-QZVPP-RI
    Molecular point group: c1

    Geometry (in Angstrom), charge = 0, multiplicity = 1:

       Center              X                  Y                   Z               Mass
    ------------   -----------------  -----------------  -----------------  -----------------
         I           -0.821033362857    -0.024063318755    -0.000482903269   126.904471900000
         C            2.217432637143    -0.493814318755    -0.000491903269    12.000000000000
         C            1.228211637143     0.659946681245    -0.000490903269    12.000000000000
         C            3.656585637143     0.026520681245    -0.000475903269    12.000000000000
         H            2.044406637143    -1.121933318755     0.878259096731     1.007825032230
         H            2.044417637143    -1.121921318755    -0.879254903269     1.007825032230
         H            1.320516937143     1.225385781245    -0.808531203269     1.007825032230
         H            1.329843637143     1.282475681245     0.889120096731     1.007825032230
         H            4.368133637143    -0.802982318755    -0.000531903269     1.007825032230
         H            3.855727637143     0.637611681245    -0.885041903269     1.007825032230
         H            3.855742637143     0.637509681245     0.884156096731     1.007825032230

  Basis Set: AUG-CC-PVTZ
    Blend: AUG-CC-PVTZ
  Basis Set: (AUG-CC-PVTZ AUX)
    Blend: AUG-CC-PVTZ-JKFIT + DEF2-UNIVERSAL-JKFIT
	 Reference Energy          =    -412.3825557015366599 [Eh]
	 Singles Energy            =      -0.0000000000000000 [Eh]
	 Same-Spin Energy          =      -0.2011085892384844 [Eh]
	 Opposite-Spin Energy      =      -0.6470296445483246 [Eh]
	 Correlation Energy        =      -0.8481382337868090 [Eh]
	 Total Energy              =    -413.2306939353234725 [Eh]

	 ================> DF-SCS-MP2 Energies <==================
	-----------------------------------------------------------
	 SCS Same-Spin Scale       =       0.3333333333333333 [-]
	 SCS Opposite-Spin Scale   =       1.2000000000000000 [-]
	 SCS Same-Spin Energy      =      -0.0670361964128281 [Eh]
	 SCS Opposite-Spin Energy  =      -0.7764355734579894 [Eh]
	 SCS Correlation Energy    =      -0.8434717698708175 [Eh]
	 SCS Total Energy          =    -413.2260274714074626 [Eh]
	-----------------------------------------------------------

  Dipole Moment: [D]
     X:     2.0515      Y:     0.3736      Z:    -0.0031     Total:     2.0853

*** Psi4 exiting successfully. Buy a developer a beer!
