                               Psi4 1.4a3.dev225

  ==> Input File <==

--------------------------------------------------------------------------
#psi4
#
memory 32 gb

molecule  {
0 1
  I       -1.0508630    -0.0327020     0.0000010
  C        1.9876030    -0.5024530    -0.0000080
  C        0.9983820     0.6513080    -0.0000070
  C        3.4267560     0.0178820     0.0000080
  H        1.8145770    -1.1305720     0.8787430
  H        1.8145880    -1.1305600    -0.8787710
  H        1.1000060     1.2738310    -0.8896230
  H        1.1000140     1.2738370     0.8896040
  H        4.1252824    -0.7964408    -0.0000470
  H        3.6258980     0.6289730    -0.8845580
  H        3.6259130     0.6288710     0.8846400
units angstrom
no_reorient  #important for SAPT in psi4, default
symmetry c1  #important for SAPT in psi4, default
}

set PROPERTIES_ORIGIN ["COM"]
properties('MP2/aug-cc-pvtz', properties = ['dipole'])
--------------------------------------------------------------------------

    Molecular point group: c1
  Charge       = 0
  Multiplicity = 1
  Basis Set: AUG-CC-PVTZ
    Blend: AUG-CC-PVTZ
  Basis Set: (AUG-CC-PVTZ AUX)
    Blend: AUG-CC-PVTZ-JKFIT + DEF2-UNIVERSAL-JKFIT

    Orbital Energies [Eh]
    ---------------------

    Doubly Occupied:

       1A    -11.284646     2A    -11.241264     3A    -11.226189
       4A     -7.706441     5A     -5.537639     6A     -5.528822
       7A     -5.528767     8A     -2.266916     9A     -2.262591
      10A     -2.262536    11A     -2.252759    12A     -2.252758
      13A     -1.084191    14A     -0.964272    15A     -0.856483
      16A     -0.807429    17A     -0.658355    18A     -0.599576
      19A     -0.567861    20A     -0.556788    21A     -0.508796
      22A     -0.495009    23A     -0.432842    24A     -0.356603
      25A     -0.356400

  @DF-RHF Final Energy:  -412.38840021696927

   => Energetics <=

    Nuclear Repulsion Energy =            182.6504162810221317
    One-Electron Energy =               -1034.8857669118890499
    Two-Electron Energy =                 439.8469504138976731
    Total Energy =                       -412.3884002169692735
  Basis Set: (AUG-CC-PVTZ AUX)
    Blend: AUG-CC-PVTZ-RI + DEF2-QZVPP-RI
    Molecular point group: c1

    Geometry (in Angstrom), charge = 0, multiplicity = 1:

       Center              X                  Y                   Z               Mass
    ------------   -----------------  -----------------  -----------------  -----------------
         I           -0.821011405386    -0.024491830707     0.000000818718   126.904471900000
         C            2.217454594614    -0.494242830707    -0.000008181282    12.000000000000
         C            1.228233594614     0.659518169293    -0.000007181282    12.000000000000
         C            3.656607594614     0.026092169293     0.000007818718    12.000000000000
         H            2.044428594614    -1.122361830707     0.878742818718     1.007825032230
         H            2.044439594614    -1.122349830707    -0.878771181282     1.007825032230
         H            1.329857594614     1.282041169293    -0.889623181282     1.007825032230
         H            1.329865594614     1.282047169293     0.889603818718     1.007825032230
         H            4.355133994614    -0.788230630707    -0.000047181282     1.007825032230
         H            3.855749594614     0.637183169293    -0.884558181282     1.007825032230
         H            3.855764594614     0.637081169293     0.884639818718     1.007825032230

  Basis Set: AUG-CC-PVTZ
    Blend: AUG-CC-PVTZ
  Basis Set: (AUG-CC-PVTZ AUX)
    Blend: AUG-CC-PVTZ-JKFIT + DEF2-UNIVERSAL-JKFIT
	 Reference Energy          =    -412.3884002169692735 [Eh]
	 Singles Energy            =      -0.0000000000000000 [Eh]
	 Same-Spin Energy          =      -0.2012717681028059 [Eh]
	 Opposite-Spin Energy      =      -0.6475297083158945 [Eh]
	 Correlation Energy        =      -0.8488014764187004 [Eh]
	 Total Energy              =    -413.2372016933879877 [Eh]

	 ================> DF-SCS-MP2 Energies <==================
	-----------------------------------------------------------
	 SCS Same-Spin Scale       =       0.3333333333333333 [-]
	 SCS Opposite-Spin Scale   =       1.2000000000000000 [-]
	 SCS Same-Spin Energy      =      -0.0670905893676020 [Eh]
	 SCS Opposite-Spin Energy  =      -0.7770356499790734 [Eh]
	 SCS Correlation Energy    =      -0.8441262393466753 [Eh]
	 SCS Total Energy          =    -413.2325264563159521 [Eh]
	-----------------------------------------------------------

  Dipole Moment: [D]
     X:     2.0564      Y:     0.3500      Z:    -0.0000     Total:     2.0860

*** Psi4 exiting successfully. Buy a developer a beer!
