                               Psi4 1.4a3.dev225

  ==> Input File <==

--------------------------------------------------------------------------
#psi4
#
memory 32 gb

molecule  {
0 1
  I       -1.0508630    -0.0327020     0.0000010
  C        1.9876030    -0.5024530    -0.0000080
  C        0.9983820     0.6513080    -0.0000070
  C        3.4267560     0.0178820     0.0000080
  H        1.8145770    -1.1305720     0.8787430
  H        1.8145880    -1.1305600    -0.8787710
  H        1.0953467     1.2452891    -0.8488352
  H        1.1000140     1.2738370     0.8896040
  H        4.1383040    -0.8116210    -0.0000480
  H        3.6258980     0.6289730    -0.8845580
  H        3.6259130     0.6288710     0.8846400
units angstrom
no_reorient  #important for SAPT in psi4, default
symmetry c1  #important for SAPT in psi4, default
}

set PROPERTIES_ORIGIN ["COM"]
properties('MP2/aug-cc-pvtz', properties = ['dipole'])
--------------------------------------------------------------------------

    Molecular point group: c1
  Charge       = 0
  Multiplicity = 1
  Basis Set: AUG-CC-PVTZ
    Blend: AUG-CC-PVTZ
  Basis Set: (AUG-CC-PVTZ AUX)
    Blend: AUG-CC-PVTZ-JKFIT + DEF2-UNIVERSAL-JKFIT

    Orbital Energies [Eh]
    ---------------------

    Doubly Occupied:

       1A    -11.279151     2A    -11.241088     3A    -11.228711
       4A     -7.706387     5A     -5.537570     6A     -5.528776
       7A     -5.528723     8A     -2.266843     9A     -2.262528
      10A     -2.262474    11A     -2.252723    12A     -2.252722
      13A     -1.085664    14A     -0.965623    15A     -0.855614
      16A     -0.811808    17A     -0.661973    18A     -0.598027
      19A     -0.571722    20A     -0.556743    21A     -0.507640
      22A     -0.495863    23A     -0.433124    24A     -0.356870
      25A     -0.356518

  @DF-RHF Final Energy:  -412.38756426182306

   => Energetics <=

    Nuclear Repulsion Energy =            182.8122178731968575
    One-Electron Energy =               -1035.1897919044893115
    Two-Electron Energy =                 439.9900097694693386
    Total Energy =                       -412.3875642618230586
  Basis Set: (AUG-CC-PVTZ AUX)
    Blend: AUG-CC-PVTZ-RI + DEF2-QZVPP-RI
    Molecular point group: c1

    Geometry (in Angstrom), charge = 0, multiplicity = 1:

       Center              X                  Y                   Z               Mass
    ------------   -----------------  -----------------  -----------------  -----------------
         I           -0.821060992186    -0.024232567222    -0.000241039014   126.904471900000
         C            2.217405007814    -0.493983567222    -0.000250039014    12.000000000000
         C            1.228184007814     0.659777432778    -0.000249039014    12.000000000000
         C            3.656558007814     0.026351432778    -0.000234039014    12.000000000000
         H            2.044379007814    -1.122102567222     0.878500960986     1.007825032230
         H            2.044390007814    -1.122090567222    -0.879013039014     1.007825032230
         H            1.325148707814     1.253758532778    -0.849077239014     1.007825032230
         H            1.329816007814     1.282306432778     0.889361960986     1.007825032230
         H            4.368106007814    -0.803151567222    -0.000290039014     1.007825032230
         H            3.855700007814     0.637442432778    -0.884800039014     1.007825032230
         H            3.855715007814     0.637340432778     0.884397960986     1.007825032230

  Basis Set: AUG-CC-PVTZ
    Blend: AUG-CC-PVTZ
  Basis Set: (AUG-CC-PVTZ AUX)
    Blend: AUG-CC-PVTZ-JKFIT + DEF2-UNIVERSAL-JKFIT
	 Reference Energy          =    -412.3875642618230586 [Eh]
	 Singles Energy            =      -0.0000000000000000 [Eh]
	 Same-Spin Energy          =      -0.2011766550593587 [Eh]
	 Opposite-Spin Energy      =      -0.6472862300150501 [Eh]
	 Correlation Energy        =      -0.8484628850744088 [Eh]
	 Total Energy              =    -413.2360271468974702 [Eh]

	 ================> DF-SCS-MP2 Energies <==================
	-----------------------------------------------------------
	 SCS Same-Spin Scale       =       0.3333333333333333 [-]
	 SCS Opposite-Spin Scale   =       1.2000000000000000 [-]
	 SCS Same-Spin Energy      =      -0.0670588850197862 [Eh]
	 SCS Opposite-Spin Energy  =      -0.7767434760180602 [Eh]
	 SCS Correlation Energy    =      -0.8438023610378463 [Eh]
	 SCS Total Energy          =    -413.2313666228608895 [Eh]
	-----------------------------------------------------------

  Dipole Moment: [D]
     X:     2.0483      Y:     0.3664      Z:    -0.0029     Total:     2.0808

*** Psi4 exiting successfully. Buy a developer a beer!
