                               Psi4 1.4a3.dev225

  ==> Input File <==

--------------------------------------------------------------------------
#psi4
#
memory 32 gb

molecule  {
0 1
  I       -1.0508630    -0.0327020     0.0000010
  C        1.9876030    -0.5024530    -0.0000080
  C        0.9983820     0.6513080    -0.0000070
  C        3.3797350     0.0008813     0.0000075
  H        1.8145770    -1.1305720     0.8787430
  H        1.8145880    -1.1305600    -0.8787710
  H        1.1000060     1.2738310    -0.8896230
  H        1.1000140     1.2738370     0.8896040
  H        4.1383040    -0.8116210    -0.0000480
  H        3.6258980     0.6289730    -0.8845580
  H        3.6259130     0.6288710     0.8846400
units angstrom
no_reorient  #important for SAPT in psi4, default
symmetry c1  #important for SAPT in psi4, default
}

set PROPERTIES_ORIGIN ["COM"]
properties('MP2/aug-cc-pvtz', properties = ['dipole'])
--------------------------------------------------------------------------

    Molecular point group: c1
  Charge       = 0
  Multiplicity = 1
  Basis Set: AUG-CC-PVTZ
    Blend: AUG-CC-PVTZ
  Basis Set: (AUG-CC-PVTZ AUX)
    Blend: AUG-CC-PVTZ-JKFIT + DEF2-UNIVERSAL-JKFIT

    Orbital Energies [Eh]
    ---------------------

    Doubly Occupied:

       1A    -11.285006     2A    -11.239495     3A    -11.231201
       4A     -7.706754     5A     -5.537960     6A     -5.529131
       7A     -5.529079     8A     -2.267238     9A     -2.262907
      10A     -2.262855    11A     -2.253063    12A     -2.253062
      13A     -1.091258    14A     -0.964343    15A     -0.853111
      16A     -0.807956    17A     -0.660361    18A     -0.596574
      19A     -0.569771    20A     -0.564786    21A     -0.500604
      22A     -0.488409    23A     -0.435589    24A     -0.357053
      25A     -0.356677

  @DF-RHF Final Energy:  -412.38550752361499

   => Energetics <=

    Nuclear Repulsion Energy =            183.2389810962464196
    One-Electron Energy =               -1036.0404889640551573
    Two-Electron Energy =                 440.4160003441937192
    Total Energy =                       -412.3855075236149901
  Basis Set: (AUG-CC-PVTZ AUX)
    Blend: AUG-CC-PVTZ-RI + DEF2-QZVPP-RI
    Molecular point group: c1

    Geometry (in Angstrom), charge = 0, multiplicity = 1:

       Center              X                  Y                   Z               Mass
    ------------   -----------------  -----------------  -----------------  -----------------
         I           -0.817768695649    -0.023201477936     0.000000859950   126.904471900000
         C            2.220697304351    -0.492952477936    -0.000008140050    12.000000000000
         C            1.231476304351     0.660808522064    -0.000007140050    12.000000000000
         C            3.612829304351     0.010381822064     0.000007359950    12.000000000000
         H            2.047671304351    -1.121071477936     0.878742859950     1.007825032230
         H            2.047682304351    -1.121059477936    -0.878771140050     1.007825032230
         H            1.333100304351     1.283331522064    -0.889623140050     1.007825032230
         H            1.333108304351     1.283337522064     0.889603859950     1.007825032230
         H            4.371398304351    -0.802120477936    -0.000048140050     1.007825032230
         H            3.858992304351     0.638473522064    -0.884558140050     1.007825032230
         H            3.859007304351     0.638371522064     0.884639859950     1.007825032230

  Basis Set: AUG-CC-PVTZ
    Blend: AUG-CC-PVTZ
  Basis Set: (AUG-CC-PVTZ AUX)
    Blend: AUG-CC-PVTZ-JKFIT + DEF2-UNIVERSAL-JKFIT
	 Reference Energy          =    -412.3855075236149901 [Eh]
	 Singles Energy            =      -0.0000000000000000 [Eh]
	 Same-Spin Energy          =      -0.2016489786079707 [Eh]
	 Opposite-Spin Energy      =      -0.6480511497288490 [Eh]
	 Correlation Energy        =      -0.8497001283368197 [Eh]
	 Total Energy              =    -413.2352076519517823 [Eh]

	 ================> DF-SCS-MP2 Energies <==================
	-----------------------------------------------------------
	 SCS Same-Spin Scale       =       0.3333333333333333 [-]
	 SCS Opposite-Spin Scale   =       1.2000000000000000 [-]
	 SCS Same-Spin Energy      =      -0.0672163262026569 [Eh]
	 SCS Opposite-Spin Energy  =      -0.7776613796746188 [Eh]
	 SCS Correlation Energy    =      -0.8448777058772757 [Eh]
	 SCS Total Energy          =    -413.2303852294922422 [Eh]
	-----------------------------------------------------------

  Dipole Moment: [D]
     X:     2.0370      Y:     0.3494      Z:    -0.0000     Total:     2.0668

*** Psi4 exiting successfully. Buy a developer a beer!
