                               Psi4 1.4a3.dev225

  ==> Input File <==

--------------------------------------------------------------------------
#psi4
#
memory 32 gb

molecule  {
0 1
  I       -1.0776449     0.0849118    -0.1912720
  C        1.9876030    -0.5024530    -0.0000080
  C        0.9983820     0.6513080    -0.0000070
  C        3.4267560     0.0178820     0.0000080
  H        1.8145770    -1.1305720     0.8787430
  H        1.8145880    -1.1305600    -0.8787710
  H        1.1000060     1.2738310    -0.8896230
  H        1.1000140     1.2738370     0.8896040
  H        4.1383040    -0.8116210    -0.0000480
  H        3.6258980     0.6289730    -0.8845580
  H        3.6259130     0.6288710     0.8846400
units angstrom
no_reorient  #important for SAPT in psi4, default
symmetry c1  #important for SAPT in psi4, default
}

set PROPERTIES_ORIGIN ["COM"]
properties('MP2/aug-cc-pvtz', properties = ['dipole'])
--------------------------------------------------------------------------

    Molecular point group: c1
  Charge       = 0
  Multiplicity = 1
  Basis Set: AUG-CC-PVTZ
    Blend: AUG-CC-PVTZ
  Basis Set: (AUG-CC-PVTZ AUX)
    Blend: AUG-CC-PVTZ-JKFIT + DEF2-UNIVERSAL-JKFIT

    Orbital Energies [Eh]
    ---------------------

    Doubly Occupied:

       1A    -11.284461     2A    -11.242297     3A    -11.229462
       4A     -7.706693     5A     -5.537909     6A     -5.529084
       7A     -5.528986     8A     -2.267183     9A     -2.262868
      10A     -2.262784    11A     -2.252990    12A     -2.252987
      13A     -1.083781    14A     -0.963927    15A     -0.857616
      16A     -0.805654    17A     -0.658605    18A     -0.597645
      19A     -0.568627    20A     -0.555883    21A     -0.508099
      22A     -0.495686    23A     -0.432364    24A     -0.357275
      25A     -0.355574

  @DF-RHF Final Energy:  -412.38723687719323

   => Energetics <=

    Nuclear Repulsion Energy =            181.9007766824084342
    One-Electron Energy =               -1033.3791484340983970
    Two-Electron Energy =                 439.0911348744967881
    Total Energy =                       -412.3872368771932315
  Basis Set: (AUG-CC-PVTZ AUX)
    Blend: AUG-CC-PVTZ-RI + DEF2-QZVPP-RI
    Molecular point group: c1

    Geometry (in Angstrom), charge = 0, multiplicity = 1:

       Center              X                  Y                   Z               Mass
    ------------   -----------------  -----------------  -----------------  -----------------
         I           -0.827873121937     0.005392596259    -0.048453238082   126.904471900000
         C            2.237374778063    -0.581972203741     0.142810761918    12.000000000000
         C            1.248153778063     0.571788796259     0.142811761918    12.000000000000
         C            3.676527778063    -0.061637203741     0.142826761918    12.000000000000
         H            2.064348778063    -1.210091203741     1.021561761918     1.007825032230
         H            2.064359778063    -1.210079203741    -0.735952238082     1.007825032230
         H            1.349777778063     1.194311796259    -0.746804238082     1.007825032230
         H            1.349785778063     1.194317796259     1.032422761918     1.007825032230
         H            4.388075778063    -0.891140203741     0.142770761918     1.007825032230
         H            3.875669778063     0.549453796259    -0.741739238082     1.007825032230
         H            3.875684778063     0.549351796259     1.027458761918     1.007825032230

  Basis Set: AUG-CC-PVTZ
    Blend: AUG-CC-PVTZ
  Basis Set: (AUG-CC-PVTZ AUX)
    Blend: AUG-CC-PVTZ-JKFIT + DEF2-UNIVERSAL-JKFIT
	 Reference Energy          =    -412.3872368771932315 [Eh]
	 Singles Energy            =      -0.0000000000000000 [Eh]
	 Same-Spin Energy          =      -0.2012145134058618 [Eh]
	 Opposite-Spin Energy      =      -0.6475784784583354 [Eh]
	 Correlation Energy        =      -0.8487929918641972 [Eh]
	 Total Energy              =    -413.2360298690574041 [Eh]

	 ================> DF-SCS-MP2 Energies <==================
	-----------------------------------------------------------
	 SCS Same-Spin Scale       =       0.3333333333333333 [-]
	 SCS Opposite-Spin Scale   =       1.2000000000000000 [-]
	 SCS Same-Spin Energy      =      -0.0670715044686206 [Eh]
	 SCS Opposite-Spin Energy  =      -0.7770941741500025 [Eh]
	 SCS Correlation Energy    =      -0.8441656786186231 [Eh]
	 SCS Total Energy          =    -413.2314025558118828 [Eh]
	-----------------------------------------------------------

  Dipole Moment: [D]
     X:     2.0752      Y:     0.2884      Z:     0.1143     Total:     2.0983

*** Psi4 exiting successfully. Buy a developer a beer!
