                               Psi4 1.4a3.dev225

  ==> Input File <==

--------------------------------------------------------------------------
#psi4
#
memory 32 gb

molecule  {
0 1
  I       -1.0508630    -0.0327020     0.0000010
  C        1.9876030    -0.5024530    -0.0000080
  C        0.9983820     0.6513080    -0.0000070
  C        3.4267560     0.0178820     0.0000080
  H        1.8145770    -1.1305720     0.8787430
  H        1.8145880    -1.1305600    -0.8787710
  H        1.1024921     1.2890593    -0.8784792
  H        1.1000140     1.2738370     0.8896040
  H        4.1383040    -0.8116210    -0.0000480
  H        3.6258980     0.6289730    -0.8845580
  H        3.6259130     0.6288710     0.8846400
units angstrom
no_reorient  #important for SAPT in psi4, default
symmetry c1  #important for SAPT in psi4, default
}

set PROPERTIES_ORIGIN ["COM"]
properties('MP2/aug-cc-pvtz', properties = ['dipole'])
--------------------------------------------------------------------------

    Molecular point group: c1
  Charge       = 0
  Multiplicity = 1
  Basis Set: AUG-CC-PVTZ
    Blend: AUG-CC-PVTZ
  Basis Set: (AUG-CC-PVTZ AUX)
    Blend: AUG-CC-PVTZ-JKFIT + DEF2-UNIVERSAL-JKFIT

    Orbital Energies [Eh]
    ---------------------

    Doubly Occupied:

       1A    -11.284615     2A    -11.241539     3A    -11.228615
       4A     -7.706673     5A     -5.537882     6A     -5.529049
       7A     -5.528991     8A     -2.267159     9A     -2.262829
      10A     -2.262770    11A     -2.252975    12A     -2.252974
      13A     -1.083864    14A     -0.963148    15A     -0.855704
      16A     -0.807958    17A     -0.657560    18A     -0.597259
      19A     -0.567155    20A     -0.556913    21A     -0.507761
      22A     -0.494958    23A     -0.433157    24A     -0.356826
      25A     -0.356490

  @DF-RHF Final Energy:  -412.38837634088003

   => Energetics <=

    Nuclear Repulsion Energy =            182.5498800182799641
    One-Electron Energy =               -1034.6868643921379771
    Two-Electron Energy =                 439.7486080329779838
    Total Energy =                       -412.3883763408800291
  Basis Set: (AUG-CC-PVTZ AUX)
    Blend: AUG-CC-PVTZ-RI + DEF2-QZVPP-RI
    Molecular point group: c1

    Geometry (in Angstrom), charge = 0, multiplicity = 1:

       Center              X                  Y                   Z               Mass
    ------------   -----------------  -----------------  -----------------  -----------------
         I           -0.821103363008    -0.024492115931    -0.000065255903   126.904471900000
         C            2.217362636992    -0.494243115931    -0.000074255903    12.000000000000
         C            1.228141636992     0.659517884069    -0.000073255903    12.000000000000
         C            3.656515636992     0.026091884069    -0.000058255903    12.000000000000
         H            2.044336636992    -1.122362115931     0.878676744097     1.007825032230
         H            2.044347636992    -1.122350115931    -0.878837255903     1.007825032230
         H            1.332251736992     1.297269184069    -0.878545455903     1.007825032230
         H            1.329773636992     1.282046884069     0.889537744097     1.007825032230
         H            4.368063636992    -0.803411115931    -0.000114255903     1.007825032230
         H            3.855657636992     0.637182884069    -0.884624255903     1.007825032230
         H            3.855672636992     0.637080884069     0.884573744097     1.007825032230

  Basis Set: AUG-CC-PVTZ
    Blend: AUG-CC-PVTZ
  Basis Set: (AUG-CC-PVTZ AUX)
    Blend: AUG-CC-PVTZ-JKFIT + DEF2-UNIVERSAL-JKFIT
	 Reference Energy          =    -412.3883763408800291 [Eh]
	 Singles Energy            =      -0.0000000000000000 [Eh]
	 Same-Spin Energy          =      -0.2012530187190317 [Eh]
	 Opposite-Spin Energy      =      -0.6476311099522533 [Eh]
	 Correlation Energy        =      -0.8488841286712849 [Eh]
	 Total Energy              =    -413.2372604695513019 [Eh]

	 ================> DF-SCS-MP2 Energies <==================
	-----------------------------------------------------------
	 SCS Same-Spin Scale       =       0.3333333333333333 [-]
	 SCS Opposite-Spin Scale   =       1.2000000000000000 [-]
	 SCS Same-Spin Energy      =      -0.0670843395730105 [Eh]
	 SCS Opposite-Spin Energy  =      -0.7771573319427039 [Eh]
	 SCS Correlation Energy    =      -0.8442416715157144 [Eh]
	 SCS Total Energy          =    -413.2326180123957329 [Eh]
	-----------------------------------------------------------

  Dipole Moment: [D]
     X:     2.0400      Y:     0.3585      Z:     0.0040     Total:     2.0712

*** Psi4 exiting successfully. Buy a developer a beer!
