                               Psi4 1.4a3.dev225

  ==> Input File <==

--------------------------------------------------------------------------
#psi4
#
memory 32 gb

molecule  {
0 1
  I       -1.0508630    -0.0327020     0.0000010
  C        1.9876030    -0.5024530    -0.0000080
  C        1.1285617     0.4994751    -0.0000071
  C        3.4267560     0.0178820     0.0000080
  H        1.8145770    -1.1305720     0.8787430
  H        1.8145880    -1.1305600    -0.8787710
  H        1.1000060     1.2738310    -0.8896230
  H        1.1000140     1.2738370     0.8896040
  H        4.1383040    -0.8116210    -0.0000480
  H        3.6258980     0.6289730    -0.8845580
  H        3.6259130     0.6288710     0.8846400
units angstrom
no_reorient  #important for SAPT in psi4, default
symmetry c1  #important for SAPT in psi4, default
}

set PROPERTIES_ORIGIN ["COM"]
properties('MP2/aug-cc-pvtz', properties = ['dipole'])
--------------------------------------------------------------------------

    Molecular point group: c1
  Charge       = 0
  Multiplicity = 1
  Basis Set: AUG-CC-PVTZ
    Blend: AUG-CC-PVTZ
  Basis Set: (AUG-CC-PVTZ AUX)
    Blend: AUG-CC-PVTZ-JKFIT + DEF2-UNIVERSAL-JKFIT

    Orbital Energies [Eh]
    ---------------------

    Doubly Occupied:

       1A    -11.299173     2A    -11.236083     3A    -11.232979
       4A     -7.700433     5A     -5.531321     6A     -5.522959
       7A     -5.522785     8A     -2.260217     9A     -2.256420
      10A     -2.256255    11A     -2.246963    12A     -2.246957
      13A     -1.131555    14A     -0.958499    15A     -0.865696
      16A     -0.795394    17A     -0.670370    18A     -0.626290
      19A     -0.580736    20A     -0.551151    21A     -0.531854
      22A     -0.477093    23A     -0.404660    24A     -0.355065
      25A     -0.349891

  @DF-RHF Final Energy:  -412.34269552169542

   => Energetics <=

    Nuclear Repulsion Energy =            183.5994621051238482
    One-Electron Energy =               -1036.6627156973536330
    Two-Electron Energy =                 440.7205580705343664
    Total Energy =                       -412.3426955216954184
  Basis Set: (AUG-CC-PVTZ AUX)
    Blend: AUG-CC-PVTZ-RI + DEF2-QZVPP-RI
    Molecular point group: c1

    Geometry (in Angstrom), charge = 0, multiplicity = 1:

       Center              X                  Y                   Z               Mass
    ------------   -----------------  -----------------  -----------------  -----------------
         I           -0.830279979595    -0.013681628752     0.000000831708   126.904471900000
         C            2.208186020405    -0.483432628752    -0.000008168292    12.000000000000
         C            1.349144720405     0.518495471248    -0.000007268292    12.000000000000
         C            3.647339020405     0.036902371248     0.000007831708    12.000000000000
         H            2.035160020405    -1.111551628752     0.878742831708     1.007825032230
         H            2.035171020405    -1.111539628752    -0.878771168292     1.007825032230
         H            1.320589020405     1.292851371248    -0.889623168292     1.007825032230
         H            1.320597020405     1.292857371248     0.889603831708     1.007825032230
         H            4.358887020405    -0.792600628752    -0.000048168292     1.007825032230
         H            3.846481020405     0.647993371248    -0.884558168292     1.007825032230
         H            3.846496020405     0.647891371248     0.884639831708     1.007825032230

  Basis Set: AUG-CC-PVTZ
    Blend: AUG-CC-PVTZ
  Basis Set: (AUG-CC-PVTZ AUX)
    Blend: AUG-CC-PVTZ-JKFIT + DEF2-UNIVERSAL-JKFIT
	 Reference Energy          =    -412.3426955216954184 [Eh]
	 Singles Energy            =      -0.0000000000000000 [Eh]
	 Same-Spin Energy          =      -0.2042254557343584 [Eh]
	 Opposite-Spin Energy      =      -0.6510240989422063 [Eh]
	 Correlation Energy        =      -0.8552495546765646 [Eh]
	 Total Energy              =    -413.1979450763719797 [Eh]

	 ================> DF-SCS-MP2 Energies <==================
	-----------------------------------------------------------
	 SCS Same-Spin Scale       =       0.3333333333333333 [-]
	 SCS Opposite-Spin Scale   =       1.2000000000000000 [-]
	 SCS Same-Spin Energy      =      -0.0680751519114528 [Eh]
	 SCS Opposite-Spin Energy  =      -0.7812289187306475 [Eh]
	 SCS Correlation Energy    =      -0.8493040706421002 [Eh]
	 SCS Total Energy          =    -413.1919995923375382 [Eh]
	-----------------------------------------------------------

  Dipole Moment: [D]
     X:     2.4769      Y:     0.3052      Z:    -0.0000     Total:     2.4956

*** Psi4 exiting successfully. Buy a developer a beer!
