                               Psi4 1.4a3.dev225

  ==> Input File <==

--------------------------------------------------------------------------
#psi4
#
memory 32 gb

molecule  {
0 1
  I       -1.0508630    -0.0327020     0.0000010
  C        1.9876030    -0.5024530    -0.0000080
  C        0.9983820     0.6513080    -0.0000070
  C        3.4267560     0.0178820     0.0000080
  H        1.8145770    -1.1305720     0.8787430
  H        1.8145880    -1.1305600    -0.8787710
  H        1.1000060     1.2738310    -0.8896230
  H        1.1000140     1.2738370     0.8896040
  H        4.0731961    -0.7357200    -0.0000429
  H        3.6258980     0.6289730    -0.8845580
  H        3.6259130     0.6288710     0.8846400
units angstrom
no_reorient  #important for SAPT in psi4, default
symmetry c1  #important for SAPT in psi4, default
}

set PROPERTIES_ORIGIN ["COM"]
properties('MP2/aug-cc-pvtz', properties = ['dipole'])
--------------------------------------------------------------------------

    Molecular point group: c1
  Charge       = 0
  Multiplicity = 1
  Basis Set: AUG-CC-PVTZ
    Blend: AUG-CC-PVTZ
  Basis Set: (AUG-CC-PVTZ AUX)
    Blend: AUG-CC-PVTZ-JKFIT + DEF2-UNIVERSAL-JKFIT

    Orbital Energies [Eh]
    ---------------------

    Doubly Occupied:

       1A    -11.284245     2A    -11.240707     3A    -11.216230
       4A     -7.706005     5A     -5.537188     6A     -5.528396
       7A     -5.528341     8A     -2.266463     9A     -2.262148
      10A     -2.262093    11A     -2.252343    12A     -2.252342
      13A     -1.085408    14A     -0.969638    15A     -0.860067
      16A     -0.807451    17A     -0.657858    18A     -0.610993
      19A     -0.567203    20A     -0.557576    21A     -0.513159
      22A     -0.494525    23A     -0.432786    24A     -0.356246
      25A     -0.356027

  @DF-RHF Final Energy:  -412.38216535259050

   => Energetics <=

    Nuclear Repulsion Energy =            183.0148733933543497
    One-Electron Energy =               -1035.5832038912076314
    Two-Electron Energy =                 440.1861651452627484
    Total Energy =                       -412.3821653525905049
  Basis Set: (AUG-CC-PVTZ AUX)
    Blend: AUG-CC-PVTZ-RI + DEF2-QZVPP-RI
    Molecular point group: c1

    Geometry (in Angstrom), charge = 0, multiplicity = 1:

       Center              X                  Y                   Z               Mass
    ------------   -----------------  -----------------  -----------------  -----------------
         I           -0.820702543833    -0.024851893153     0.000000794406   126.904471900000
         C            2.217763456167    -0.494602893153    -0.000008205594    12.000000000000
         C            1.228542456167     0.659158106847    -0.000007205594    12.000000000000
         C            3.656916456167     0.025732106847     0.000007794406    12.000000000000
         H            2.044737456167    -1.122721893153     0.878742794406     1.007825032230
         H            2.044748456167    -1.122709893153    -0.878771205594     1.007825032230
         H            1.330166456167     1.281681106847    -0.889623205594     1.007825032230
         H            1.330174456167     1.281687106847     0.889603794406     1.007825032230
         H            4.303356556167    -0.727869893153    -0.000043105594     1.007825032230
         H            3.856058456167     0.636823106847    -0.884558205594     1.007825032230
         H            3.856073456167     0.636721106847     0.884639794406     1.007825032230

  Basis Set: AUG-CC-PVTZ
    Blend: AUG-CC-PVTZ
  Basis Set: (AUG-CC-PVTZ AUX)
    Blend: AUG-CC-PVTZ-JKFIT + DEF2-UNIVERSAL-JKFIT
	 Reference Energy          =    -412.3821653525905049 [Eh]
	 Singles Energy            =      -0.0000000000000000 [Eh]
	 Same-Spin Energy          =      -0.2013259773478386 [Eh]
	 Opposite-Spin Energy      =      -0.6472088570601717 [Eh]
	 Correlation Energy        =      -0.8485348344080104 [Eh]
	 Total Energy              =    -413.2307001869984902 [Eh]

	 ================> DF-SCS-MP2 Energies <==================
	-----------------------------------------------------------
	 SCS Same-Spin Scale       =       0.3333333333333333 [-]
	 SCS Opposite-Spin Scale   =       1.2000000000000000 [-]
	 SCS Same-Spin Energy      =      -0.0671086591159462 [Eh]
	 SCS Opposite-Spin Energy  =      -0.7766506284722060 [Eh]
	 SCS Correlation Energy    =      -0.8437592875881522 [Eh]
	 SCS Total Energy          =    -413.2259246401786754 [Eh]
	-----------------------------------------------------------

  Dipole Moment: [D]
     X:     2.1037      Y:     0.3295      Z:    -0.0000     Total:     2.1293

*** Psi4 exiting successfully. Buy a developer a beer!
