                               Psi4 1.4a3.dev225

  ==> Input File <==

--------------------------------------------------------------------------
#psi4
#
memory 32 gb

molecule  {
0 1
  I       -1.0508630    -0.0327020     0.0000010
  C        1.9876030    -0.5024530    -0.0000080
  C        0.9983820     0.6513080    -0.0000070
  C        3.4267560     0.0178820     0.0000080
  H        1.7987600    -1.1879908     0.9590730
  H        1.8145880    -1.1305600    -0.8787710
  H        1.1000060     1.2738310    -0.8896230
  H        1.1000140     1.2738370     0.8896040
  H        4.1383040    -0.8116210    -0.0000480
  H        3.6258980     0.6289730    -0.8845580
  H        3.6259130     0.6288710     0.8846400
units angstrom
no_reorient  #important for SAPT in psi4, default
symmetry c1  #important for SAPT in psi4, default
}

set PROPERTIES_ORIGIN ["COM"]
properties('MP2/aug-cc-pvtz', properties = ['dipole'])
--------------------------------------------------------------------------

    Molecular point group: c1
  Charge       = 0
  Multiplicity = 1
  Basis Set: AUG-CC-PVTZ
    Blend: AUG-CC-PVTZ
  Basis Set: (AUG-CC-PVTZ AUX)
    Blend: AUG-CC-PVTZ-JKFIT + DEF2-UNIVERSAL-JKFIT

    Orbital Energies [Eh]
    ---------------------

    Doubly Occupied:

       1A    -11.285692     2A    -11.253207     3A    -11.229648
       4A     -7.706690     5A     -5.537916     6A     -5.529052
       7A     -5.529002     8A     -2.267198     9A     -2.262851
      10A     -2.262802    11A     -2.252973    12A     -2.252972
      13A     -1.081413    14A     -0.963656    15A     -0.853408
      16A     -0.801876    17A     -0.653514    18A     -0.596445
      19A     -0.567847    20A     -0.557426    21A     -0.506477
      22A     -0.484391    23A     -0.433058    24A     -0.356775
      25A     -0.356599

  @DF-RHF Final Energy:  -412.38193395180036

   => Energetics <=

    Nuclear Repulsion Energy =            182.1493304000647697
    One-Electron Energy =               -1033.8967486565134095
    Two-Electron Energy =                 439.3654843046483052
    Total Energy =                       -412.3819339518003630
  Basis Set: (AUG-CC-PVTZ AUX)
    Blend: AUG-CC-PVTZ-RI + DEF2-QZVPP-RI
    Molecular point group: c1

    Geometry (in Angstrom), charge = 0, multiplicity = 1:

       Center              X                  Y                   Z               Mass
    ------------   -----------------  -----------------  -----------------  -----------------
         I           -0.820994829212    -0.024061332863    -0.000475516512   126.904471900000
         C            2.217471170788    -0.493812332863    -0.000484516512    12.000000000000
         C            1.228250170788     0.659948667137    -0.000483516512    12.000000000000
         C            3.656624170788     0.026522667137    -0.000468516512    12.000000000000
         H            2.028628170788    -1.179350132863     0.958596483488     1.007825032230
         H            2.044456170788    -1.121919332863    -0.879247516512     1.007825032230
         H            1.329874170788     1.282471667137    -0.890099516512     1.007825032230
         H            1.329882170788     1.282477667137     0.889127483488     1.007825032230
         H            4.368172170788    -0.802980332863    -0.000524516512     1.007825032230
         H            3.855766170788     0.637613667137    -0.885034516512     1.007825032230
         H            3.855781170788     0.637511667137     0.884163483488     1.007825032230

  Basis Set: AUG-CC-PVTZ
    Blend: AUG-CC-PVTZ
  Basis Set: (AUG-CC-PVTZ AUX)
    Blend: AUG-CC-PVTZ-JKFIT + DEF2-UNIVERSAL-JKFIT
	 Reference Energy          =    -412.3819339518003630 [Eh]
	 Singles Energy            =      -0.0000000000000000 [Eh]
	 Same-Spin Energy          =      -0.2013163797028330 [Eh]
	 Opposite-Spin Energy      =      -0.6484012248875028 [Eh]
	 Correlation Energy        =      -0.8497176045903359 [Eh]
	 Total Energy              =    -413.2316515563907160 [Eh]

	 ================> DF-SCS-MP2 Energies <==================
	-----------------------------------------------------------
	 SCS Same-Spin Scale       =       0.3333333333333333 [-]
	 SCS Opposite-Spin Scale   =       1.2000000000000000 [-]
	 SCS Same-Spin Energy      =      -0.0671054599009443 [Eh]
	 SCS Opposite-Spin Energy  =      -0.7780814698650034 [Eh]
	 SCS Correlation Energy    =      -0.8451869297659477 [Eh]
	 SCS Total Energy          =    -413.2271208815662931 [Eh]
	-----------------------------------------------------------

  Dipole Moment: [D]
     X:     2.0509      Y:     0.3936      Z:    -0.0372     Total:     2.0887

*** Psi4 exiting successfully. Buy a developer a beer!
