                               Psi4 1.4a3.dev225

  ==> Input File <==

--------------------------------------------------------------------------
#psi4
#
memory 32 gb

molecule  {
0 1
  I       -1.0508630    -0.0327020     0.0000010
  C        1.9876030    -0.5024530    -0.0000080
  C        0.9983820     0.6513080    -0.0000070
  C        3.4267560     0.0178820     0.0000080
  H        1.8145770    -1.1305720     0.8787430
  H        1.8145880    -1.1305600    -0.8787710
  H        1.0813686     1.1596632    -0.7264716
  H        1.1000140     1.2738370     0.8896040
  H        4.1383040    -0.8116210    -0.0000480
  H        3.6258980     0.6289730    -0.8845580
  H        3.6259130     0.6288710     0.8846400
units angstrom
no_reorient  #important for SAPT in psi4, default
symmetry c1  #important for SAPT in psi4, default
}

set PROPERTIES_ORIGIN ["COM"]
properties('MP2/aug-cc-pvtz', properties = ['dipole'])
--------------------------------------------------------------------------

    Molecular point group: c1
  Charge       = 0
  Multiplicity = 1
  Basis Set: AUG-CC-PVTZ
    Blend: AUG-CC-PVTZ
  Basis Set: (AUG-CC-PVTZ AUX)
    Blend: AUG-CC-PVTZ-JKFIT + DEF2-UNIVERSAL-JKFIT

    Orbital Energies [Eh]
    ---------------------

    Doubly Occupied:

       1A    -11.261995     2A    -11.240349     3A    -11.228904
       4A     -7.706194     5A     -5.537334     6A     -5.528606
       7A     -5.528556     8A     -2.266593     9A     -2.262306
      10A     -2.262256    11A     -2.252581    12A     -2.252581
      13A     -1.093663    14A     -0.975852    15A     -0.855654
      16A     -0.828001    17A     -0.673571    18A     -0.602248
      19A     -0.579692    20A     -0.556796    21A     -0.508177
      22A     -0.497261    23A     -0.434120    24A     -0.357820
      25A     -0.356406

  @DF-RHF Final Energy:  -412.35429346847764

   => Energetics <=

    Nuclear Repulsion Energy =            183.6515719767378130
    One-Electron Energy =               -1036.7167013766609216
    Two-Electron Energy =                 440.7108359314454447
    Total Energy =                       -412.3542934684776355
  Basis Set: (AUG-CC-PVTZ AUX)
    Blend: AUG-CC-PVTZ-RI + DEF2-QZVPP-RI
    Molecular point group: c1

    Geometry (in Angstrom), charge = 0, multiplicity = 1:

       Center              X                  Y                   Z               Mass
    ------------   -----------------  -----------------  -----------------  -----------------
         I           -0.820978104792    -0.023724822413    -0.000966631185   126.904471900000
         C            2.217487895208    -0.493475822413    -0.000975631185    12.000000000000
         C            1.228266895208     0.660285177587    -0.000974631185    12.000000000000
         C            3.656640895208     0.026859177587    -0.000959631185    12.000000000000
         H            2.044461895208    -1.121594822413     0.877775368815     1.007825032230
         H            2.044472895208    -1.121582822413    -0.879738631185     1.007825032230
         H            1.311253495208     1.168640377587    -0.727439231185     1.007825032230
         H            1.329898895208     1.282814177587     0.888636368815     1.007825032230
         H            4.368188895208    -0.802643822413    -0.001015631185     1.007825032230
         H            3.855782895208     0.637950177587    -0.885525631185     1.007825032230
         H            3.855797895208     0.637848177587     0.883672368815     1.007825032230

  Basis Set: AUG-CC-PVTZ
    Blend: AUG-CC-PVTZ
  Basis Set: (AUG-CC-PVTZ AUX)
    Blend: AUG-CC-PVTZ-JKFIT + DEF2-UNIVERSAL-JKFIT
	 Reference Energy          =    -412.3542934684776355 [Eh]
	 Singles Energy            =      -0.0000000000000000 [Eh]
	 Same-Spin Energy          =      -0.2010406124514593 [Eh]
	 Opposite-Spin Energy      =      -0.6468509495769028 [Eh]
	 Correlation Energy        =      -0.8478915620283621 [Eh]
	 Total Energy              =    -413.2021850305059729 [Eh]

	 ================> DF-SCS-MP2 Energies <==================
	-----------------------------------------------------------
	 SCS Same-Spin Scale       =       0.3333333333333333 [-]
	 SCS Opposite-Spin Scale   =       1.2000000000000000 [-]
	 SCS Same-Spin Energy      =      -0.0670135374838198 [Eh]
	 SCS Opposite-Spin Energy  =      -0.7762211394922833 [Eh]
	 SCS Correlation Energy    =      -0.8432346769761031 [Eh]
	 SCS Total Energy          =    -413.1975281454537594 [Eh]
	-----------------------------------------------------------

  Dipole Moment: [D]
     X:     2.0512      Y:     0.3792      Z:     0.0036     Total:     2.0859

*** Psi4 exiting successfully. Buy a developer a beer!
