                               Psi4 1.4a3.dev225

  ==> Input File <==

--------------------------------------------------------------------------
#psi4
#
memory 32 gb

molecule  {
0 1
  I       -1.0712355     0.0449525    -0.1276439
  C        1.9876030    -0.5024530    -0.0000080
  C        0.9983820     0.6513080    -0.0000070
  C        3.4267560     0.0178820     0.0000080
  H        1.8145770    -1.1305720     0.8787430
  H        1.8145880    -1.1305600    -0.8787710
  H        1.1000060     1.2738310    -0.8896230
  H        1.1000140     1.2738370     0.8896040
  H        4.1383040    -0.8116210    -0.0000480
  H        3.6258980     0.6289730    -0.8845580
  H        3.6259130     0.6288710     0.8846400
units angstrom
no_reorient  #important for SAPT in psi4, default
symmetry c1  #important for SAPT in psi4, default
}

set PROPERTIES_ORIGIN ["COM"]
properties('MP2/aug-cc-pvtz', properties = ['dipole'])
--------------------------------------------------------------------------

    Molecular point group: c1
  Charge       = 0
  Multiplicity = 1
  Basis Set: AUG-CC-PVTZ
    Blend: AUG-CC-PVTZ
  Basis Set: (AUG-CC-PVTZ AUX)
    Blend: AUG-CC-PVTZ-JKFIT + DEF2-UNIVERSAL-JKFIT

    Orbital Energies [Eh]
    ---------------------

    Doubly Occupied:

       1A    -11.284583     2A    -11.242014     3A    -11.229207
       4A     -7.706626     5A     -5.537832     6A     -5.529015
       7A     -5.528932     8A     -2.267107     9A     -2.262790
      10A     -2.262715    11A     -2.252933    12A     -2.252930
      13A     -1.083836    14A     -0.963649    15A     -0.856982
      16A     -0.806244    17A     -0.658566    18A     -0.597445
      19A     -0.568417    20A     -0.556111    21A     -0.507892
      22A     -0.495497    23A     -0.432629    24A     -0.357069
      25A     -0.355957

  @DF-RHF Final Energy:  -412.38793886869496

   => Energetics <=

    Nuclear Repulsion Energy =            182.1021314163835427
    One-Electron Energy =               -1033.7861847137151017
    Two-Electron Energy =                 439.2961144286365425
    Total Energy =                       -412.3879388686949596
  Basis Set: (AUG-CC-PVTZ AUX)
    Blend: AUG-CC-PVTZ-RI + DEF2-QZVPP-RI
    Molecular point group: c1

    Geometry (in Angstrom), charge = 0, multiplicity = 1:

       Center              X                  Y                   Z               Mass
    ------------   -----------------  -----------------  -----------------  -----------------
         I           -0.826249466379    -0.004730057900    -0.032334706200   126.904471900000
         C            2.232589033621    -0.552135557900     0.095301193800    12.000000000000
         C            1.243368033621     0.601625442100     0.095302193800    12.000000000000
         C            3.671742033621    -0.031800557900     0.095317193800    12.000000000000
         H            2.059563033621    -1.180254557900     0.974052193800     1.007825032230
         H            2.059574033621    -1.180242557900    -0.783461806200     1.007825032230
         H            1.344992033621     1.224148442100    -0.794313806200     1.007825032230
         H            1.345000033621     1.224154442100     0.984913193800     1.007825032230
         H            4.383290033621    -0.861303557900     0.095261193800     1.007825032230
         H            3.870884033621     0.579290442100    -0.789248806199     1.007825032230
         H            3.870899033621     0.579188442100     0.979949193801     1.007825032230

  Basis Set: AUG-CC-PVTZ
    Blend: AUG-CC-PVTZ
  Basis Set: (AUG-CC-PVTZ AUX)
    Blend: AUG-CC-PVTZ-JKFIT + DEF2-UNIVERSAL-JKFIT
	 Reference Energy          =    -412.3879388686949596 [Eh]
	 Singles Energy            =      -0.0000000000000000 [Eh]
	 Same-Spin Energy          =      -0.2012114706711044 [Eh]
	 Opposite-Spin Energy      =      -0.6475634246466266 [Eh]
	 Correlation Energy        =      -0.8487748953177311 [Eh]
	 Total Energy              =    -413.2367137640126771 [Eh]

	 ================> DF-SCS-MP2 Energies <==================
	-----------------------------------------------------------
	 SCS Same-Spin Scale       =       0.3333333333333333 [-]
	 SCS Opposite-Spin Scale   =       1.2000000000000000 [-]
	 SCS Same-Spin Energy      =      -0.0670704902237015 [Eh]
	 SCS Opposite-Spin Energy  =      -0.7770761095759520 [Eh]
	 SCS Correlation Energy    =      -0.8441465997996535 [Eh]
	 SCS Total Energy          =    -413.2320854684946312 [Eh]
	-----------------------------------------------------------

  Dipole Moment: [D]
     X:     2.0659      Y:     0.3117      Z:     0.0761     Total:     2.0907

*** Psi4 exiting successfully. Buy a developer a beer!
