                               Psi4 1.4a3.dev225

  ==> Input File <==

--------------------------------------------------------------------------
#psi4
#
memory 32 gb

molecule  {
0 1
  I       -1.0508630    -0.0327020     0.0000010
  C        1.9876030    -0.5024530    -0.0000080
  C        0.9983820     0.6513080    -0.0000070
  C        3.4267560     0.0178820     0.0000080
  H        1.8145770    -1.1305720     0.8787430
  H        1.8145880    -1.1305600    -0.8787710
  H        1.1000060     1.2738310    -0.8896230
  H        1.1000140     1.2738370     0.8896040
  H        4.0080882    -0.6598190    -0.0000378
  H        3.6258980     0.6289730    -0.8845580
  H        3.6259130     0.6288710     0.8846400
units angstrom
no_reorient  #important for SAPT in psi4, default
symmetry c1  #important for SAPT in psi4, default
}

set PROPERTIES_ORIGIN ["COM"]
properties('MP2/aug-cc-pvtz', properties = ['dipole'])
--------------------------------------------------------------------------

    Molecular point group: c1
  Charge       = 0
  Multiplicity = 1
  Basis Set: AUG-CC-PVTZ
    Blend: AUG-CC-PVTZ
  Basis Set: (AUG-CC-PVTZ AUX)
    Blend: AUG-CC-PVTZ-JKFIT + DEF2-UNIVERSAL-JKFIT

    Orbital Energies [Eh]
    ---------------------

    Doubly Occupied:

       1A    -11.283914     2A    -11.240218     3A    -11.203912
       4A     -7.705599     5A     -5.536767     6A     -5.528000
       7A     -5.527945     8A     -2.266042     9A     -2.261736
      10A     -2.261680    11A     -2.251956    12A     -2.251956
      13A     -1.088220    14A     -0.978895    15A     -0.865374
      16A     -0.807652    17A     -0.657440    18A     -0.626854
      19A     -0.566702    20A     -0.558440    21A     -0.516987
      22A     -0.494156    23A     -0.432742    24A     -0.355924
      25A     -0.355685

  @DF-RHF Final Energy:  -412.35389485695646

   => Energetics <=

    Nuclear Repulsion Energy =            183.5358662140852175
    One-Electron Energy =               -1036.5299323127471780
    Two-Electron Energy =                 440.6401712417055023
    Total Energy =                       -412.3538948569564582
  Basis Set: (AUG-CC-PVTZ AUX)
    Blend: AUG-CC-PVTZ-RI + DEF2-QZVPP-RI
    Molecular point group: c1

    Geometry (in Angstrom), charge = 0, multiplicity = 1:

       Center              X                  Y                   Z               Mass
    ------------   -----------------  -----------------  -----------------  -----------------
         I           -0.820316466744    -0.025301971211     0.000000764164   126.904471900000
         C            2.218149533256    -0.495052971211    -0.000008235836    12.000000000000
         C            1.228928533256     0.658708028789    -0.000007235836    12.000000000000
         C            3.657302533256     0.025282028789     0.000007764164    12.000000000000
         H            2.045123533256    -1.123171971211     0.878742764164     1.007825032230
         H            2.045134533256    -1.123159971211    -0.878771235836     1.007825032230
         H            1.330552533256     1.281231028789    -0.889623235836     1.007825032230
         H            1.330560533256     1.281237028789     0.889603764164     1.007825032230
         H            4.238634733256    -0.652418971211    -0.000038035836     1.007825032230
         H            3.856444533256     0.636373028789    -0.884558235836     1.007825032230
         H            3.856459533256     0.636271028789     0.884639764164     1.007825032230

  Basis Set: AUG-CC-PVTZ
    Blend: AUG-CC-PVTZ
  Basis Set: (AUG-CC-PVTZ AUX)
    Blend: AUG-CC-PVTZ-JKFIT + DEF2-UNIVERSAL-JKFIT
	 Reference Energy          =    -412.3538948569564582 [Eh]
	 Singles Energy            =      -0.0000000000000000 [Eh]
	 Same-Spin Energy          =      -0.2014476133874080 [Eh]
	 Opposite-Spin Energy      =      -0.6471372783465288 [Eh]
	 Correlation Energy        =      -0.8485848917339368 [Eh]
	 Total Energy              =    -413.2024797486903935 [Eh]

	 ================> DF-SCS-MP2 Energies <==================
	-----------------------------------------------------------
	 SCS Same-Spin Scale       =       0.3333333333333333 [-]
	 SCS Opposite-Spin Scale   =       1.2000000000000000 [-]
	 SCS Same-Spin Energy      =      -0.0671492044624693 [Eh]
	 SCS Opposite-Spin Energy  =      -0.7765647340158345 [Eh]
	 SCS Correlation Energy    =      -0.8437139384783038 [Eh]
	 SCS Total Energy          =    -413.1976087954347463 [Eh]
	-----------------------------------------------------------

  Dipole Moment: [D]
     X:     2.1471      Y:     0.3139      Z:    -0.0000     Total:     2.1699

*** Psi4 exiting successfully. Buy a developer a beer!
