                               Psi4 1.4a3.dev225

  ==> Input File <==

--------------------------------------------------------------------------
#psi4
#
memory 32 gb

molecule  {
0 1
  I       -1.0508630    -0.0327020     0.0000010
  C        1.9876030    -0.5024530    -0.0000080
  C        0.9983820     0.6513080    -0.0000070
  C        3.4267560     0.0178820     0.0000080
  H        1.8224855    -1.1018626     0.8385780
  H        1.8145880    -1.1305600    -0.8787710
  H        1.1000060     1.2738310    -0.8896230
  H        1.1000140     1.2738370     0.8896040
  H        4.1383040    -0.8116210    -0.0000480
  H        3.6258980     0.6289730    -0.8845580
  H        3.6259130     0.6288710     0.8846400
units angstrom
no_reorient  #important for SAPT in psi4, default
symmetry c1  #important for SAPT in psi4, default
}

set PROPERTIES_ORIGIN ["COM"]
properties('MP2/aug-cc-pvtz', properties = ['dipole'])
--------------------------------------------------------------------------

    Molecular point group: c1
  Charge       = 0
  Multiplicity = 1
  Basis Set: AUG-CC-PVTZ
    Blend: AUG-CC-PVTZ
  Basis Set: (AUG-CC-PVTZ AUX)
    Blend: AUG-CC-PVTZ-JKFIT + DEF2-UNIVERSAL-JKFIT

    Orbital Energies [Eh]
    ---------------------

    Doubly Occupied:

       1A    -11.284383     2A    -11.235290     3A    -11.228223
       4A     -7.706530     5A     -5.537723     6A     -5.528917
       7A     -5.528858     8A     -2.266999     9A     -2.262680
      10A     -2.262620    11A     -2.252855    12A     -2.252854
      13A     -1.085921    14A     -0.963052    15A     -0.857583
      16A     -0.810739    17A     -0.661398    18A     -0.597426
      19A     -0.568276    20A     -0.556275    21A     -0.509647
      22A     -0.498383    23A     -0.432750    24A     -0.356689
      25A     -0.356476

  @DF-RHF Final Energy:  -412.38743607683074

   => Energetics <=

    Nuclear Repulsion Energy =            182.7917085784172571
    One-Electron Energy =               -1035.1531927355163134
    Two-Electron Energy =                 439.9740480802683464
    Total Energy =                       -412.3874360768307383
  Basis Set: (AUG-CC-PVTZ AUX)
    Blend: AUG-CC-PVTZ-RI + DEF2-QZVPP-RI
    Molecular point group: c1

    Geometry (in Angstrom), charge = 0, multiplicity = 1:

       Center              X                  Y                   Z               Mass
    ------------   -----------------  -----------------  -----------------  -----------------
         I           -0.821135516778    -0.024572056212     0.000238995227   126.904471900000
         C            2.217330483222    -0.494323056212     0.000229995227    12.000000000000
         C            1.228109483222     0.659437943788     0.000230995227    12.000000000000
         C            3.656483483222     0.026011943788     0.000245995227    12.000000000000
         H            2.052212983222    -1.093732656212     0.838815995227     1.007825032230
         H            2.044315483222    -1.122430056212    -0.878533004773     1.007825032230
         H            1.329733483222     1.281960943788    -0.889385004773     1.007825032230
         H            1.329741483222     1.281966943788     0.889841995227     1.007825032230
         H            4.368031483222    -0.803491056212     0.000189995227     1.007825032230
         H            3.855625483222     0.637102943788    -0.884320004773     1.007825032230
         H            3.855640483222     0.637000943788     0.884877995227     1.007825032230

  Basis Set: AUG-CC-PVTZ
    Blend: AUG-CC-PVTZ
  Basis Set: (AUG-CC-PVTZ AUX)
    Blend: AUG-CC-PVTZ-JKFIT + DEF2-UNIVERSAL-JKFIT
	 Reference Energy          =    -412.3874360768307383 [Eh]
	 Singles Energy            =      -0.0000000000000000 [Eh]
	 Same-Spin Energy          =      -0.2012438906032128 [Eh]
	 Opposite-Spin Energy      =      -0.6473475366949314 [Eh]
	 Correlation Energy        =      -0.8485914272981443 [Eh]
	 Total Energy              =    -413.2360275041288560 [Eh]

	 ================> DF-SCS-MP2 Energies <==================
	-----------------------------------------------------------
	 SCS Same-Spin Scale       =       0.3333333333333333 [-]
	 SCS Opposite-Spin Scale   =       1.2000000000000000 [-]
	 SCS Same-Spin Energy      =      -0.0670812968677376 [Eh]
	 SCS Opposite-Spin Energy  =      -0.7768170440339176 [Eh]
	 SCS Correlation Energy    =      -0.8438983409016552 [Eh]
	 SCS Total Energy          =    -413.2313344177323984 [Eh]
	-----------------------------------------------------------

  Dipole Moment: [D]
     X:     2.0391      Y:     0.3416      Z:     0.0141     Total:     2.0676

*** Psi4 exiting successfully. Buy a developer a beer!
