                               Psi4 1.4a3.dev225

  ==> Input File <==

--------------------------------------------------------------------------
#psi4
#
memory 32 gb

molecule  {
0 1
  I       -1.0016291    -0.1428217     0.1912739
  C        1.9876030    -0.5024530    -0.0000080
  C        0.9983820     0.6513080    -0.0000070
  C        3.4267560     0.0178820     0.0000080
  H        1.8145770    -1.1305720     0.8787430
  H        1.8145880    -1.1305600    -0.8787710
  H        1.1000060     1.2738310    -0.8896230
  H        1.1000140     1.2738370     0.8896040
  H        4.1383040    -0.8116210    -0.0000480
  H        3.6258980     0.6289730    -0.8845580
  H        3.6259130     0.6288710     0.8846400
units angstrom
no_reorient  #important for SAPT in psi4, default
symmetry c1  #important for SAPT in psi4, default
}

set PROPERTIES_ORIGIN ["COM"]
properties('MP2/aug-cc-pvtz', properties = ['dipole'])
--------------------------------------------------------------------------

    Molecular point group: c1
  Charge       = 0
  Multiplicity = 1
  Basis Set: AUG-CC-PVTZ
    Blend: AUG-CC-PVTZ
  Basis Set: (AUG-CC-PVTZ AUX)
    Blend: AUG-CC-PVTZ-JKFIT + DEF2-UNIVERSAL-JKFIT

    Orbital Energies [Eh]
    ---------------------

    Doubly Occupied:

       1A    -11.284918     2A    -11.240507     3A    -11.227650
       4A     -7.706622     5A     -5.537854     6A     -5.528975
       7A     -5.528940     8A     -2.267138     9A     -2.262789
      10A     -2.262757    11A     -2.252908    12A     -2.252905
      13A     -1.084407    14A     -0.962684    15A     -0.853726
      16A     -0.809352    17A     -0.658460    18A     -0.596305
      19A     -0.567695    20A     -0.557263    21A     -0.506862
      22A     -0.494799    23A     -0.432394    24A     -0.356947
      25A     -0.356059

  @DF-RHF Final Energy:  -412.38674361918538

   => Energetics <=

    Nuclear Repulsion Energy =            183.4145166663621751
    One-Electron Energy =               -1036.4206879020268843
    Two-Electron Energy =                 440.6194276164793564
    Total Energy =                       -412.3867436191853812
  Basis Set: (AUG-CC-PVTZ AUX)
    Blend: AUG-CC-PVTZ-RI + DEF2-QZVPP-RI
    Molecular point group: c1

    Geometry (in Angstrom), charge = 0, multiplicity = 1:

       Center              X                  Y                   Z               Mass
    ------------   -----------------  -----------------  -----------------  -----------------
         I           -0.808616486962    -0.052297790229     0.048454862045   126.904471900000
         C            2.180615613038    -0.411929090229    -0.142827037955    12.000000000000
         C            1.191394613038     0.741831909771    -0.142826037955    12.000000000000
         C            3.619768613038     0.108405909771    -0.142811037955    12.000000000000
         H            2.007589613038    -1.040048090229     0.735923962045     1.007825032230
         H            2.007600613038    -1.040036090229    -1.021590037955     1.007825032230
         H            1.293018613038     1.364354909771    -1.032442037955     1.007825032230
         H            1.293026613038     1.364360909771     0.746784962045     1.007825032230
         H            4.331316613038    -0.721097090229    -0.142867037955     1.007825032230
         H            3.818910613038     0.719496909771    -1.027377037955     1.007825032230
         H            3.818925613038     0.719394909771     0.741820962045     1.007825032230

  Basis Set: AUG-CC-PVTZ
    Blend: AUG-CC-PVTZ
  Basis Set: (AUG-CC-PVTZ AUX)
    Blend: AUG-CC-PVTZ-JKFIT + DEF2-UNIVERSAL-JKFIT
	 Reference Energy          =    -412.3867436191853812 [Eh]
	 Singles Energy            =      -0.0000000000000000 [Eh]
	 Same-Spin Energy          =      -0.2014811966941421 [Eh]
	 Opposite-Spin Energy      =      -0.6480156688386289 [Eh]
	 Correlation Energy        =      -0.8494968655327710 [Eh]
	 Total Energy              =    -413.2362404847181665 [Eh]

	 ================> DF-SCS-MP2 Energies <==================
	-----------------------------------------------------------
	 SCS Same-Spin Scale       =       0.3333333333333333 [-]
	 SCS Opposite-Spin Scale   =       1.2000000000000000 [-]
	 SCS Same-Spin Energy      =      -0.0671603988980474 [Eh]
	 SCS Opposite-Spin Energy  =      -0.7776188026063547 [Eh]
	 SCS Correlation Energy    =      -0.8447792015044021 [Eh]
	 SCS Total Energy          =    -413.2315228206898041 [Eh]
	-----------------------------------------------------------

  Dipole Moment: [D]
     X:     1.9999      Y:     0.4168      Z:    -0.1128     Total:     2.0460

*** Psi4 exiting successfully. Buy a developer a beer!
