                               Psi4 1.4a3.dev225

  ==> Input File <==

--------------------------------------------------------------------------
#psi4
#
memory 32 gb

molecule  {
0 1
  I       -1.0508630    -0.0327020     0.0000010
  C        1.9876030    -0.5024530    -0.0000080
  C        0.9983820     0.6513080    -0.0000070
  C        3.4267560     0.0178820     0.0000080
  H        1.7829431    -1.2454095     1.0394030
  H        1.8145880    -1.1305600    -0.8787710
  H        1.1000060     1.2738310    -0.8896230
  H        1.1000140     1.2738370     0.8896040
  H        4.1383040    -0.8116210    -0.0000480
  H        3.6258980     0.6289730    -0.8845580
  H        3.6259130     0.6288710     0.8846400
units angstrom
no_reorient  #important for SAPT in psi4, default
symmetry c1  #important for SAPT in psi4, default
}

set PROPERTIES_ORIGIN ["COM"]
properties('MP2/aug-cc-pvtz', properties = ['dipole'])
--------------------------------------------------------------------------

    Molecular point group: c1
  Charge       = 0
  Multiplicity = 1
  Basis Set: AUG-CC-PVTZ
    Blend: AUG-CC-PVTZ
  Basis Set: (AUG-CC-PVTZ AUX)
    Blend: AUG-CC-PVTZ-JKFIT + DEF2-UNIVERSAL-JKFIT

    Orbital Energies [Eh]
    ---------------------

    Doubly Occupied:

       1A    -11.286826     2A    -11.264184     3A    -11.230906
       4A     -7.706901     5A     -5.538156     6A     -5.529244
       7A     -5.529194     8A     -2.267443     9A     -2.263077
      10A     -2.263026    11A     -2.253146    12A     -2.253144
      13A     -1.080173    14A     -0.964394    15A     -0.852379
      16A     -0.797916    17A     -0.649768    18A     -0.596262
      19A     -0.567946    20A     -0.558617    21A     -0.507232
      22A     -0.471151    23A     -0.433099    24A     -0.356927
      25A     -0.356712

  @DF-RHF Final Energy:  -412.36851794309734

   => Energetics <=

    Nuclear Repulsion Energy =            181.7735533576242801
    One-Electron Energy =               -1033.1284955644860020
    Two-Electron Energy =                 438.9864242637644338
    Total Energy =                       -412.3685179430973449
  Basis Set: (AUG-CC-PVTZ AUX)
    Blend: AUG-CC-PVTZ-RI + DEF2-QZVPP-RI
    Molecular point group: c1

    Geometry (in Angstrom), charge = 0, multiplicity = 1:

       Center              X                  Y                   Z               Mass
    ------------   -----------------  -----------------  -----------------  -----------------
         I           -0.820901038094    -0.023720851223    -0.000951857671   126.904471900000
         C            2.217564961906    -0.493471851223    -0.000960857671    12.000000000000
         C            1.228343961906     0.660289148777    -0.000959857671    12.000000000000
         C            3.656717961906     0.026863148777    -0.000944857671    12.000000000000
         H            2.012905061906    -1.236428351223     1.038450142329     1.007825032230
         H            2.044549961906    -1.121578851223    -0.879723857671     1.007825032230
         H            1.329967961906     1.282812148777    -0.890575857671     1.007825032230
         H            1.329975961906     1.282818148777     0.888651142329     1.007825032230
         H            4.368265961906    -0.802639851223    -0.001000857671     1.007825032230
         H            3.855859961906     0.637954148777    -0.885510857671     1.007825032230
         H            3.855874961906     0.637852148777     0.883687142329     1.007825032230

  Basis Set: AUG-CC-PVTZ
    Blend: AUG-CC-PVTZ
  Basis Set: (AUG-CC-PVTZ AUX)
    Blend: AUG-CC-PVTZ-JKFIT + DEF2-UNIVERSAL-JKFIT
	 Reference Energy          =    -412.3685179430973449 [Eh]
	 Singles Energy            =      -0.0000000000000000 [Eh]
	 Same-Spin Energy          =      -0.2013734258960145 [Eh]
	 Opposite-Spin Energy      =      -0.6493285516661842 [Eh]
	 Correlation Energy        =      -0.8507019775621987 [Eh]
	 Total Energy              =    -413.2192199206595546 [Eh]

	 ================> DF-SCS-MP2 Energies <==================
	-----------------------------------------------------------
	 SCS Same-Spin Scale       =       0.3333333333333333 [-]
	 SCS Opposite-Spin Scale   =       1.2000000000000000 [-]
	 SCS Same-Spin Energy      =      -0.0671244752986715 [Eh]
	 SCS Opposite-Spin Energy  =      -0.7791942619994210 [Eh]
	 SCS Correlation Energy    =      -0.8463187372980925 [Eh]
	 SCS Total Energy          =    -413.2148366803954218 [Eh]
	-----------------------------------------------------------

  Dipole Moment: [D]
     X:     2.0594      Y:     0.4417      Z:    -0.0857     Total:     2.1080

*** Psi4 exiting successfully. Buy a developer a beer!
