                               Psi4 1.4a3.dev225

  ==> Input File <==

--------------------------------------------------------------------------
#psi4
#
memory 32 gb

molecule  {
0 1
  I       -1.0508630    -0.0327020     0.0000010
  C        1.9876030    -0.5024530    -0.0000080
  C        0.9983820     0.6513080    -0.0000070
  C        3.4267560     0.0178820     0.0000080
  H        1.8145770    -1.1305720     0.8787430
  H        1.8145880    -1.1305600    -0.8787710
  H        1.1093247     1.3309149    -0.9711987
  H        1.1000140     1.2738370     0.8896040
  H        4.1383040    -0.8116210    -0.0000480
  H        3.6258980     0.6289730    -0.8845580
  H        3.6259130     0.6288710     0.8846400
units angstrom
no_reorient  #important for SAPT in psi4, default
symmetry c1  #important for SAPT in psi4, default
}

set PROPERTIES_ORIGIN ["COM"]
properties('MP2/aug-cc-pvtz', properties = ['dipole'])
--------------------------------------------------------------------------

    Molecular point group: c1
  Charge       = 0
  Multiplicity = 1
  Basis Set: AUG-CC-PVTZ
    Blend: AUG-CC-PVTZ
  Basis Set: (AUG-CC-PVTZ AUX)
    Blend: AUG-CC-PVTZ-JKFIT + DEF2-UNIVERSAL-JKFIT

    Orbital Energies [Eh]
    ---------------------

    Doubly Occupied:

       1A    -11.295420     2A    -11.242249     3A    -11.228495
       4A     -7.707103     5A     -5.538348     6A     -5.529456
       7A     -5.529399     8A     -2.267636     9A     -2.263279
      10A     -2.263223    11A     -2.253360    12A     -2.253359
      13A     -1.081693    14A     -0.959517    15A     -0.856002
      16A     -0.800478    17A     -0.652594    18A     -0.595667
      19A     -0.561475    20A     -0.554276    21A     -0.507182
      22A     -0.493112    23A     -0.432351    24A     -0.357060
      25A     -0.355966

  @DF-RHF Final Energy:  -412.38145362382193

   => Energetics <=

    Nuclear Repulsion Energy =            182.1096905720118286
    One-Electron Energy =               -1033.8248907718304963
    Two-Electron Energy =                 439.3337465759967699
    Total Energy =                       -412.3814536238219262
  Basis Set: (AUG-CC-PVTZ AUX)
    Blend: AUG-CC-PVTZ-RI + DEF2-QZVPP-RI
    Molecular point group: c1

    Geometry (in Angstrom), charge = 0, multiplicity = 1:

       Center              X                  Y                   Z               Mass
    ------------   -----------------  -----------------  -----------------  -----------------
         I           -0.821143878987    -0.024740311438     0.000484552564   126.904471900000
         C            2.217322121013    -0.494491311438     0.000475552564    12.000000000000
         C            1.228101121013     0.659269688562     0.000476552564    12.000000000000
         C            3.656475121013     0.025843688562     0.000491552564    12.000000000000
         H            2.044296121013    -1.122610311438     0.879226552564     1.007825032230
         H            2.044307121013    -1.122598311438    -0.878287447436     1.007825032230
         H            1.339043821013     1.338876588562    -0.970715147436     1.007825032230
         H            1.329733121013     1.281798688562     0.890087552564     1.007825032230
         H            4.368023121013    -0.803659311438     0.000435552564     1.007825032230
         H            3.855617121013     0.636934688562    -0.884074447436     1.007825032230
         H            3.855632121013     0.636832688562     0.885123552564     1.007825032230

  Basis Set: AUG-CC-PVTZ
    Blend: AUG-CC-PVTZ
  Basis Set: (AUG-CC-PVTZ AUX)
    Blend: AUG-CC-PVTZ-JKFIT + DEF2-UNIVERSAL-JKFIT
	 Reference Energy          =    -412.3814536238219262 [Eh]
	 Singles Energy            =      -0.0000000000000000 [Eh]
	 Same-Spin Energy          =      -0.2014636892069651 [Eh]
	 Opposite-Spin Energy      =      -0.6485674002520667 [Eh]
	 Correlation Energy        =      -0.8500310894590317 [Eh]
	 Total Energy              =    -413.2314847132809632 [Eh]

	 ================> DF-SCS-MP2 Energies <==================
	-----------------------------------------------------------
	 SCS Same-Spin Scale       =       0.3333333333333333 [-]
	 SCS Opposite-Spin Scale   =       1.2000000000000000 [-]
	 SCS Same-Spin Energy      =      -0.0671545630689883 [Eh]
	 SCS Opposite-Spin Energy  =      -0.7782808803024800 [Eh]
	 SCS Correlation Energy    =      -0.8454354433714684 [Eh]
	 SCS Total Energy          =    -413.2268890671933832 [Eh]
	-----------------------------------------------------------

  Dipole Moment: [D]
     X:     2.0262      Y:     0.3263      Z:     0.0139     Total:     2.0523

*** Psi4 exiting successfully. Buy a developer a beer!
