                               Psi4 1.4a3.dev225

  ==> Input File <==

--------------------------------------------------------------------------
#psi4
#
memory 32 gb

molecule  {
0 1
  I       -1.0508630    -0.0327020     0.0000010
  C        1.9833068    -0.4898844    -0.0231800
  C        0.9983820     0.6513080    -0.0000070
  C        3.4267560     0.0178820     0.0000080
  H        1.8145770    -1.1305720     0.8787430
  H        1.8145880    -1.1305600    -0.8787710
  H        1.1000060     1.2738310    -0.8896230
  H        1.1000140     1.2738370     0.8896040
  H        4.1383040    -0.8116210    -0.0000480
  H        3.6258980     0.6289730    -0.8845580
  H        3.6259130     0.6288710     0.8846400
units angstrom
no_reorient  #important for SAPT in psi4, default
symmetry c1  #important for SAPT in psi4, default
}

set PROPERTIES_ORIGIN ["COM"]
properties('MP2/aug-cc-pvtz', properties = ['dipole'])
--------------------------------------------------------------------------

    Molecular point group: c1
  Charge       = 0
  Multiplicity = 1
  Basis Set: AUG-CC-PVTZ
    Blend: AUG-CC-PVTZ
  Basis Set: (AUG-CC-PVTZ AUX)
    Blend: AUG-CC-PVTZ-JKFIT + DEF2-UNIVERSAL-JKFIT

    Orbital Energies [Eh]
    ---------------------

    Doubly Occupied:

       1A    -11.284431     2A    -11.241715     3A    -11.228703
       4A     -7.706854     5A     -5.538072     6A     -5.529223
       7A     -5.529168     8A     -2.267352     9A     -2.263014
      10A     -2.262959    11A     -2.253146    12A     -2.253145
      13A     -1.085633    14A     -0.963610    15A     -0.856034
      16A     -0.806676    17A     -0.658195    18A     -0.598234
      19A     -0.567925    20A     -0.557822    21A     -0.509770
      22A     -0.490130    23A     -0.432993    24A     -0.357142
      25A     -0.356713

  @DF-RHF Final Energy:  -412.38749954286510

   => Energetics <=

    Nuclear Repulsion Energy =            182.6999418974932610
    One-Electron Energy =               -1034.9775650991728071
    Two-Electron Energy =                 439.8901236588143888
    Total Energy =                       -412.3874995428651005
  Basis Set: (AUG-CC-PVTZ AUX)
    Blend: AUG-CC-PVTZ-RI + DEF2-QZVPP-RI
    Molecular point group: c1

    Geometry (in Angstrom), charge = 0, multiplicity = 1:

       Center              X                  Y                   Z               Mass
    ------------   -----------------  -----------------  -----------------  -----------------
         I           -0.820785287030    -0.025289223122     0.001636887437   126.904471900000
         C            2.213384512970    -0.482471623122    -0.021544112563    12.000000000000
         C            1.228459712970     0.658720776878     0.001628887437    12.000000000000
         C            3.656833712970     0.025294776878     0.001643887437    12.000000000000
         H            2.044654712970    -1.123159223122     0.880378887437     1.007825032230
         H            2.044665712970    -1.123147223122    -0.877135112563     1.007825032230
         H            1.330083712970     1.281243776878    -0.887987112563     1.007825032230
         H            1.330091712970     1.281249776878     0.891239887437     1.007825032230
         H            4.368381712970    -0.804208223122     0.001587887437     1.007825032230
         H            3.855975712970     0.636385776878    -0.882922112563     1.007825032230
         H            3.855990712970     0.636283776878     0.886275887437     1.007825032230

  Basis Set: AUG-CC-PVTZ
    Blend: AUG-CC-PVTZ
  Basis Set: (AUG-CC-PVTZ AUX)
    Blend: AUG-CC-PVTZ-JKFIT + DEF2-UNIVERSAL-JKFIT
	 Reference Energy          =    -412.3874995428651005 [Eh]
	 Singles Energy            =      -0.0000000000000000 [Eh]
	 Same-Spin Energy          =      -0.2013622798835725 [Eh]
	 Opposite-Spin Energy      =      -0.6477789575715083 [Eh]
	 Correlation Energy        =      -0.8491412374550809 [Eh]
	 Total Energy              =    -413.2366407803201582 [Eh]

	 ================> DF-SCS-MP2 Energies <==================
	-----------------------------------------------------------
	 SCS Same-Spin Scale       =       0.3333333333333333 [-]
	 SCS Opposite-Spin Scale   =       1.2000000000000000 [-]
	 SCS Same-Spin Energy      =      -0.0671207599611908 [Eh]
	 SCS Opposite-Spin Energy  =      -0.7773347490858099 [Eh]
	 SCS Correlation Energy    =      -0.8444555090470007 [Eh]
	 SCS Total Energy          =    -413.2319550519121094 [Eh]
	-----------------------------------------------------------

  Dipole Moment: [D]
     X:     2.0314      Y:     0.3591      Z:    -0.0097     Total:     2.0630

*** Psi4 exiting successfully. Buy a developer a beer!
