                               Psi4 1.4a3.dev225

  ==> Input File <==

--------------------------------------------------------------------------
#psi4
#
memory 32 gb

molecule  {
0 1
  I       -1.0508630    -0.0327020     0.0000010
  C        1.9876030    -0.5024530    -0.0000080
  C        0.9983820     0.6513080    -0.0000070
  C        3.6148400     0.0858850     0.0000101
  H        1.8145770    -1.1305720     0.8787430
  H        1.8145880    -1.1305600    -0.8787710
  H        1.1000060     1.2738310    -0.8896230
  H        1.1000140     1.2738370     0.8896040
  H        4.1383040    -0.8116210    -0.0000480
  H        3.6258980     0.6289730    -0.8845580
  H        3.6259130     0.6288710     0.8846400
units angstrom
no_reorient  #important for SAPT in psi4, default
symmetry c1  #important for SAPT in psi4, default
}

set PROPERTIES_ORIGIN ["COM"]
properties('MP2/aug-cc-pvtz', properties = ['dipole'])
--------------------------------------------------------------------------

    Molecular point group: c1
  Charge       = 0
  Multiplicity = 1
  Basis Set: AUG-CC-PVTZ
    Blend: AUG-CC-PVTZ
  Basis Set: (AUG-CC-PVTZ AUX)
    Blend: AUG-CC-PVTZ-JKFIT + DEF2-UNIVERSAL-JKFIT

    Orbital Energies [Eh]
    ---------------------

    Doubly Occupied:

       1A    -11.284617     2A    -11.247577     3A    -11.226534
       4A     -7.705959     5A     -5.537148     6A     -5.528349
       7A     -5.528276     8A     -2.266424     9A     -2.262114
      10A     -2.262039    11A     -2.252286    12A     -2.252285
      13A     -1.065337    14A     -0.962172    15A     -0.863005
      16A     -0.805454    17A     -0.654920    18A     -0.609079
      19A     -0.588524    20A     -0.532593    21A     -0.509021
      22A     -0.505503    23A     -0.410599    24A     -0.355987
      25A     -0.354682

  @DF-RHF Final Energy:  -412.36171753888669

   => Energetics <=

    Nuclear Repulsion Energy =            180.0693814661330521
    One-Electron Energy =               -1029.7212309030828692
    Two-Electron Energy =                 437.2901318980630663
    Total Energy =                       -412.3617175388866940
  Basis Set: (AUG-CC-PVTZ AUX)
    Blend: AUG-CC-PVTZ-RI + DEF2-QZVPP-RI
    Molecular point group: c1

    Geometry (in Angstrom), charge = 0, multiplicity = 1:

       Center              X                  Y                   Z               Mass
    ------------   -----------------  -----------------  -----------------  -----------------
         I           -0.834368322017    -0.029203177857     0.000000676377   126.904471900000
         C            2.204097677983    -0.498954177857    -0.000008323623    12.000000000000
         C            1.214876677983     0.654806822143    -0.000007323623    12.000000000000
         C            3.831334677983     0.089383822143     0.000009776377    12.000000000000
         H            2.031071677983    -1.127073177857     0.878742676377     1.007825032230
         H            2.031082677983    -1.127061177857    -0.878771323623     1.007825032230
         H            1.316500677983     1.277329822143    -0.889623323623     1.007825032230
         H            1.316508677983     1.277335822143     0.889603676377     1.007825032230
         H            4.354798677983    -0.808122177857    -0.000048323623     1.007825032230
         H            3.842392677983     0.632471822143    -0.884558323623     1.007825032230
         H            3.842407677983     0.632369822143     0.884639676377     1.007825032230

  Basis Set: AUG-CC-PVTZ
    Blend: AUG-CC-PVTZ
  Basis Set: (AUG-CC-PVTZ AUX)
    Blend: AUG-CC-PVTZ-JKFIT + DEF2-UNIVERSAL-JKFIT
	 Reference Energy          =    -412.3617175388866940 [Eh]
	 Singles Energy            =      -0.0000000000000000 [Eh]
	 Same-Spin Energy          =      -0.2013199814519194 [Eh]
	 Opposite-Spin Energy      =      -0.6488725644197810 [Eh]
	 Correlation Energy        =      -0.8501925458717005 [Eh]
	 Total Energy              =    -413.2119100847584150 [Eh]

	 ================> DF-SCS-MP2 Energies <==================
	-----------------------------------------------------------
	 SCS Same-Spin Scale       =       0.3333333333333333 [-]
	 SCS Opposite-Spin Scale   =       1.2000000000000000 [-]
	 SCS Same-Spin Energy      =      -0.0671066604839731 [Eh]
	 SCS Opposite-Spin Energy  =      -0.7786470773037372 [Eh]
	 SCS Correlation Energy    =      -0.8457537377877103 [Eh]
	 SCS Total Energy          =    -413.2074712766744256 [Eh]
	-----------------------------------------------------------

  Dipole Moment: [D]
     X:     1.9999      Y:     0.3560      Z:    -0.0000     Total:     2.0313

*** Psi4 exiting successfully. Buy a developer a beer!
