                               Psi4 1.4a3.dev225

  ==> Input File <==

--------------------------------------------------------------------------
#psi4
#
memory 32 gb

molecule  {
0 1
  I       -1.0508630    -0.0327020     0.0000010
  C        1.9876030    -0.5024530    -0.0000080
  C        0.9983820     0.6513080    -0.0000070
  C        3.4267560     0.0178820     0.0000080
  H        1.8145770    -1.1305720     0.8787430
  H        1.8145880    -1.1305600    -0.8787710
  H        1.1000060     1.2738310    -0.8896230
  H        1.1000140     1.2738370     0.8896040
  H        4.1383040    -0.8116210    -0.0000480
  H        3.6258980     0.6289730    -0.8845580
  H        3.6295559     0.6400468     0.9008212
units angstrom
no_reorient  #important for SAPT in psi4, default
symmetry c1  #important for SAPT in psi4, default
}

set PROPERTIES_ORIGIN ["COM"]
properties('MP2/aug-cc-pvtz', properties = ['dipole'])
--------------------------------------------------------------------------

    Molecular point group: c1
  Charge       = 0
  Multiplicity = 1
  Basis Set: AUG-CC-PVTZ
    Blend: AUG-CC-PVTZ
  Basis Set: (AUG-CC-PVTZ AUX)
    Blend: AUG-CC-PVTZ-JKFIT + DEF2-UNIVERSAL-JKFIT

    Orbital Energies [Eh]
    ---------------------

    Doubly Occupied:

       1A    -11.284804     2A    -11.241676     3A    -11.231119
       4A     -7.706600     5A     -5.537802     6A     -5.528979
       7A     -5.528923     8A     -2.267079     9A     -2.262753
      10A     -2.262697    11A     -2.252913    12A     -2.252912
      13A     -1.083769    14A     -0.962336    15A     -0.854988
      16A     -0.807198    17A     -0.658129    18A     -0.596801
      19A     -0.566585    20A     -0.556430    21A     -0.507131
      22A     -0.494229    23A     -0.432957    24A     -0.356750
      25A     -0.356537

  @DF-RHF Final Energy:  -412.38793704574073

   => Energetics <=

    Nuclear Repulsion Energy =            182.4870840452411187
    One-Electron Energy =               -1034.5658501121783956
    Two-Electron Energy =                 439.6908290211965777
    Total Energy =                       -412.3879370457407276
  Basis Set: (AUG-CC-PVTZ AUX)
    Blend: AUG-CC-PVTZ-RI + DEF2-QZVPP-RI
    Molecular point group: c1

    Geometry (in Angstrom), charge = 0, multiplicity = 1:

       Center              X                  Y                   Z               Mass
    ------------   -----------------  -----------------  -----------------  -----------------
         I           -0.821110222606    -0.024468085400    -0.000095126698   126.904471900000
         C            2.217355777394    -0.494219085400    -0.000104126698    12.000000000000
         C            1.228134777394     0.659541914600    -0.000103126698    12.000000000000
         C            3.656508777394     0.026115914600    -0.000088126698    12.000000000000
         H            2.044329777394    -1.122338085400     0.878646873302     1.007825032230
         H            2.044340777394    -1.122326085400    -0.878867126698     1.007825032230
         H            1.329758777394     1.282064914600    -0.889719126698     1.007825032230
         H            1.329766777394     1.282070914600     0.889507873302     1.007825032230
         H            4.368056777394    -0.803387085400    -0.000144126698     1.007825032230
         H            3.855650777394     0.637206914600    -0.884654126698     1.007825032230
         H            3.859308677394     0.648280714600     0.900725073302     1.007825032230

  Basis Set: AUG-CC-PVTZ
    Blend: AUG-CC-PVTZ
  Basis Set: (AUG-CC-PVTZ AUX)
    Blend: AUG-CC-PVTZ-JKFIT + DEF2-UNIVERSAL-JKFIT
	 Reference Energy          =    -412.3879370457407276 [Eh]
	 Singles Energy            =      -0.0000000000000000 [Eh]
	 Same-Spin Energy          =      -0.2012515435314413 [Eh]
	 Opposite-Spin Energy      =      -0.6477516179416992 [Eh]
	 Correlation Energy        =      -0.8490031614731405 [Eh]
	 Total Energy              =    -413.2369402072138769 [Eh]

	 ================> DF-SCS-MP2 Energies <==================
	-----------------------------------------------------------
	 SCS Same-Spin Scale       =       0.3333333333333333 [-]
	 SCS Opposite-Spin Scale   =       1.2000000000000000 [-]
	 SCS Same-Spin Energy      =      -0.0670838478438138 [Eh]
	 SCS Opposite-Spin Energy  =      -0.7773019415300391 [Eh]
	 SCS Correlation Energy    =      -0.8443857893738528 [Eh]
	 SCS Total Energy          =    -413.2323228351145872 [Eh]
	-----------------------------------------------------------

  Dipole Moment: [D]
     X:     2.0374      Y:     0.3490      Z:    -0.0090     Total:     2.0671

*** Psi4 exiting successfully. Buy a developer a beer!
