                               Psi4 1.4a3.dev225

  ==> Input File <==

--------------------------------------------------------------------------
#psi4
#
memory 32 gb

molecule  {
0 1
  I       -1.0508630    -0.0327020     0.0000010
  C        1.9876030    -0.5024530    -0.0000080
  C        0.9983820     0.6513080    -0.0000070
  C        3.3327140    -0.0161195     0.0000070
  H        1.8145770    -1.1305720     0.8787430
  H        1.8145880    -1.1305600    -0.8787710
  H        1.1000060     1.2738310    -0.8896230
  H        1.1000140     1.2738370     0.8896040
  H        4.1383040    -0.8116210    -0.0000480
  H        3.6258980     0.6289730    -0.8845580
  H        3.6259130     0.6288710     0.8846400
units angstrom
no_reorient  #important for SAPT in psi4, default
symmetry c1  #important for SAPT in psi4, default
}

set PROPERTIES_ORIGIN ["COM"]
properties('MP2/aug-cc-pvtz', properties = ['dipole'])
--------------------------------------------------------------------------

    Molecular point group: c1
  Charge       = 0
  Multiplicity = 1
  Basis Set: AUG-CC-PVTZ
    Blend: AUG-CC-PVTZ
  Basis Set: (AUG-CC-PVTZ AUX)
    Blend: AUG-CC-PVTZ-JKFIT + DEF2-UNIVERSAL-JKFIT

    Orbital Energies [Eh]
    ---------------------

    Doubly Occupied:

       1A    -11.285357     2A    -11.237421     3A    -11.234418
       4A     -7.706959     5A     -5.538168     6A     -5.529333
       7A     -5.529284     8A     -2.267447     9A     -2.263113
      10A     -2.263064    11A     -2.253265    12A     -2.253264
      13A     -1.099956    14A     -0.965954    15A     -0.850231
      16A     -0.808318    17A     -0.662732    18A     -0.598233
      19A     -0.582622    20A     -0.562763    21A     -0.492642
      22A     -0.480110    23A     -0.437264    24A     -0.357377
      25A     -0.356864

  @DF-RHF Final Energy:  -412.37706633079119

   => Energetics <=

    Nuclear Repulsion Energy =            183.9421647292104183
    One-Electron Energy =               -1037.4061385703960241
    Two-Electron Energy =                 441.0869075103944397
    Total Energy =                       -412.3770663307911946
  Basis Set: (AUG-CC-PVTZ AUX)
    Blend: AUG-CC-PVTZ-RI + DEF2-QZVPP-RI
    Molecular point group: c1

    Geometry (in Angstrom), charge = 0, multiplicity = 1:

       Center              X                  Y                   Z               Mass
    ------------   -----------------  -----------------  -----------------  -----------------
         I           -0.814448770375    -0.022001133716     0.000000895253   126.904471900000
         C            2.224017229625    -0.491752133716    -0.000008104747    12.000000000000
         C            1.234796229625     0.662008866284    -0.000007104747    12.000000000000
         C            3.569128229625    -0.005418633716     0.000006895253    12.000000000000
         H            2.050991229625    -1.119871133716     0.878742895253     1.007825032230
         H            2.051002229625    -1.119859133716    -0.878771104747     1.007825032230
         H            1.336420229625     1.284531866284    -0.889623104747     1.007825032230
         H            1.336428229625     1.284537866284     0.889603895253     1.007825032230
         H            4.374718229625    -0.800920133716    -0.000048104747     1.007825032230
         H            3.862312229625     0.639673866284    -0.884558104747     1.007825032230
         H            3.862327229625     0.639571866284     0.884639895253     1.007825032230

  Basis Set: AUG-CC-PVTZ
    Blend: AUG-CC-PVTZ
  Basis Set: (AUG-CC-PVTZ AUX)
    Blend: AUG-CC-PVTZ-JKFIT + DEF2-UNIVERSAL-JKFIT
	 Reference Energy          =    -412.3770663307911946 [Eh]
	 Singles Energy            =      -0.0000000000000000 [Eh]
	 Same-Spin Energy          =      -0.2022281202386009 [Eh]
	 Opposite-Spin Energy      =      -0.6487907123148682 [Eh]
	 Correlation Energy        =      -0.8510188325534691 [Eh]
	 Total Energy              =    -413.2280851633446446 [Eh]

	 ================> DF-SCS-MP2 Energies <==================
	-----------------------------------------------------------
	 SCS Same-Spin Scale       =       0.3333333333333333 [-]
	 SCS Opposite-Spin Scale   =       1.2000000000000000 [-]
	 SCS Same-Spin Energy      =      -0.0674093734128670 [Eh]
	 SCS Opposite-Spin Energy  =      -0.7785488547778417 [Eh]
	 SCS Correlation Energy    =      -0.8459582281907088 [Eh]
	 SCS Total Energy          =    -413.2230245589818765 [Eh]
	-----------------------------------------------------------

  Dipole Moment: [D]
     X:     2.0252      Y:     0.3396      Z:    -0.0000     Total:     2.0535

*** Psi4 exiting successfully. Buy a developer a beer!
