                               Psi4 1.4a3.dev225

  ==> Input File <==

--------------------------------------------------------------------------
#psi4
#
memory 32 gb

molecule  {
0 1
  I       -1.0508630    -0.0327020     0.0000010
  C        1.9876030    -0.5024530    -0.0000080
  C        0.9983820     0.6513080    -0.0000070
  C        3.4455644     0.0246823     0.0000082
  H        1.8145770    -1.1305720     0.8787430
  H        1.8145880    -1.1305600    -0.8787710
  H        1.1000060     1.2738310    -0.8896230
  H        1.1000140     1.2738370     0.8896040
  H        4.1383040    -0.8116210    -0.0000480
  H        3.6258980     0.6289730    -0.8845580
  H        3.6259130     0.6288710     0.8846400
units angstrom
no_reorient  #important for SAPT in psi4, default
symmetry c1  #important for SAPT in psi4, default
}

set PROPERTIES_ORIGIN ["COM"]
properties('MP2/aug-cc-pvtz', properties = ['dipole'])
--------------------------------------------------------------------------

    Molecular point group: c1
  Charge       = 0
  Multiplicity = 1
  Basis Set: AUG-CC-PVTZ
    Blend: AUG-CC-PVTZ
  Basis Set: (AUG-CC-PVTZ AUX)
    Blend: AUG-CC-PVTZ-JKFIT + DEF2-UNIVERSAL-JKFIT

    Orbital Energies [Eh]
    ---------------------

    Doubly Occupied:

       1A    -11.284696     2A    -11.242148     3A    -11.227826
       4A     -7.706492     5A     -5.537693     6A     -5.528873
       7A     -5.528816     8A     -2.266971     9A     -2.262645
      10A     -2.262588    11A     -2.252807    12A     -2.252806
      13A     -1.081447    14A     -0.962842    15A     -0.856644
      16A     -0.807226    17A     -0.657887    18A     -0.597596
      19A     -0.569695    20A     -0.551543    21A     -0.509783
      22A     -0.497418    23A     -0.431455    24A     -0.356555
      25A     -0.356443

  @DF-RHF Final Energy:  -412.38821914093825

   => Energetics <=

    Nuclear Repulsion Energy =            182.3030263581553072
    One-Electron Energy =               -1034.2006984349698087
    Two-Electron Energy =                 439.5094529358762543
    Total Energy =                       -412.3882191409382472
  Basis Set: (AUG-CC-PVTZ AUX)
    Blend: AUG-CC-PVTZ-RI + DEF2-QZVPP-RI
    Molecular point group: c1

    Geometry (in Angstrom), charge = 0, multiplicity = 1:

       Center              X                  Y                   Z               Mass
    ------------   -----------------  -----------------  -----------------  -----------------
         I           -0.822416591032    -0.024881951372     0.000000810527   126.904471900000
         C            2.216049408968    -0.494632951372    -0.000008189473    12.000000000000
         C            1.226828408968     0.659128048628    -0.000007189473    12.000000000000
         C            3.674010808968     0.032502348628     0.000008010527    12.000000000000
         H            2.043023408968    -1.122751951372     0.878742810527     1.007825032230
         H            2.043034408968    -1.122739951372    -0.878771189473     1.007825032230
         H            1.328452408968     1.281651048628    -0.889623189473     1.007825032230
         H            1.328460408968     1.281657048628     0.889603810527     1.007825032230
         H            4.366750408968    -0.803800951372    -0.000048189473     1.007825032230
         H            3.854344408968     0.636793048628    -0.884558189473     1.007825032230
         H            3.854359408968     0.636691048628     0.884639810527     1.007825032230

  Basis Set: AUG-CC-PVTZ
    Blend: AUG-CC-PVTZ
  Basis Set: (AUG-CC-PVTZ AUX)
    Blend: AUG-CC-PVTZ-JKFIT + DEF2-UNIVERSAL-JKFIT
	 Reference Energy          =    -412.3882191409382472 [Eh]
	 Singles Energy            =      -0.0000000000000000 [Eh]
	 Same-Spin Energy          =      -0.2011571290140129 [Eh]
	 Opposite-Spin Energy      =      -0.6475599149537793 [Eh]
	 Correlation Energy        =      -0.8487170439677922 [Eh]
	 Total Energy              =    -413.2369361849060283 [Eh]

	 ================> DF-SCS-MP2 Energies <==================
	-----------------------------------------------------------
	 SCS Same-Spin Scale       =       0.3333333333333333 [-]
	 SCS Opposite-Spin Scale   =       1.2000000000000000 [-]
	 SCS Same-Spin Energy      =      -0.0670523763380043 [Eh]
	 SCS Opposite-Spin Energy  =      -0.7770718979445351 [Eh]
	 SCS Correlation Energy    =      -0.8441242742825394 [Eh]
	 SCS Total Energy          =    -413.2323434152207824 [Eh]
	-----------------------------------------------------------

  Dipole Moment: [D]
     X:     2.0437      Y:     0.3581      Z:    -0.0000     Total:     2.0749

*** Psi4 exiting successfully. Buy a developer a beer!
