                               Psi4 1.4a3.dev225

  ==> Input File <==

--------------------------------------------------------------------------
#psi4
#
memory 32 gb

molecule  {
0 1
  I       -1.0508630    -0.0327020     0.0000010
  C        1.9876030    -0.5024530    -0.0000080
  C        0.9983820     0.6513080    -0.0000070
  C        3.4267560     0.0178820     0.0000080
  H        1.8145770    -1.1305720     0.8787430
  H        1.8145880    -1.1305600    -0.8787710
  H        1.1000060     1.2738310    -0.8896230
  H        1.1000140     1.2738370     0.8896040
  H        4.1383040    -0.8116210    -0.0000480
  H        3.6258980     0.6289730    -0.8845580
  H        3.6076987     0.5729918     0.8037342
units angstrom
no_reorient  #important for SAPT in psi4, default
symmetry c1  #important for SAPT in psi4, default
}

set PROPERTIES_ORIGIN ["COM"]
properties('MP2/aug-cc-pvtz', properties = ['dipole'])
--------------------------------------------------------------------------

    Molecular point group: c1
  Charge       = 0
  Multiplicity = 1
  Basis Set: AUG-CC-PVTZ
    Blend: AUG-CC-PVTZ
  Basis Set: (AUG-CC-PVTZ AUX)
    Blend: AUG-CC-PVTZ-JKFIT + DEF2-UNIVERSAL-JKFIT

    Orbital Energies [Eh]
    ---------------------

    Doubly Occupied:

       1A    -11.284623     2A    -11.240364     3A    -11.215955
       4A     -7.706433     5A     -5.537637     6A     -5.528810
       7A     -5.528757     8A     -2.266914     9A     -2.262585
      10A     -2.262532    11A     -2.252744    12A     -2.252743
      13A     -1.085804    14A     -0.968777    15A     -0.860079
      16A     -0.808846    17A     -0.660979    18A     -0.599637
      19A     -0.576023    20A     -0.556534    21A     -0.509855
      22A     -0.497721    23A     -0.432411    24A     -0.356529
      25A     -0.356395

  @DF-RHF Final Energy:  -412.38212872115707

   => Energetics <=

    Nuclear Repulsion Energy =            182.9897117023427313
    One-Electron Energy =               -1035.5243014442930871
    Two-Electron Energy =                 440.1524610207933392
    Total Energy =                       -412.3821287211570734
  Basis Set: (AUG-CC-PVTZ AUX)
    Blend: AUG-CC-PVTZ-RI + DEF2-QZVPP-RI
    Molecular point group: c1

    Geometry (in Angstrom), charge = 0, multiplicity = 1:

       Center              X                  Y                   Z               Mass
    ------------   -----------------  -----------------  -----------------  -----------------
         I           -0.820980613693    -0.024070462389     0.000480580188   126.904471900000
         C            2.217485386307    -0.493821462389     0.000471580188    12.000000000000
         C            1.228264386307     0.659939537611     0.000472580188    12.000000000000
         C            3.656638386307     0.026513537611     0.000487580188    12.000000000000
         H            2.044459386307    -1.121940462389     0.879222580188     1.007825032230
         H            2.044470386307    -1.121928462389    -0.878291419812     1.007825032230
         H            1.329888386307     1.282462537611    -0.889143419812     1.007825032230
         H            1.329896386307     1.282468537611     0.890083580188     1.007825032230
         H            4.368186386307    -0.802989462389     0.000431580188     1.007825032230
         H            3.855780386307     0.637604537611    -0.884078419812     1.007825032230
         H            3.837581086307     0.581623337611     0.804213780188     1.007825032230

  Basis Set: AUG-CC-PVTZ
    Blend: AUG-CC-PVTZ
  Basis Set: (AUG-CC-PVTZ AUX)
    Blend: AUG-CC-PVTZ-JKFIT + DEF2-UNIVERSAL-JKFIT
	 Reference Energy          =    -412.3821287211570734 [Eh]
	 Singles Energy            =      -0.0000000000000000 [Eh]
	 Same-Spin Energy          =      -0.2013317919552408 [Eh]
	 Opposite-Spin Energy      =      -0.6472327395414709 [Eh]
	 Correlation Energy        =      -0.8485645314967116 [Eh]
	 Total Energy              =    -413.2306932526537935 [Eh]

	 ================> DF-SCS-MP2 Energies <==================
	-----------------------------------------------------------
	 SCS Same-Spin Scale       =       0.3333333333333333 [-]
	 SCS Opposite-Spin Scale   =       1.2000000000000000 [-]
	 SCS Same-Spin Energy      =      -0.0671105973184136 [Eh]
	 SCS Opposite-Spin Energy  =      -0.7766792874497650 [Eh]
	 SCS Correlation Energy    =      -0.8437898847681786 [Eh]
	 SCS Total Energy          =    -413.2259186059252443 [Eh]
	-----------------------------------------------------------

  Dipole Moment: [D]
     X:     2.0661      Y:     0.3867      Z:     0.0378     Total:     2.1023

*** Psi4 exiting successfully. Buy a developer a beer!
