                               Psi4 1.4a3.dev225

  ==> Input File <==

--------------------------------------------------------------------------
#psi4
#
memory 32 gb

molecule  {
0 1
  I       -1.0508630    -0.0327020     0.0000010
  C        1.9876030    -0.5024530    -0.0000080
  C        0.9983820     0.6513080    -0.0000070
  C        3.4267560     0.0178820     0.0000080
  H        1.8145770    -1.1305720     0.8787430
  H        1.8145880    -1.1305600    -0.8787710
  H        1.1144320     1.3621960    -0.8188169
  H        1.1000140     1.2738370     0.8896040
  H        4.1383040    -0.8116210    -0.0000480
  H        3.6258980     0.6289730    -0.8845580
  H        3.6259130     0.6288710     0.8846400
units angstrom
no_reorient  #important for SAPT in psi4, default
symmetry c1  #important for SAPT in psi4, default
}

set PROPERTIES_ORIGIN ["COM"]
properties('MP2/aug-cc-pvtz', properties = ['dipole'])
--------------------------------------------------------------------------

    Molecular point group: c1
  Charge       = 0
  Multiplicity = 1
  Basis Set: AUG-CC-PVTZ
    Blend: AUG-CC-PVTZ
  Basis Set: (AUG-CC-PVTZ AUX)
    Blend: AUG-CC-PVTZ-JKFIT + DEF2-UNIVERSAL-JKFIT

    Orbital Energies [Eh]
    ---------------------

    Doubly Occupied:

       1A    -11.283851     2A    -11.242131     3A    -11.228513
       4A     -7.707216     5A     -5.538460     6A     -5.529579
       7A     -5.529502     8A     -2.267738     9A     -2.263395
      10A     -2.263316    11A     -2.253465    12A     -2.253464
      13A     -1.083288    14A     -0.963055    15A     -0.855738
      16A     -0.810606    17A     -0.653101    18A     -0.598634
      19A     -0.562960    20A     -0.557892    21A     -0.509202
      22A     -0.493619    23A     -0.434606    24A     -0.357441
      25A     -0.356313

  @DF-RHF Final Energy:  -412.38716591084369

   => Energetics <=

    Nuclear Repulsion Energy =            182.4783947265937627
    One-Electron Energy =               -1034.5369498679403932
    Two-Electron Energy =                 439.6713892305029958
    Total Energy =                       -412.3871659108436916
  Basis Set: (AUG-CC-PVTZ AUX)
    Blend: AUG-CC-PVTZ-RI + DEF2-QZVPP-RI
    Molecular point group: c1

    Geometry (in Angstrom), charge = 0, multiplicity = 1:

       Center              X                  Y                   Z               Mass
    ------------   -----------------  -----------------  -----------------  -----------------
         I           -0.821174164276    -0.024925802231    -0.000419041651   126.904471900000
         C            2.217291835724    -0.494676802231    -0.000428041651    12.000000000000
         C            1.228070835724     0.659084197769    -0.000427041651    12.000000000000
         C            3.656444835724     0.025658197769    -0.000412041651    12.000000000000
         H            2.044265835724    -1.122795802231     0.878322958349     1.007825032230
         H            2.044276835724    -1.122783802231    -0.879191041651     1.007825032230
         H            1.344120835724     1.369972197769    -0.819236941651     1.007825032230
         H            1.329702835724     1.281613197769     0.889183958349     1.007825032230
         H            4.367992835724    -0.803844802231    -0.000468041651     1.007825032230
         H            3.855586835724     0.636749197769    -0.884978041651     1.007825032230
         H            3.855601835724     0.636647197769     0.884219958349     1.007825032230

  Basis Set: AUG-CC-PVTZ
    Blend: AUG-CC-PVTZ
  Basis Set: (AUG-CC-PVTZ AUX)
    Blend: AUG-CC-PVTZ-JKFIT + DEF2-UNIVERSAL-JKFIT
	 Reference Energy          =    -412.3871659108436916 [Eh]
	 Singles Energy            =      -0.0000000000000000 [Eh]
	 Same-Spin Energy          =      -0.2012589123489041 [Eh]
	 Opposite-Spin Energy      =      -0.6476756162158636 [Eh]
	 Correlation Energy        =      -0.8489345285647676 [Eh]
	 Total Energy              =    -413.2361004394084603 [Eh]

	 ================> DF-SCS-MP2 Energies <==================
	-----------------------------------------------------------
	 SCS Same-Spin Scale       =       0.3333333333333333 [-]
	 SCS Opposite-Spin Scale   =       1.2000000000000000 [-]
	 SCS Same-Spin Energy      =      -0.0670863041163013 [Eh]
	 SCS Opposite-Spin Energy  =      -0.7772107394590363 [Eh]
	 SCS Correlation Energy    =      -0.8442970435753376 [Eh]
	 SCS Total Energy          =    -413.2314629544190439 [Eh]
	-----------------------------------------------------------

  Dipole Moment: [D]
     X:     2.0255      Y:     0.3699      Z:     0.0272     Total:     2.0592

*** Psi4 exiting successfully. Buy a developer a beer!
