                               Psi4 1.4a3.dev225

  ==> Input File <==

--------------------------------------------------------------------------
#psi4
#
memory 32 gb

molecule  {
0 1
  I       -1.0508630    -0.0327020     0.0000010
  C        2.0091563    -0.5511048     0.0926095
  C        0.9983820     0.6513080    -0.0000070
  C        3.4267560     0.0178820     0.0000080
  H        1.8145770    -1.1305720     0.8787430
  H        1.8145880    -1.1305600    -0.8787710
  H        1.1000060     1.2738310    -0.8896230
  H        1.1000140     1.2738370     0.8896040
  H        4.1383040    -0.8116210    -0.0000480
  H        3.6258980     0.6289730    -0.8845580
  H        3.6259130     0.6288710     0.8846400
units angstrom
no_reorient  #important for SAPT in psi4, default
symmetry c1  #important for SAPT in psi4, default
}

set PROPERTIES_ORIGIN ["COM"]
properties('MP2/aug-cc-pvtz', properties = ['dipole'])
--------------------------------------------------------------------------

    Molecular point group: c1
  Charge       = 0
  Multiplicity = 1
  Basis Set: AUG-CC-PVTZ
    Blend: AUG-CC-PVTZ
  Basis Set: (AUG-CC-PVTZ AUX)
    Blend: AUG-CC-PVTZ-JKFIT + DEF2-UNIVERSAL-JKFIT

    Orbital Energies [Eh]
    ---------------------

    Doubly Occupied:

       1A    -11.286629     2A    -11.242347     3A    -11.229545
       4A     -7.705505     5A     -5.536655     6A     -5.527922
       7A     -5.527854     8A     -2.265924     9A     -2.261640
      10A     -2.261568    11A     -2.251882    12A     -2.251881
      13A     -1.078567    14A     -0.961890    15A     -0.856824
      16A     -0.812794    17A     -0.658762    18A     -0.595546
      19A     -0.570314    20A     -0.555954    21A     -0.520717
      22A     -0.482004    23A     -0.430992    24A     -0.355818
      25A     -0.354658

  @DF-RHF Final Energy:  -412.37499101893854

   => Energetics <=

    Nuclear Repulsion Energy =            181.9721953283352605
    One-Electron Energy =               -1033.5259883527789952
    Two-Electron Energy =                 439.1788020055051902
    Total Energy =                       -412.3749910189385446
  Basis Set: (AUG-CC-PVTZ AUX)
    Blend: AUG-CC-PVTZ-RI + DEF2-QZVPP-RI
    Molecular point group: c1

    Geometry (in Angstrom), charge = 0, multiplicity = 1:

       Center              X                  Y                   Z               Mass
    ------------   -----------------  -----------------  -----------------  -----------------
         I           -0.822610395138    -0.020966746926    -0.006538448848   126.904471900000
         C            2.237408904862    -0.539369546926     0.086070051152    12.000000000000
         C            1.226634604862     0.663043253074    -0.006546448848    12.000000000000
         C            3.655008604862     0.029617253074    -0.006531448848    12.000000000000
         H            2.042829604862    -1.118836746926     0.872203551152     1.007825032230
         H            2.042840604862    -1.118824746926    -0.885310448848     1.007825032230
         H            1.328258604862     1.285566253074    -0.896162448848     1.007825032230
         H            1.328266604862     1.285572253074     0.883064551152     1.007825032230
         H            4.366556604862    -0.799885746926    -0.006587448848     1.007825032230
         H            3.854150604862     0.640708253074    -0.891097448848     1.007825032230
         H            3.854165604862     0.640606253074     0.878100551152     1.007825032230

  Basis Set: AUG-CC-PVTZ
    Blend: AUG-CC-PVTZ
  Basis Set: (AUG-CC-PVTZ AUX)
    Blend: AUG-CC-PVTZ-JKFIT + DEF2-UNIVERSAL-JKFIT
	 Reference Energy          =    -412.3749910189385446 [Eh]
	 Singles Energy            =      -0.0000000000000000 [Eh]
	 Same-Spin Energy          =      -0.2011515374524640 [Eh]
	 Opposite-Spin Energy      =      -0.6479478820759628 [Eh]
	 Correlation Energy        =      -0.8490994195284268 [Eh]
	 Total Energy              =    -413.2240904384669875 [Eh]

	 ================> DF-SCS-MP2 Energies <==================
	-----------------------------------------------------------
	 SCS Same-Spin Scale       =       0.3333333333333333 [-]
	 SCS Opposite-Spin Scale   =       1.2000000000000000 [-]
	 SCS Same-Spin Energy      =      -0.0670505124841547 [Eh]
	 SCS Opposite-Spin Energy  =      -0.7775374584911553 [Eh]
	 SCS Correlation Energy    =      -0.8445879709753100 [Eh]
	 SCS Total Energy          =    -413.2195789899138276 [Eh]
	-----------------------------------------------------------

  Dipole Moment: [D]
     X:     2.0953      Y:     0.3626      Z:     0.0299     Total:     2.1266

*** Psi4 exiting successfully. Buy a developer a beer!
