                               Psi4 1.4a3.dev225

  ==> Input File <==

--------------------------------------------------------------------------
#psi4
#
memory 32 gb

molecule  {
0 1
  I       -1.0508630    -0.0327020     0.0000010
  C        1.9876030    -0.5024530    -0.0000080
  C        0.9983820     0.6513080    -0.0000070
  C        3.4267560     0.0178820     0.0000080
  H        1.8145770    -1.1305720     0.8787430
  H        1.8145880    -1.1305600    -0.8787710
  H        1.1000060     1.2738310    -0.8896230
  H        1.1000140     1.2738370     0.8896040
  H        4.1383040    -0.8116210    -0.0000480
  H        3.6258980     0.6289730    -0.8845580
  H        3.6222701     0.6176952     0.8684588
units angstrom
no_reorient  #important for SAPT in psi4, default
symmetry c1  #important for SAPT in psi4, default
}

set PROPERTIES_ORIGIN ["COM"]
properties('MP2/aug-cc-pvtz', properties = ['dipole'])
--------------------------------------------------------------------------

    Molecular point group: c1
  Charge       = 0
  Multiplicity = 1
  Basis Set: AUG-CC-PVTZ
    Blend: AUG-CC-PVTZ
  Basis Set: (AUG-CC-PVTZ AUX)
    Blend: AUG-CC-PVTZ-JKFIT + DEF2-UNIVERSAL-JKFIT

    Orbital Energies [Eh]
    ---------------------

    Doubly Occupied:

       1A    -11.284731     2A    -11.241191     3A    -11.226132
       4A     -7.706533     5A     -5.537736     6A     -5.528912
       7A     -5.528857     8A     -2.267013     9A     -2.262686
      10A     -2.262631    11A     -2.252846    12A     -2.252845
      13A     -1.084267    14A     -0.964116    15A     -0.856468
      16A     -0.807709    17A     -0.658915    18A     -0.597315
      19A     -0.569642    20A     -0.556634    21A     -0.507881
      22A     -0.495920    23A     -0.432752    24A     -0.356664
      25A     -0.356480

  @DF-RHF Final Energy:  -412.38838728940954

   => Energetics <=

    Nuclear Repulsion Energy =            182.6456688288400869
    One-Electron Energy =               -1034.8743554104642044
    Two-Electron Energy =                 439.8402992922145245
    Total Energy =                       -412.3883872894095362
  Basis Set: (AUG-CC-PVTZ AUX)
    Blend: AUG-CC-PVTZ-RI + DEF2-QZVPP-RI
    Molecular point group: c1

    Geometry (in Angstrom), charge = 0, multiplicity = 1:

       Center              X                  Y                   Z               Mass
    ------------   -----------------  -----------------  -----------------  -----------------
         I           -0.821067019239    -0.024335544792     0.000096775993   126.904471900000
         C            2.217398980761    -0.494086544792     0.000087775993    12.000000000000
         C            1.228177980761     0.659674455208     0.000088775993    12.000000000000
         C            3.656551980761     0.026248455208     0.000103775993    12.000000000000
         H            2.044372980761    -1.122205544792     0.878838775993     1.007825032230
         H            2.044383980761    -1.122193544792    -0.878675224007     1.007825032230
         H            1.329801980761     1.282197455208    -0.889527224007     1.007825032230
         H            1.329809980761     1.282203455208     0.889699775993     1.007825032230
         H            4.368099980761    -0.803254544792     0.000047775993     1.007825032230
         H            3.855693980761     0.637339455208    -0.884462224007     1.007825032230
         H            3.852066080761     0.626061655208     0.868554575993     1.007825032230

  Basis Set: AUG-CC-PVTZ
    Blend: AUG-CC-PVTZ
  Basis Set: (AUG-CC-PVTZ AUX)
    Blend: AUG-CC-PVTZ-JKFIT + DEF2-UNIVERSAL-JKFIT
	 Reference Energy          =    -412.3883872894095362 [Eh]
	 Singles Energy            =      -0.0000000000000000 [Eh]
	 Same-Spin Energy          =      -0.2012731283541149 [Eh]
	 Opposite-Spin Energy      =      -0.6475347671902778 [Eh]
	 Correlation Energy        =      -0.8488078955443927 [Eh]
	 Total Energy              =    -413.2371951849539187 [Eh]

	 ================> DF-SCS-MP2 Energies <==================
	-----------------------------------------------------------
	 SCS Same-Spin Scale       =       0.3333333333333333 [-]
	 SCS Opposite-Spin Scale   =       1.2000000000000000 [-]
	 SCS Same-Spin Energy      =      -0.0670910427847050 [Eh]
	 SCS Opposite-Spin Energy  =      -0.7770417206283333 [Eh]
	 SCS Correlation Energy    =      -0.8441327634130382 [Eh]
	 SCS Total Energy          =    -413.2325200528225650 [Eh]
	-----------------------------------------------------------

  Dipole Moment: [D]
     X:     2.0481      Y:     0.3630      Z:     0.0085     Total:     2.0800

*** Psi4 exiting successfully. Buy a developer a beer!
