                               Psi4 1.4a3.dev225

  ==> Input File <==

--------------------------------------------------------------------------
#psi4
#
memory 32 gb

molecule  {
0 1
  I       -1.0508630    -0.0327020     0.0000010
  C        1.9876030    -0.5024530    -0.0000080
  C        0.9983820     0.6513080    -0.0000070
  C        3.4267560     0.0178820     0.0000080
  H        1.8145770    -1.1305720     0.8787430
  H        1.8145880    -1.1305600    -0.8787710
  H        1.1000060     1.2738310    -0.8896230
  H        1.1000140     1.2738370     0.8896040
  H        4.1383040    -0.8116210    -0.0000480
  H        3.6441109     0.6848615    -0.9654577
  H        3.6259130     0.6288710     0.8846400
units angstrom
no_reorient  #important for SAPT in psi4, default
symmetry c1  #important for SAPT in psi4, default
}

set PROPERTIES_ORIGIN ["COM"]
properties('MP2/aug-cc-pvtz', properties = ['dipole'])
--------------------------------------------------------------------------

    Molecular point group: c1
  Charge       = 0
  Multiplicity = 1
  Basis Set: AUG-CC-PVTZ
    Blend: AUG-CC-PVTZ
  Basis Set: (AUG-CC-PVTZ AUX)
    Blend: AUG-CC-PVTZ-JKFIT + DEF2-UNIVERSAL-JKFIT

    Orbital Energies [Eh]
    ---------------------

    Doubly Occupied:

       1A    -11.284989     2A    -11.242815     3A    -11.240748
       4A     -7.706768     5A     -5.537970     6A     -5.529149
       7A     -5.529091     8A     -2.267247     9A     -2.262922
      10A     -2.262864    11A     -2.253082    12A     -2.253081
      13A     -1.083209    14A     -0.959697    15A     -0.852668
      16A     -0.806346    17A     -0.656975    18A     -0.596616
      19A     -0.562798    20A     -0.554423    21A     -0.506434
      22A     -0.488717    23A     -0.433434    24A     -0.356959
      25A     -0.356682

  @DF-RHF Final Energy:  -412.38213258605026

   => Energetics <=

    Nuclear Repulsion Energy =            182.1925599624377980
    One-Electron Energy =               -1033.9780186578586836
    Two-Electron Energy =                 439.4033261093705960
    Total Energy =                       -412.3821325860502611
  Basis Set: (AUG-CC-PVTZ AUX)
    Blend: AUG-CC-PVTZ-RI + DEF2-QZVPP-RI
    Molecular point group: c1

    Geometry (in Angstrom), charge = 0, multiplicity = 1:

       Center              X                  Y                   Z               Mass
    ------------   -----------------  -----------------  -----------------  -----------------
         I           -0.821196619851    -0.024733222950     0.000480544017   126.904471900000
         C            2.217269380149    -0.494484222950     0.000471544017    12.000000000000
         C            1.228048380149     0.659276777050     0.000472544017    12.000000000000
         C            3.656422380149     0.025850777050     0.000487544017    12.000000000000
         H            2.044243380149    -1.122603222950     0.879222544017     1.007825032230
         H            2.044254380149    -1.122591222950    -0.878291455983     1.007825032230
         H            1.329672380149     1.281799777050    -0.889143455983     1.007825032230
         H            1.329680380149     1.281805777050     0.890083544017     1.007825032230
         H            4.367970380149    -0.803652222950     0.000431544017     1.007825032230
         H            3.873777280149     0.692830277050    -0.964978155983     1.007825032230
         H            3.855579380149     0.636839777050     0.885119544017     1.007825032230

  Basis Set: AUG-CC-PVTZ
    Blend: AUG-CC-PVTZ
  Basis Set: (AUG-CC-PVTZ AUX)
    Blend: AUG-CC-PVTZ-JKFIT + DEF2-UNIVERSAL-JKFIT
	 Reference Energy          =    -412.3821325860502611 [Eh]
	 Singles Energy            =      -0.0000000000000000 [Eh]
	 Same-Spin Energy          =      -0.2012123964204870 [Eh]
	 Opposite-Spin Energy      =      -0.6482792658658305 [Eh]
	 Correlation Energy        =      -0.8494916622863176 [Eh]
	 Total Energy              =    -413.2316242483365727 [Eh]

	 ================> DF-SCS-MP2 Energies <==================
	-----------------------------------------------------------
	 SCS Same-Spin Scale       =       0.3333333333333333 [-]
	 SCS Opposite-Spin Scale   =       1.2000000000000000 [-]
	 SCS Same-Spin Energy      =      -0.0670707988068290 [Eh]
	 SCS Opposite-Spin Energy  =      -0.7779351190389966 [Eh]
	 SCS Correlation Energy    =      -0.8450059178458256 [Eh]
	 SCS Total Energy          =    -413.2271385038960716 [Eh]
	-----------------------------------------------------------

  Dipole Moment: [D]
     X:     2.0127      Y:     0.3172      Z:     0.0494     Total:     2.0381

*** Psi4 exiting successfully. Buy a developer a beer!
