                               Psi4 1.4a3.dev225

  ==> Input File <==

--------------------------------------------------------------------------
#psi4
#
memory 32 gb

molecule  {
0 1
  I       -1.0508630    -0.0327020     0.0000010
  C        1.9876030    -0.5024530    -0.0000080
  C        0.9983820     0.6513080    -0.0000070
  C        3.4267560     0.0178820     0.0000080
  H        1.8145770    -1.1305720     0.8787430
  H        1.8145880    -1.1305600    -0.8787710
  H        1.1000060     1.2738310    -0.8896230
  H        1.1000140     1.2738370     0.8896040
  H        4.1383040    -0.8116210    -0.0000480
  H        3.6258980     0.6289730    -0.8845580
  H        3.6623416     0.7406295     1.0464516
units angstrom
no_reorient  #important for SAPT in psi4, default
symmetry c1  #important for SAPT in psi4, default
}

set PROPERTIES_ORIGIN ["COM"]
properties('MP2/aug-cc-pvtz', properties = ['dipole'])
--------------------------------------------------------------------------

    Molecular point group: c1
  Charge       = 0
  Multiplicity = 1
  Basis Set: AUG-CC-PVTZ
    Blend: AUG-CC-PVTZ
  Basis Set: (AUG-CC-PVTZ AUX)
    Blend: AUG-CC-PVTZ-JKFIT + DEF2-UNIVERSAL-JKFIT

    Orbital Energies [Eh]
    ---------------------

    Doubly Occupied:

       1A    -11.285303     2A    -11.252208     3A    -11.244390
       4A     -7.707051     5A     -5.538253     6A     -5.529433
       7A     -5.529372     8A     -2.267531     9A     -2.263207
      10A     -2.263145    11A     -2.253364    12A     -2.253363
      13A     -1.083168    14A     -0.957788    15A     -0.850846
      16A     -0.805674    17A     -0.656184    18A     -0.597408
      19A     -0.562594    20A     -0.549807    21A     -0.506817
      22A     -0.478089    23A     -0.434155    24A     -0.357297
      25A     -0.356925

  @DF-RHF Final Energy:  -412.36885039245374

   => Energetics <=

    Nuclear Repulsion Energy =            181.8601456223853461
    One-Electron Energy =               -1033.2912440869192778
    Two-Electron Energy =                 439.0622480720802514
    Total Energy =                       -412.3688503924537372
  Basis Set: (AUG-CC-PVTZ AUX)
    Blend: AUG-CC-PVTZ-RI + DEF2-QZVPP-RI
    Molecular point group: c1

    Geometry (in Angstrom), charge = 0, multiplicity = 1:

       Center              X                  Y                   Z               Mass
    ------------   -----------------  -----------------  -----------------  -----------------
         I           -0.821304635382    -0.025064521102    -0.000958686434   126.904471900000
         C            2.217161364618    -0.494815521102    -0.000967686434    12.000000000000
         C            1.227940364618     0.658945478898    -0.000966686434    12.000000000000
         C            3.656314364618     0.025519478898    -0.000951686434    12.000000000000
         H            2.044135364618    -1.122934521102     0.877783313566     1.007825032230
         H            2.044146364618    -1.122922521102    -0.879730686434     1.007825032230
         H            1.329564364618     1.281468478898    -0.890582686434     1.007825032230
         H            1.329572364618     1.281474478898     0.888644313566     1.007825032230
         H            4.367862364618    -0.803983521102    -0.001007686434     1.007825032230
         H            3.855456364618     0.636610478898    -0.885517686434     1.007825032230
         H            3.891899964618     0.748266978898     1.045491913566     1.007825032230

  Basis Set: AUG-CC-PVTZ
    Blend: AUG-CC-PVTZ
  Basis Set: (AUG-CC-PVTZ AUX)
    Blend: AUG-CC-PVTZ-JKFIT + DEF2-UNIVERSAL-JKFIT
	 Reference Energy          =    -412.3688503924537372 [Eh]
	 Singles Energy            =      -0.0000000000000000 [Eh]
	 Same-Spin Energy          =      -0.2011550160799502 [Eh]
	 Opposite-Spin Energy      =      -0.6490636216021424 [Eh]
	 Correlation Energy        =      -0.8502186376820926 [Eh]
	 Total Energy              =    -413.2190690301358131 [Eh]

	 ================> DF-SCS-MP2 Energies <==================
	-----------------------------------------------------------
	 SCS Same-Spin Scale       =       0.3333333333333333 [-]
	 SCS Opposite-Spin Scale   =       1.2000000000000000 [-]
	 SCS Same-Spin Energy      =      -0.0670516720266500 [Eh]
	 SCS Opposite-Spin Energy  =      -0.7788763459225708 [Eh]
	 SCS Correlation Energy    =      -0.8459280179492209 [Eh]
	 SCS Total Energy          =    -413.2147784104029711 [Eh]
	-----------------------------------------------------------

  Dipole Moment: [D]
     X:     1.9757      Y:     0.2706      Z:    -0.1093     Total:     1.9971

*** Psi4 exiting successfully. Buy a developer a beer!
