                               Psi4 1.4a3.dev225

  ==> Input File <==

--------------------------------------------------------------------------
#psi4
#
memory 32 gb

molecule  {
0 1
  I       -1.0508630    -0.0327020     0.0000010
  C        1.9876030    -0.5024530    -0.0000080
  C        0.9983820     0.6513080    -0.0000070
  C        3.4267560     0.0178820     0.0000080
  H        1.8145770    -1.1305720     0.8787430
  H        1.8145880    -1.1305600    -0.8787710
  H        1.1000060     1.2738310    -0.8896230
  H        1.1000140     1.2738370     0.8896040
  H        4.1383040    -0.8116210    -0.0000480
  H        3.6258980     0.6289730    -0.8845580
  H        3.6259130     0.6288710     0.8846400
units angstrom
no_reorient  #important for SAPT in psi4, default
symmetry c1  #important for SAPT in psi4, default
}

set PROPERTIES_ORIGIN ["COM"]
properties('MP2/aug-cc-pvtz', properties = ['dipole'])
--------------------------------------------------------------------------

    Molecular point group: c1
  Charge       = 0
  Multiplicity = 1
  Basis Set: AUG-CC-PVTZ
    Blend: AUG-CC-PVTZ
  Basis Set: (AUG-CC-PVTZ AUX)
    Blend: AUG-CC-PVTZ-JKFIT + DEF2-UNIVERSAL-JKFIT

    Orbital Energies [Eh]
    ---------------------

    Doubly Occupied:

       1A    -11.284766     2A    -11.241428     3A    -11.228638
       4A     -7.706565     5A     -5.537767     6A     -5.528944
       7A     -5.528889     8A     -2.267045     9A     -2.262718
      10A     -2.262662    11A     -2.252878    12A     -2.252877
      13A     -1.083998    14A     -0.963184    15A     -0.855700
      16A     -0.807448    17A     -0.658503    18A     -0.597015
      19A     -0.568061    20A     -0.556571    21A     -0.507475
      22A     -0.495157    23A     -0.432852    24A     -0.356705
      25A     -0.356508

  @DF-RHF Final Energy:  -412.38840735357513

   => Energetics <=

    Nuclear Repulsion Energy =            182.5653528803446761
    One-Electron Energy =               -1034.7188124440210686
    Two-Electron Energy =                 439.7650522101012598
    Total Energy =                       -412.3884073535751327
  Basis Set: (AUG-CC-PVTZ AUX)
    Blend: AUG-CC-PVTZ-RI + DEF2-QZVPP-RI
    Molecular point group: c1

    Geometry (in Angstrom), charge = 0, multiplicity = 1:

       Center              X                  Y                   Z               Mass
    ------------   -----------------  -----------------  -----------------  -----------------
         I           -0.821088620922    -0.024401815096     0.000000824648   126.904471900000
         C            2.217377379078    -0.494152815096    -0.000008175352    12.000000000000
         C            1.228156379078     0.659608184904    -0.000007175352    12.000000000000
         C            3.656530379078     0.026182184904     0.000007824648    12.000000000000
         H            2.044351379078    -1.122271815096     0.878742824648     1.007825032230
         H            2.044362379078    -1.122259815096    -0.878771175352     1.007825032230
         H            1.329780379078     1.282131184904    -0.889623175352     1.007825032230
         H            1.329788379078     1.282137184904     0.889603824648     1.007825032230
         H            4.368078379078    -0.803320815096    -0.000048175352     1.007825032230
         H            3.855672379078     0.637273184904    -0.884558175352     1.007825032230
         H            3.855687379078     0.637171184904     0.884639824648     1.007825032230

  Basis Set: AUG-CC-PVTZ
    Blend: AUG-CC-PVTZ
  Basis Set: (AUG-CC-PVTZ AUX)
    Blend: AUG-CC-PVTZ-JKFIT + DEF2-UNIVERSAL-JKFIT
	 Reference Energy          =    -412.3884073535751327 [Eh]
	 Singles Energy            =      -0.0000000000000000 [Eh]
	 Same-Spin Energy          =      -0.2012619420729772 [Eh]
	 Opposite-Spin Energy      =      -0.6476385379400565 [Eh]
	 Correlation Energy        =      -0.8489004800130338 [Eh]
	 Total Energy              =    -413.2373078335881473 [Eh]

	 ================> DF-SCS-MP2 Energies <==================
	-----------------------------------------------------------
	 SCS Same-Spin Scale       =       0.3333333333333333 [-]
	 SCS Opposite-Spin Scale   =       1.2000000000000000 [-]
	 SCS Same-Spin Energy      =      -0.0670873140243257 [Eh]
	 SCS Opposite-Spin Energy  =      -0.7771662455280678 [Eh]
	 SCS Correlation Energy    =      -0.8442535595523936 [Eh]
	 SCS Total Energy          =    -413.2326609131275177 [Eh]
	-----------------------------------------------------------

  Dipole Moment: [D]
     X:     2.0429      Y:     0.3562      Z:    -0.0000     Total:     2.0737

*** Psi4 exiting successfully. Buy a developer a beer!
