                               Psi4 1.4a3.dev225

  ==> Input File <==

--------------------------------------------------------------------------
#psi4
#
memory 32 gb

molecule  {
0 1
  I       -1.0508630    -0.0327020     0.0000010
  C        1.9876030    -0.5024530    -0.0000080
  C        0.9983820     0.6513080    -0.0000070
  C        3.4267560     0.0178820     0.0000080
  H        1.8145770    -1.1305720     0.8787430
  H        1.8145880    -1.1305600    -0.8787710
  H        1.1000060     1.2738310    -0.8896230
  H        1.1000140     1.2738370     0.8896040
  H        4.1383040    -0.8116210    -0.0000480
  H        3.6623238     0.7407500    -1.0463574
  H        3.6259130     0.6288710     0.8846400
units angstrom
no_reorient  #important for SAPT in psi4, default
symmetry c1  #important for SAPT in psi4, default
}

set PROPERTIES_ORIGIN ["COM"]
properties('MP2/aug-cc-pvtz', properties = ['dipole'])
--------------------------------------------------------------------------

    Molecular point group: c1
  Charge       = 0
  Multiplicity = 1
  Basis Set: AUG-CC-PVTZ
    Blend: AUG-CC-PVTZ
  Basis Set: (AUG-CC-PVTZ AUX)
    Blend: AUG-CC-PVTZ-JKFIT + DEF2-UNIVERSAL-JKFIT

    Orbital Energies [Eh]
    ---------------------

    Doubly Occupied:

       1A    -11.285303     2A    -11.252208     3A    -11.244391
       4A     -7.707051     5A     -5.538253     6A     -5.529433
       7A     -5.529372     8A     -2.267531     9A     -2.263207
      10A     -2.263145    11A     -2.253364    12A     -2.253363
      13A     -1.083168    14A     -0.957788    15A     -0.850846
      16A     -0.805674    17A     -0.656185    18A     -0.597406
      19A     -0.562596    20A     -0.549807    21A     -0.506816
      22A     -0.478090    23A     -0.434155    24A     -0.357297
      25A     -0.356925

  @DF-RHF Final Energy:  -412.36885033790850

   => Energetics <=

    Nuclear Repulsion Energy =            181.8601497450980844
    One-Electron Energy =               -1033.2912531534366281
    Two-Electron Energy =                 439.0622530704300743
    Total Energy =                       -412.3688503379084977
  Basis Set: (AUG-CC-PVTZ AUX)
    Blend: AUG-CC-PVTZ-RI + DEF2-QZVPP-RI
    Molecular point group: c1

    Geometry (in Angstrom), charge = 0, multiplicity = 1:

       Center              X                  Y                   Z               Mass
    ------------   -----------------  -----------------  -----------------  -----------------
         I           -0.821304618779    -0.025064630804     0.000960263385   126.904471900000
         C            2.217161381221    -0.494815630804     0.000951263385    12.000000000000
         C            1.227940381221     0.658945369196     0.000952263385    12.000000000000
         C            3.656314381221     0.025519369196     0.000967263385    12.000000000000
         H            2.044135381221    -1.122934630804     0.879702263385     1.007825032230
         H            2.044146381221    -1.122922630804    -0.877811736615     1.007825032230
         H            1.329564381221     1.281468369196    -0.888663736615     1.007825032230
         H            1.329572381221     1.281474369196     0.890563263385     1.007825032230
         H            4.367862381221    -0.803983630804     0.000911263385     1.007825032230
         H            3.891882181221     0.748387369196    -1.045398136615     1.007825032230
         H            3.855471381221     0.636508369196     0.885599263385     1.007825032230

  Basis Set: AUG-CC-PVTZ
    Blend: AUG-CC-PVTZ
  Basis Set: (AUG-CC-PVTZ AUX)
    Blend: AUG-CC-PVTZ-JKFIT + DEF2-UNIVERSAL-JKFIT
	 Reference Energy          =    -412.3688503379084977 [Eh]
	 Singles Energy            =      -0.0000000000000000 [Eh]
	 Same-Spin Energy          =      -0.2011550264015140 [Eh]
	 Opposite-Spin Energy      =      -0.6490636318663858 [Eh]
	 Correlation Energy        =      -0.8502186582678998 [Eh]
	 Total Energy              =    -413.2190689961764178 [Eh]

	 ================> DF-SCS-MP2 Energies <==================
	-----------------------------------------------------------
	 SCS Same-Spin Scale       =       0.3333333333333333 [-]
	 SCS Opposite-Spin Scale   =       1.2000000000000000 [-]
	 SCS Same-Spin Energy      =      -0.0670516754671713 [Eh]
	 SCS Opposite-Spin Energy  =      -0.7788763582396629 [Eh]
	 SCS Correlation Energy    =      -0.8459280337068342 [Eh]
	 SCS Total Energy          =    -413.2147783716153526 [Eh]
	-----------------------------------------------------------

  Dipole Moment: [D]
     X:     1.9757      Y:     0.2706      Z:     0.1093     Total:     1.9971

*** Psi4 exiting successfully. Buy a developer a beer!
