                               Psi4 1.4a3.dev225

  ==> Input File <==

--------------------------------------------------------------------------
#psi4
#
memory 32 gb

molecule  {
0 1
  I       -1.0508630    -0.0327020     0.0000010
  C        1.9876030    -0.5024530    -0.0000080
  C        0.9983820     0.6513080    -0.0000070
  C        3.4267560     0.0178820     0.0000080
  H        1.8145770    -1.1305720     0.8787430
  H        1.8145880    -1.1305600    -0.8787710
  H        1.1000060     1.2738310    -0.8896230
  H        1.1000140     1.2738370     0.8896040
  H        4.1383040    -0.8116210    -0.0000480
  H        3.6295406     0.6401507    -0.9007379
  H        3.6259130     0.6288710     0.8846400
units angstrom
no_reorient  #important for SAPT in psi4, default
symmetry c1  #important for SAPT in psi4, default
}

set PROPERTIES_ORIGIN ["COM"]
properties('MP2/aug-cc-pvtz', properties = ['dipole'])
--------------------------------------------------------------------------

    Molecular point group: c1
  Charge       = 0
  Multiplicity = 1
  Basis Set: AUG-CC-PVTZ
    Blend: AUG-CC-PVTZ
  Basis Set: (AUG-CC-PVTZ AUX)
    Blend: AUG-CC-PVTZ-JKFIT + DEF2-UNIVERSAL-JKFIT

    Orbital Energies [Eh]
    ---------------------

    Doubly Occupied:

       1A    -11.284804     2A    -11.241676     3A    -11.231119
       4A     -7.706600     5A     -5.537802     6A     -5.528979
       7A     -5.528923     8A     -2.267079     9A     -2.262752
      10A     -2.262697    11A     -2.252913    12A     -2.252912
      13A     -1.083769    14A     -0.962336    15A     -0.854988
      16A     -0.807198    17A     -0.658129    18A     -0.596801
      19A     -0.566585    20A     -0.556430    21A     -0.507130
      22A     -0.494230    23A     -0.432957    24A     -0.356750
      25A     -0.356537

  @DF-RHF Final Energy:  -412.38793703395640

   => Energetics <=

    Nuclear Repulsion Energy =            182.4870846864266412
    One-Electron Energy =               -1034.5658514258832383
    Two-Electron Energy =                 439.6908297055001640
    Total Energy =                       -412.3879370339564048
  Basis Set: (AUG-CC-PVTZ AUX)
    Blend: AUG-CC-PVTZ-RI + DEF2-QZVPP-RI
    Molecular point group: c1

    Geometry (in Angstrom), charge = 0, multiplicity = 1:

       Center              X                  Y                   Z               Mass
    ------------   -----------------  -----------------  -----------------  -----------------
         I           -0.821110220827    -0.024468096667     0.000096768284   126.904471900000
         C            2.217355779173    -0.494219096667     0.000087768284    12.000000000000
         C            1.228134779173     0.659541903333     0.000088768284    12.000000000000
         C            3.656508779173     0.026115903333     0.000103768284    12.000000000000
         H            2.044329779173    -1.122338096667     0.878838768284     1.007825032230
         H            2.044340779173    -1.122326096667    -0.878675231716     1.007825032230
         H            1.329758779173     1.282064903333    -0.889527231716     1.007825032230
         H            1.329766779173     1.282070903333     0.889699768284     1.007825032230
         H            4.368056779173    -0.803387096667     0.000047768284     1.007825032230
         H            3.859293379173     0.648384603333    -0.900642131716     1.007825032230
         H            3.855665779173     0.637104903333     0.884735768284     1.007825032230

  Basis Set: AUG-CC-PVTZ
    Blend: AUG-CC-PVTZ
  Basis Set: (AUG-CC-PVTZ AUX)
    Blend: AUG-CC-PVTZ-JKFIT + DEF2-UNIVERSAL-JKFIT
	 Reference Energy          =    -412.3879370339564048 [Eh]
	 Singles Energy            =      -0.0000000000000000 [Eh]
	 Same-Spin Energy          =      -0.2012515445844490 [Eh]
	 Opposite-Spin Energy      =      -0.6477516188725276 [Eh]
	 Correlation Energy        =      -0.8490031634569767 [Eh]
	 Total Energy              =    -413.2369401974133893 [Eh]

	 ================> DF-SCS-MP2 Energies <==================
	-----------------------------------------------------------
	 SCS Same-Spin Scale       =       0.3333333333333333 [-]
	 SCS Opposite-Spin Scale   =       1.2000000000000000 [-]
	 SCS Same-Spin Energy      =      -0.0670838481948163 [Eh]
	 SCS Opposite-Spin Energy  =      -0.7773019426470331 [Eh]
	 SCS Correlation Energy    =      -0.8443857908418495 [Eh]
	 SCS Total Energy          =    -413.2323228247982456 [Eh]
	-----------------------------------------------------------

  Dipole Moment: [D]
     X:     2.0374      Y:     0.3490      Z:     0.0090     Total:     2.0671

*** Psi4 exiting successfully. Buy a developer a beer!
