                               Psi4 1.4a3.dev225

  ==> Input File <==

--------------------------------------------------------------------------
#psi4
#
memory 32 gb

molecule  {
0 1
  I       -1.0508630    -0.0327020     0.0000010
  C        1.9876030    -0.5024530    -0.0000080
  C        0.9658371     0.6892662    -0.0000070
  C        3.4267560     0.0178820     0.0000080
  H        1.8145770    -1.1305720     0.8787430
  H        1.8145880    -1.1305600    -0.8787710
  H        1.1000060     1.2738310    -0.8896230
  H        1.1000140     1.2738370     0.8896040
  H        4.1383040    -0.8116210    -0.0000480
  H        3.6258980     0.6289730    -0.8845580
  H        3.6259130     0.6288710     0.8846400
units angstrom
no_reorient  #important for SAPT in psi4, default
symmetry c1  #important for SAPT in psi4, default
}

set PROPERTIES_ORIGIN ["COM"]
properties('MP2/aug-cc-pvtz', properties = ['dipole'])
--------------------------------------------------------------------------

    Molecular point group: c1
  Charge       = 0
  Multiplicity = 1
  Basis Set: AUG-CC-PVTZ
    Blend: AUG-CC-PVTZ
  Basis Set: (AUG-CC-PVTZ AUX)
    Blend: AUG-CC-PVTZ-JKFIT + DEF2-UNIVERSAL-JKFIT

    Orbital Energies [Eh]
    ---------------------

    Doubly Occupied:

       1A    -11.281915     2A    -11.243347     3A    -11.227693
       4A     -7.707730     5A     -5.539007     6A     -5.530075
       7A     -5.530051     8A     -2.268386     9A     -2.263925
      10A     -2.263896    11A     -2.253998    12A     -2.253998
      13A     -1.076174    14A     -0.965317    15A     -0.853181
      16A     -0.809680    17A     -0.658087    18A     -0.591791
      19A     -0.573799    20A     -0.551421    21A     -0.499917
      22A     -0.496525    23A     -0.438647    24A     -0.357715
      25A     -0.356052

  @DF-RHF Final Energy:  -412.38672405640665

   => Energetics <=

    Nuclear Repulsion Energy =            182.3569657351175408
    One-Electron Energy =               -1034.3027244282322954
    Two-Electron Energy =                 439.5590346367080770
    Total Energy =                       -412.3867240564066492
  Basis Set: (AUG-CC-PVTZ AUX)
    Blend: AUG-CC-PVTZ-RI + DEF2-QZVPP-RI
    Molecular point group: c1

    Geometry (in Angstrom), charge = 0, multiplicity = 1:

       Center              X                  Y                   Z               Mass
    ------------   -----------------  -----------------  -----------------  -----------------
         I           -0.818790783020    -0.027081859917     0.000000824648   126.904471900000
         C            2.219675216980    -0.496832859917    -0.000008175352    12.000000000000
         C            1.197909316980     0.694886340083    -0.000007175352    12.000000000000
         C            3.658828216980     0.023502140083     0.000007824648    12.000000000000
         H            2.046649216980    -1.124951859917     0.878742824648     1.007825032230
         H            2.046660216980    -1.124939859917    -0.878771175352     1.007825032230
         H            1.332078216980     1.279451140083    -0.889623175352     1.007825032230
         H            1.332086216980     1.279457140083     0.889603824648     1.007825032230
         H            4.370376216980    -0.806000859917    -0.000048175352     1.007825032230
         H            3.857970216980     0.634593140083    -0.884558175352     1.007825032230
         H            3.857985216980     0.634491140083     0.884639824648     1.007825032230

  Basis Set: AUG-CC-PVTZ
    Blend: AUG-CC-PVTZ
  Basis Set: (AUG-CC-PVTZ AUX)
    Blend: AUG-CC-PVTZ-JKFIT + DEF2-UNIVERSAL-JKFIT
	 Reference Energy          =    -412.3867240564066492 [Eh]
	 Singles Energy            =      -0.0000000000000000 [Eh]
	 Same-Spin Energy          =      -0.2010238314314560 [Eh]
	 Opposite-Spin Energy      =      -0.6476099357755124 [Eh]
	 Correlation Energy        =      -0.8486337672069684 [Eh]
	 Total Energy              =    -413.2353578236136400 [Eh]

	 ================> DF-SCS-MP2 Energies <==================
	-----------------------------------------------------------
	 SCS Same-Spin Scale       =       0.3333333333333333 [-]
	 SCS Opposite-Spin Scale   =       1.2000000000000000 [-]
	 SCS Same-Spin Energy      =      -0.0670079438104853 [Eh]
	 SCS Opposite-Spin Energy  =      -0.7771319229306148 [Eh]
	 SCS Correlation Energy    =      -0.8441398667411002 [Eh]
	 SCS Total Energy          =    -413.2308639231477514 [Eh]
	-----------------------------------------------------------

  Dipole Moment: [D]
     X:     1.9766      Y:     0.3477      Z:    -0.0000     Total:     2.0070

*** Psi4 exiting successfully. Buy a developer a beer!
