                               Psi4 1.4a3.dev225

  ==> Input File <==

--------------------------------------------------------------------------
#psi4
#
memory 32 gb

molecule  {
0 1
  I       -1.0508630    -0.0327020     0.0000010
  C        1.9876030    -0.5024530    -0.0000080
  C        0.9983820     0.6513080    -0.0000070
  C        3.4267560     0.0178820     0.0000080
  H        1.8114136    -1.1420558     0.8948090
  H        1.8145880    -1.1305600    -0.8787710
  H        1.1000060     1.2738310    -0.8896230
  H        1.1000140     1.2738370     0.8896040
  H        4.1383040    -0.8116210    -0.0000480
  H        3.6258980     0.6289730    -0.8845580
  H        3.6259130     0.6288710     0.8846400
units angstrom
no_reorient  #important for SAPT in psi4, default
symmetry c1  #important for SAPT in psi4, default
}

set PROPERTIES_ORIGIN ["COM"]
properties('MP2/aug-cc-pvtz', properties = ['dipole'])
--------------------------------------------------------------------------

    Molecular point group: c1
  Charge       = 0
  Multiplicity = 1
  Basis Set: AUG-CC-PVTZ
    Blend: AUG-CC-PVTZ
  Basis Set: (AUG-CC-PVTZ AUX)
    Blend: AUG-CC-PVTZ-JKFIT + DEF2-UNIVERSAL-JKFIT

    Orbital Energies [Eh]
    ---------------------

    Doubly Occupied:

       1A    -11.284934     2A    -11.243842     3A    -11.228820
       4A     -7.706584     5A     -5.537790     6A     -5.528960
       7A     -5.528906     8A     -2.267069     9A     -2.262738
      10A     -2.262684    11A     -2.252891    12A     -2.252890
      13A     -1.083355    14A     -0.963257    15A     -0.855105
      16A     -0.806214    17A     -0.657414    18A     -0.596872
      19A     -0.567995    20A     -0.556715    21A     -0.507000
      22A     -0.493373    23A     -0.432895    24A     -0.356715
      25A     -0.356523

  @DF-RHF Final Energy:  -412.38789145490620

   => Energetics <=

    Nuclear Repulsion Energy =            182.4784606588551696
    One-Electron Energy =               -1034.5496250989174314
    Two-Electron Energy =                 439.6832729851560657
    Total Energy =                       -412.3878914549061960
  Basis Set: (AUG-CC-PVTZ AUX)
    Blend: AUG-CC-PVTZ-RI + DEF2-QZVPP-RI
    Molecular point group: c1

    Geometry (in Angstrom), charge = 0, multiplicity = 1:

       Center              X                  Y                   Z               Mass
    ------------   -----------------  -----------------  -----------------  -----------------
         I           -0.821069862580    -0.024333718412    -0.000094443584   126.904471900000
         C            2.217396137420    -0.494084718412    -0.000103443584    12.000000000000
         C            1.228175137420     0.659676281588    -0.000102443584    12.000000000000
         C            3.656549137420     0.026250281588    -0.000087443584    12.000000000000
         H            2.041206737420    -1.133687518412     0.894713556416     1.007825032230
         H            2.044381137420    -1.122191718412    -0.878866443584     1.007825032230
         H            1.329799137420     1.282199281588    -0.889718443584     1.007825032230
         H            1.329807137420     1.282205281588     0.889508556416     1.007825032230
         H            4.368097137420    -0.803252718412    -0.000143443584     1.007825032230
         H            3.855691137420     0.637341281588    -0.884653443584     1.007825032230
         H            3.855706137420     0.637239281588     0.884544556416     1.007825032230

  Basis Set: AUG-CC-PVTZ
    Blend: AUG-CC-PVTZ
  Basis Set: (AUG-CC-PVTZ AUX)
    Blend: AUG-CC-PVTZ-JKFIT + DEF2-UNIVERSAL-JKFIT
	 Reference Energy          =    -412.3878914549061960 [Eh]
	 Singles Energy            =      -0.0000000000000000 [Eh]
	 Same-Spin Energy          =      -0.2012715101138593 [Eh]
	 Opposite-Spin Energy      =      -0.6477740411808661 [Eh]
	 Correlation Energy        =      -0.8490455512947254 [Eh]
	 Total Energy              =    -413.2369370062009466 [Eh]

	 ================> DF-SCS-MP2 Energies <==================
	-----------------------------------------------------------
	 SCS Same-Spin Scale       =       0.3333333333333333 [-]
	 SCS Opposite-Spin Scale   =       1.2000000000000000 [-]
	 SCS Same-Spin Energy      =      -0.0670905033712864 [Eh]
	 SCS Opposite-Spin Energy  =      -0.7773288494170393 [Eh]
	 SCS Correlation Energy    =      -0.8444193527883257 [Eh]
	 SCS Total Energy          =    -413.2323108076945459 [Eh]
	-----------------------------------------------------------

  Dipole Moment: [D]
     X:     2.0444      Y:     0.3628      Z:    -0.0065     Total:     2.0764

*** Psi4 exiting successfully. Buy a developer a beer!
