                               Psi4 1.4a3.dev225

  ==> Input File <==

--------------------------------------------------------------------------
#psi4
#
memory 32 gb

molecule  {
0 1
  I       -1.0508630    -0.0327020     0.0000010
  C        1.9684429    -0.4247996    -0.1387931
  C        0.9983820     0.6513080    -0.0000070
  C        3.4267560     0.0178820     0.0000080
  H        1.8145770    -1.1305720     0.8787430
  H        1.8145880    -1.1305600    -0.8787710
  H        1.1000060     1.2738310    -0.8896230
  H        1.1000140     1.2738370     0.8896040
  H        4.1383040    -0.8116210    -0.0000480
  H        3.6258980     0.6289730    -0.8845580
  H        3.6259130     0.6288710     0.8846400
units angstrom
no_reorient  #important for SAPT in psi4, default
symmetry c1  #important for SAPT in psi4, default
}

set PROPERTIES_ORIGIN ["COM"]
properties('MP2/aug-cc-pvtz', properties = ['dipole'])
--------------------------------------------------------------------------

    Molecular point group: c1
  Charge       = 0
  Multiplicity = 1
  Basis Set: AUG-CC-PVTZ
    Blend: AUG-CC-PVTZ
  Basis Set: (AUG-CC-PVTZ AUX)
    Blend: AUG-CC-PVTZ-JKFIT + DEF2-UNIVERSAL-JKFIT

    Orbital Energies [Eh]
    ---------------------

    Doubly Occupied:

       1A    -11.283823     2A    -11.246439     3A    -11.230627
       4A     -7.708467     5A     -5.539782     6A     -5.530786
       7A     -5.530708     8A     -2.269076     9A     -2.264686
      10A     -2.264605    11A     -2.254634    12A     -2.254632
      13A     -1.094956    14A     -0.966476    15A     -0.859341
      16A     -0.806320    17A     -0.655585    18A     -0.608952
      19A     -0.577209    20A     -0.555782    21A     -0.526514
      22A     -0.458021    23A     -0.426348    24A     -0.359256
      25A     -0.357653

  @DF-RHF Final Energy:  -412.36307421659916

   => Energetics <=

    Nuclear Repulsion Energy =            183.2578500980251306
    One-Electron Energy =               -1035.9804940766002801
    Two-Electron Energy =                 440.3595697619760472
    Total Energy =                       -412.3630742165991592
  Basis Set: (AUG-CC-PVTZ AUX)
    Blend: AUG-CC-PVTZ-RI + DEF2-QZVPP-RI
    Molecular point group: c1

    Geometry (in Angstrom), charge = 0, multiplicity = 1:

       Center              X                  Y                   Z               Mass
    ------------   -----------------  -----------------  -----------------  -----------------
         I           -0.819735818978    -0.029884545902     0.009799768972   126.904471900000
         C            2.199570081022    -0.421982145902    -0.128994331028    12.000000000000
         C            1.229509181022     0.654125454098     0.009791768972    12.000000000000
         C            3.657883181022     0.020699454098     0.009806768972    12.000000000000
         H            2.045704181022    -1.127754545902     0.888541768972     1.007825032230
         H            2.045715181022    -1.127742545902    -0.868972231028     1.007825032230
         H            1.331133181022     1.276648454098    -0.879824231028     1.007825032230
         H            1.331141181022     1.276654454098     0.899402768972     1.007825032230
         H            4.369431181022    -0.808803545902     0.009750768972     1.007825032230
         H            3.857025181022     0.631790454098    -0.874759231028     1.007825032230
         H            3.857040181022     0.631688454098     0.894438768972     1.007825032230

  Basis Set: AUG-CC-PVTZ
    Blend: AUG-CC-PVTZ
  Basis Set: (AUG-CC-PVTZ AUX)
    Blend: AUG-CC-PVTZ-JKFIT + DEF2-UNIVERSAL-JKFIT
	 Reference Energy          =    -412.3630742165991592 [Eh]
	 Singles Energy            =      -0.0000000000000000 [Eh]
	 Same-Spin Energy          =      -0.2022523310115780 [Eh]
	 Opposite-Spin Energy      =      -0.6496103291673254 [Eh]
	 Correlation Energy        =      -0.8518626601789034 [Eh]
	 Total Energy              =    -413.2149368767780402 [Eh]

	 ================> DF-SCS-MP2 Energies <==================
	-----------------------------------------------------------
	 SCS Same-Spin Scale       =       0.3333333333333333 [-]
	 SCS Opposite-Spin Scale   =       1.2000000000000000 [-]
	 SCS Same-Spin Energy      =      -0.0674174436705260 [Eh]
	 SCS Opposite-Spin Energy  =      -0.7795323950007905 [Eh]
	 SCS Correlation Energy    =      -0.8469498386713166 [Eh]
	 SCS Total Energy          =    -413.2100240552704804 [Eh]
	-----------------------------------------------------------

  Dipole Moment: [D]
     X:     1.9817      Y:     0.4019      Z:    -0.0727     Total:     2.0234

*** Psi4 exiting successfully. Buy a developer a beer!
