                               Psi4 1.4a3.dev225

  ==> Input File <==

--------------------------------------------------------------------------
#psi4
#
memory 32 gb

molecule  {
0 1
  I       -1.0508630    -0.0327020     0.0000010
  C        1.9876030    -0.5024530    -0.0000080
  C        0.9983820     0.6513080    -0.0000070
  C        3.4267560     0.0178820     0.0000080
  H        1.8462109    -1.0157345     0.7180830
  H        1.8145880    -1.1305600    -0.8787710
  H        1.1000060     1.2738310    -0.8896230
  H        1.1000140     1.2738370     0.8896040
  H        4.1383040    -0.8116210    -0.0000480
  H        3.6258980     0.6289730    -0.8845580
  H        3.6259130     0.6288710     0.8846400
units angstrom
no_reorient  #important for SAPT in psi4, default
symmetry c1  #important for SAPT in psi4, default
}

set PROPERTIES_ORIGIN ["COM"]
properties('MP2/aug-cc-pvtz', properties = ['dipole'])
--------------------------------------------------------------------------

    Molecular point group: c1
  Charge       = 0
  Multiplicity = 1
  Basis Set: AUG-CC-PVTZ
    Blend: AUG-CC-PVTZ
  Basis Set: (AUG-CC-PVTZ AUX)
    Blend: AUG-CC-PVTZ-JKFIT + DEF2-UNIVERSAL-JKFIT

    Orbital Energies [Eh]
    ---------------------

    Doubly Occupied:

       1A    -11.283564     2A    -11.227392     3A    -11.216678
       4A     -7.706513     5A     -5.537685     6A     -5.528918
       7A     -5.528847     8A     -2.266957     9A     -2.262660
      10A     -2.262585    11A     -2.252863    12A     -2.252862
      13A     -1.094999    14A     -0.963098    15A     -0.868100
      16A     -0.820987    17A     -0.670978    18A     -0.599050
      19A     -0.569275    20A     -0.555913    21A     -0.520827
      22A     -0.500973    23A     -0.432560    24A     -0.356686
      25A     -0.356440

  @DF-RHF Final Energy:  -412.35457402020097

   => Energetics <=

    Nuclear Repulsion Energy =            183.5668170477607077
    One-Electron Energy =               -1036.5679630677548175
    Two-Electron Energy =                 440.6465719997931956
    Total Energy =                       -412.3545740202009711
  Basis Set: (AUG-CC-PVTZ AUX)
    Blend: AUG-CC-PVTZ-RI + DEF2-QZVPP-RI
    Molecular point group: c1

    Geometry (in Angstrom), charge = 0, multiplicity = 1:

       Center              X                  Y                   Z               Mass
    ------------   -----------------  -----------------  -----------------  -----------------
         I           -0.821276203751    -0.025082778969     0.000953506967   126.904471900000
         C            2.217189796249    -0.494833778969     0.000944506967    12.000000000000
         C            1.227968796249     0.658927221031     0.000945506967    12.000000000000
         C            3.656342796249     0.025501221031     0.000960506967    12.000000000000
         H            2.075797696249    -1.008115278969     0.719035506967     1.007825032230
         H            2.044174796249    -1.122940778969    -0.877818493033     1.007825032230
         H            1.329592796249     1.281450221031    -0.888670493033     1.007825032230
         H            1.329600796249     1.281456221031     0.890556506967     1.007825032230
         H            4.367890796249    -0.804001778969     0.000904506967     1.007825032230
         H            3.855484796249     0.636592221031    -0.883605493033     1.007825032230
         H            3.855499796249     0.636490221031     0.885592506967     1.007825032230

  Basis Set: AUG-CC-PVTZ
    Blend: AUG-CC-PVTZ
  Basis Set: (AUG-CC-PVTZ AUX)
    Blend: AUG-CC-PVTZ-JKFIT + DEF2-UNIVERSAL-JKFIT
	 Reference Energy          =    -412.3545740202009711 [Eh]
	 Singles Energy            =      -0.0000000000000000 [Eh]
	 Same-Spin Energy          =      -0.2012765545326223 [Eh]
	 Opposite-Spin Energy      =      -0.6470131967758472 [Eh]
	 Correlation Energy        =      -0.8482897513084695 [Eh]
	 Total Energy              =    -413.2028637715094419 [Eh]

	 ================> DF-SCS-MP2 Energies <==================
	-----------------------------------------------------------
	 SCS Same-Spin Scale       =       0.3333333333333333 [-]
	 SCS Opposite-Spin Scale   =       1.2000000000000000 [-]
	 SCS Same-Spin Energy      =      -0.0670921848442074 [Eh]
	 SCS Opposite-Spin Energy  =      -0.7764158361310166 [Eh]
	 SCS Correlation Energy    =      -0.8435080209752240 [Eh]
	 SCS Total Energy          =    -413.1980820411761783 [Eh]
	-----------------------------------------------------------

  Dipole Moment: [D]
     X:     2.0293      Y:     0.3146      Z:     0.0383     Total:     2.0539

*** Psi4 exiting successfully. Buy a developer a beer!
