                               Psi4 1.4a3.dev225

  ==> Input File <==

--------------------------------------------------------------------------
#psi4
#
memory 32 gb

molecule  {
0 1
  I       -1.0369247    -0.0703026     0.0638623
  C        1.9876030    -0.5024530    -0.0000080
  C        0.9983820     0.6513080    -0.0000070
  C        3.4267560     0.0178820     0.0000080
  H        1.8145770    -1.1305720     0.8787430
  H        1.8145880    -1.1305600    -0.8787710
  H        1.1000060     1.2738310    -0.8896230
  H        1.1000140     1.2738370     0.8896040
  H        4.1383040    -0.8116210    -0.0000480
  H        3.6258980     0.6289730    -0.8845580
  H        3.6259130     0.6288710     0.8846400
units angstrom
no_reorient  #important for SAPT in psi4, default
symmetry c1  #important for SAPT in psi4, default
}

set PROPERTIES_ORIGIN ["COM"]
properties('MP2/aug-cc-pvtz', properties = ['dipole'])
--------------------------------------------------------------------------

    Molecular point group: c1
  Charge       = 0
  Multiplicity = 1
  Basis Set: AUG-CC-PVTZ
    Blend: AUG-CC-PVTZ
  Basis Set: (AUG-CC-PVTZ AUX)
    Blend: AUG-CC-PVTZ-JKFIT + DEF2-UNIVERSAL-JKFIT

    Orbital Energies [Eh]
    ---------------------

    Doubly Occupied:

       1A    -11.284832     2A    -11.241126     3A    -11.228325
       4A     -7.706566     5A     -5.537774     6A     -5.528938
       7A     -5.528893     8A     -2.267053     9A     -2.262719
      10A     -2.262673    11A     -2.252875    12A     -2.252874
      13A     -1.084110    14A     -0.962993    15A     -0.855051
      16A     -0.808066    17A     -0.658481    18A     -0.596786
      19A     -0.567916    20A     -0.556803    21A     -0.507268
      22A     -0.495013    23A     -0.432805    24A     -0.356754
      25A     -0.356461

  @DF-RHF Final Energy:  -412.38817146632846

   => Energetics <=

    Nuclear Repulsion Energy =            182.8276027608751519
    One-Electron Energy =               -1035.2452384312853155
    Two-Electron Energy =                 440.0294642040817052
    Total Energy =                       -412.3881714663284583
  Basis Set: (AUG-CC-PVTZ AUX)
    Blend: AUG-CC-PVTZ-RI + DEF2-QZVPP-RI
    Molecular point group: c1

    Geometry (in Angstrom), charge = 0, multiplicity = 1:

       Center              X                  Y                   Z               Mass
    ------------   -----------------  -----------------  -----------------  -----------------
         I           -0.817557713463    -0.033926953673     0.016178431713   126.904471900000
         C            2.206969986537    -0.466077353673    -0.047691868287    12.000000000000
         C            1.217748986537     0.687683646327    -0.047690868287    12.000000000000
         C            3.646122986537     0.054257646327    -0.047675868287    12.000000000000
         H            2.033943986537    -1.094196353673     0.831059131713     1.007825032230
         H            2.033954986537    -1.094184353673    -0.926454868287     1.007825032230
         H            1.319372986537     1.310206646327    -0.937306868287     1.007825032230
         H            1.319380986537     1.310212646327     0.841920131713     1.007825032230
         H            4.357670986537    -0.775245353673    -0.047731868287     1.007825032230
         H            3.845264986537     0.665348646327    -0.932241868287     1.007825032230
         H            3.845279986537     0.665246646327     0.836956131713     1.007825032230

  Basis Set: AUG-CC-PVTZ
    Blend: AUG-CC-PVTZ
  Basis Set: (AUG-CC-PVTZ AUX)
    Blend: AUG-CC-PVTZ-JKFIT + DEF2-UNIVERSAL-JKFIT
	 Reference Energy          =    -412.3881714663284583 [Eh]
	 Singles Energy            =      -0.0000000000000000 [Eh]
	 Same-Spin Energy          =      -0.2013157535813187 [Eh]
	 Opposite-Spin Energy      =      -0.6477288856543466 [Eh]
	 Correlation Energy        =      -0.8490446392356653 [Eh]
	 Total Energy              =    -413.2372161055641300 [Eh]

	 ================> DF-SCS-MP2 Energies <==================
	-----------------------------------------------------------
	 SCS Same-Spin Scale       =       0.3333333333333333 [-]
	 SCS Opposite-Spin Scale   =       1.2000000000000000 [-]
	 SCS Same-Spin Energy      =      -0.0671052511937729 [Eh]
	 SCS Opposite-Spin Energy  =      -0.7772746627852160 [Eh]
	 SCS Correlation Energy    =      -0.8443799139789888 [Eh]
	 SCS Total Energy          =    -413.2325513803074273 [Eh]
	-----------------------------------------------------------

  Dipole Moment: [D]
     X:     2.0295      Y:     0.3772      Z:    -0.0378     Total:     2.0646

*** Psi4 exiting successfully. Buy a developer a beer!
