                               Psi4 1.4a3.dev225

  ==> Input File <==

--------------------------------------------------------------------------
#psi4
#
memory 32 gb

molecule  {
0 1
  I       -1.0508630    -0.0327020     0.0000010
  C        1.9876030    -0.5024530    -0.0000080
  C        1.0634719     0.5753915    -0.0000071
  C        3.4267560     0.0178820     0.0000080
  H        1.8145770    -1.1305720     0.8787430
  H        1.8145880    -1.1305600    -0.8787710
  H        1.1000060     1.2738310    -0.8896230
  H        1.1000140     1.2738370     0.8896040
  H        4.1383040    -0.8116210    -0.0000480
  H        3.6258980     0.6289730    -0.8845580
  H        3.6259130     0.6288710     0.8846400
units angstrom
no_reorient  #important for SAPT in psi4, default
symmetry c1  #important for SAPT in psi4, default
}

set PROPERTIES_ORIGIN ["COM"]
properties('MP2/aug-cc-pvtz', properties = ['dipole'])
--------------------------------------------------------------------------

    Molecular point group: c1
  Charge       = 0
  Multiplicity = 1
  Basis Set: AUG-CC-PVTZ
    Blend: AUG-CC-PVTZ
  Basis Set: (AUG-CC-PVTZ AUX)
    Blend: AUG-CC-PVTZ-JKFIT + DEF2-UNIVERSAL-JKFIT

    Orbital Energies [Eh]
    ---------------------

    Doubly Occupied:

       1A    -11.291532     2A    -11.237261     3A    -11.231443
       4A     -7.703910     5A     -5.534966     6A     -5.526357
       7A     -5.526241     8A     -2.264047     9A     -2.259983
      10A     -2.259874    11A     -2.250315    12A     -2.250311
      13A     -1.104131    14A     -0.959697    15A     -0.861167
      16A     -0.801973    17A     -0.662191    18A     -0.610462
      19A     -0.568009    20A     -0.557281    21A     -0.520624
      22A     -0.489354    23A     -0.419662    24A     -0.356700
      25A     -0.353654

  @DF-RHF Final Energy:  -412.37789189286013

   => Energetics <=

    Nuclear Repulsion Energy =            183.0306666735192209
    One-Electron Energy =               -1035.6148330172952683
    Two-Electron Energy =                 440.2062744509158847
    Total Energy =                       -412.3778918928601342
  Basis Set: (AUG-CC-PVTZ AUX)
    Blend: AUG-CC-PVTZ-RI + DEF2-QZVPP-RI
    Molecular point group: c1

    Geometry (in Angstrom), charge = 0, multiplicity = 1:

       Center              X                  Y                   Z               Mass
    ------------   -----------------  -----------------  -----------------  -----------------
         I           -0.825684303789    -0.019041718394     0.000000831708   126.904471900000
         C            2.212781696211    -0.488792718394    -0.000008168292    12.000000000000
         C            1.288650596211     0.589051781606    -0.000007268292    12.000000000000
         C            3.651934696211     0.031542281606     0.000007831708    12.000000000000
         H            2.039755696211    -1.116911718394     0.878742831708     1.007825032230
         H            2.039766696211    -1.116899718394    -0.878771168292     1.007825032230
         H            1.325184696211     1.287491281606    -0.889623168292     1.007825032230
         H            1.325192696211     1.287497281606     0.889603831708     1.007825032230
         H            4.363482696211    -0.797960718394    -0.000048168292     1.007825032230
         H            3.851076696211     0.642633281606    -0.884558168292     1.007825032230
         H            3.851091696211     0.642531281606     0.884639831708     1.007825032230

  Basis Set: AUG-CC-PVTZ
    Blend: AUG-CC-PVTZ
  Basis Set: (AUG-CC-PVTZ AUX)
    Blend: AUG-CC-PVTZ-JKFIT + DEF2-UNIVERSAL-JKFIT
	 Reference Energy          =    -412.3778918928601342 [Eh]
	 Singles Energy            =      -0.0000000000000000 [Eh]
	 Same-Spin Energy          =      -0.2023072719399271 [Eh]
	 Opposite-Spin Energy      =      -0.6486421485805868 [Eh]
	 Correlation Energy        =      -0.8509494205205139 [Eh]
	 Total Energy              =    -413.2288413133806557 [Eh]

	 ================> DF-SCS-MP2 Energies <==================
	-----------------------------------------------------------
	 SCS Same-Spin Scale       =       0.3333333333333333 [-]
	 SCS Opposite-Spin Scale   =       1.2000000000000000 [-]
	 SCS Same-Spin Energy      =      -0.0674357573133090 [Eh]
	 SCS Opposite-Spin Energy  =      -0.7783705782967041 [Eh]
	 SCS Correlation Energy    =      -0.8458063356100132 [Eh]
	 SCS Total Energy          =    -413.2236982284701412 [Eh]
	-----------------------------------------------------------

  Dipole Moment: [D]
     X:     2.2190      Y:     0.3502      Z:    -0.0000     Total:     2.2464

*** Psi4 exiting successfully. Buy a developer a beer!
