                               Psi4 1.4a3.dev225

  ==> Input File <==

--------------------------------------------------------------------------
#psi4
#
memory 32 gb

molecule  {
0 1
  I       -1.0623046     0.0057320    -0.0638604
  C        1.9876030    -0.5024530    -0.0000080
  C        0.9983820     0.6513080    -0.0000070
  C        3.4267560     0.0178820     0.0000080
  H        1.8145770    -1.1305720     0.8787430
  H        1.8145880    -1.1305600    -0.8787710
  H        1.1000060     1.2738310    -0.8896230
  H        1.1000140     1.2738370     0.8896040
  H        4.1383040    -0.8116210    -0.0000480
  H        3.6258980     0.6289730    -0.8845580
  H        3.6259130     0.6288710     0.8846400
units angstrom
no_reorient  #important for SAPT in psi4, default
symmetry c1  #important for SAPT in psi4, default
}

set PROPERTIES_ORIGIN ["COM"]
properties('MP2/aug-cc-pvtz', properties = ['dipole'])
--------------------------------------------------------------------------

    Molecular point group: c1
  Charge       = 0
  Multiplicity = 1
  Basis Set: AUG-CC-PVTZ
    Blend: AUG-CC-PVTZ
  Basis Set: (AUG-CC-PVTZ AUX)
    Blend: AUG-CC-PVTZ-JKFIT + DEF2-UNIVERSAL-JKFIT

    Orbital Energies [Eh]
    ---------------------

    Doubly Occupied:

       1A    -11.284684     2A    -11.241724     3A    -11.228932
       4A     -7.706584     5A     -5.537786     6A     -5.528969
       7A     -5.528901     8A     -2.267062     9A     -2.262741
      10A     -2.262675    11A     -2.252896    12A     -2.252895
      13A     -1.083907    14A     -0.963402    15A     -0.856343
      16A     -0.806841    17A     -0.658532    18A     -0.597235
      19A     -0.568229    20A     -0.556340    21A     -0.507684
      22A     -0.495320    23A     -0.432792    24A     -0.356875
      25A     -0.356273

  @DF-RHF Final Energy:  -412.38832921735934

   => Energetics <=

    Nuclear Repulsion Energy =            182.3235963725152828
    One-Electron Energy =               -1034.2326056454719492
    Two-Electron Energy =                 439.5206800555972677
    Total Energy =                       -412.3883292173593418
  Basis Set: (AUG-CC-PVTZ AUX)
    Blend: AUG-CC-PVTZ-RI + DEF2-QZVPP-RI
    Molecular point group: c1

    Geometry (in Angstrom), charge = 0, multiplicity = 1:

       Center              X                  Y                   Z               Mass
    ------------   -----------------  -----------------  -----------------  -----------------
         I           -0.823987054074    -0.014665556205    -0.016176807750   126.904471900000
         C            2.225920545926    -0.522850556205     0.047675592250    12.000000000000
         C            1.236699545926     0.630910443795     0.047676592250    12.000000000000
         C            3.665073545926    -0.002515556205     0.047691592250    12.000000000000
         H            2.052894545926    -1.150969556205     0.926426592250     1.007825032230
         H            2.052905545926    -1.150957556205    -0.831087407750     1.007825032230
         H            1.338323545926     1.253433443795    -0.841939407750     1.007825032230
         H            1.338331545926     1.253439443795     0.937287592250     1.007825032230
         H            4.376621545926    -0.832018556205     0.047635592250     1.007825032230
         H            3.864215545926     0.608575443795    -0.836874407750     1.007825032230
         H            3.864230545926     0.608473443795     0.932323592250     1.007825032230

  Basis Set: AUG-CC-PVTZ
    Blend: AUG-CC-PVTZ
  Basis Set: (AUG-CC-PVTZ AUX)
    Blend: AUG-CC-PVTZ-JKFIT + DEF2-UNIVERSAL-JKFIT
	 Reference Energy          =    -412.3883292173593418 [Eh]
	 Singles Energy            =      -0.0000000000000000 [Eh]
	 Same-Spin Energy          =      -0.2012272282667188 [Eh]
	 Opposite-Spin Energy      =      -0.6475834131638860 [Eh]
	 Correlation Energy        =      -0.8488106414306049 [Eh]
	 Total Energy              =    -413.2371398587899307 [Eh]

	 ================> DF-SCS-MP2 Energies <==================
	-----------------------------------------------------------
	 SCS Same-Spin Scale       =       0.3333333333333333 [-]
	 SCS Opposite-Spin Scale   =       1.2000000000000000 [-]
	 SCS Same-Spin Energy      =      -0.0670757427555729 [Eh]
	 SCS Opposite-Spin Energy  =      -0.7771000957966632 [Eh]
	 SCS Correlation Energy    =      -0.8441758385522361 [Eh]
	 SCS Total Energy          =    -413.2325050559115880 [Eh]
	-----------------------------------------------------------

  Dipole Moment: [D]
     X:     2.0551      Y:     0.3343      Z:     0.0380     Total:     2.0824

*** Psi4 exiting successfully. Buy a developer a beer!
