                               Psi4 1.4a3.dev225

  ==> Input File <==

--------------------------------------------------------------------------
#psi4
#
memory 32 gb

molecule  {
0 1
  I       -1.0508630    -0.0327020     0.0000010
  C        1.9876030    -0.5024530    -0.0000080
  C        0.9983820     0.6513080    -0.0000070
  C        3.5207980     0.0518835     0.0000090
  H        1.8145770    -1.1305720     0.8787430
  H        1.8145880    -1.1305600    -0.8787710
  H        1.1000060     1.2738310    -0.8896230
  H        1.1000140     1.2738370     0.8896040
  H        4.1383040    -0.8116210    -0.0000480
  H        3.6258980     0.6289730    -0.8845580
  H        3.6259130     0.6288710     0.8846400
units angstrom
no_reorient  #important for SAPT in psi4, default
symmetry c1  #important for SAPT in psi4, default
}

set PROPERTIES_ORIGIN ["COM"]
properties('MP2/aug-cc-pvtz', properties = ['dipole'])
--------------------------------------------------------------------------

    Molecular point group: c1
  Charge       = 0
  Multiplicity = 1
  Basis Set: AUG-CC-PVTZ
    Blend: AUG-CC-PVTZ
  Basis Set: (AUG-CC-PVTZ AUX)
    Blend: AUG-CC-PVTZ-JKFIT + DEF2-UNIVERSAL-JKFIT

    Orbital Energies [Eh]
    ---------------------

    Doubly Occupied:

       1A    -11.284541     2A    -11.244748     3A    -11.225901
       4A     -7.706219     5A     -5.537414     6A     -5.528604
       7A     -5.528541     8A     -2.266691     9A     -2.262372
      10A     -2.262308    11A     -2.252539    12A     -2.252539
      13A     -1.072942    14A     -0.962086    15A     -0.859901
      16A     -0.806342    17A     -0.656056    18A     -0.601689
      19A     -0.577599    20A     -0.535619    21A     -0.514602
      22A     -0.504220    23A     -0.424025    24A     -0.356204
      25A     -0.355864

  @DF-RHF Final Energy:  -412.38111494721733

   => Energetics <=

    Nuclear Repulsion Energy =            181.2867085756979293
    One-Electron Energy =               -1032.1765181254856998
    Two-Electron Energy =                 438.5086946025704151
    Total Energy =                       -412.3811149472173270
  Basis Set: (AUG-CC-PVTZ AUX)
    Blend: AUG-CC-PVTZ-RI + DEF2-QZVPP-RI
    Molecular point group: c1

    Geometry (in Angstrom), charge = 0, multiplicity = 1:

       Center              X                  Y                   Z               Mass
    ------------   -----------------  -----------------  -----------------  -----------------
         I           -0.827728471470    -0.026802496476     0.000000754043   126.904471900000
         C            2.210737528531    -0.496553496476    -0.000008245957    12.000000000000
         C            1.221516528530     0.657207503524    -0.000007245957    12.000000000000
         C            3.743932528530     0.057783003524     0.000008754043    12.000000000000
         H            2.037711528531    -1.124672496476     0.878742754043     1.007825032230
         H            2.037722528530    -1.124660496476    -0.878771245957     1.007825032230
         H            1.323140528530     1.279730503524    -0.889623245957     1.007825032230
         H            1.323148528531     1.279736503524     0.889603754043     1.007825032230
         H            4.361438528530    -0.805721496476    -0.000048245957     1.007825032230
         H            3.849032528530     0.634872503524    -0.884558245957     1.007825032230
         H            3.849047528530     0.634770503524     0.884639754043     1.007825032230

  Basis Set: AUG-CC-PVTZ
    Blend: AUG-CC-PVTZ
  Basis Set: (AUG-CC-PVTZ AUX)
    Blend: AUG-CC-PVTZ-JKFIT + DEF2-UNIVERSAL-JKFIT
	 Reference Energy          =    -412.3811149472173270 [Eh]
	 Singles Energy            =      -0.0000000000000000 [Eh]
	 Same-Spin Energy          =      -0.2009987462088721 [Eh]
	 Opposite-Spin Energy      =      -0.6477089760988373 [Eh]
	 Correlation Energy        =      -0.8487077223077094 [Eh]
	 Total Energy              =    -413.2298226695250492 [Eh]

	 ================> DF-SCS-MP2 Energies <==================
	-----------------------------------------------------------
	 SCS Same-Spin Scale       =       0.3333333333333333 [-]
	 SCS Opposite-Spin Scale   =       1.2000000000000000 [-]
	 SCS Same-Spin Energy      =      -0.0669995820696240 [Eh]
	 SCS Opposite-Spin Energy  =      -0.7772507713186046 [Eh]
	 SCS Correlation Energy    =      -0.8442503533882287 [Eh]
	 SCS Total Energy          =    -413.2253653006055742 [Eh]
	-----------------------------------------------------------

  Dipole Moment: [D]
     X:     2.0377      Y:     0.3617      Z:    -0.0000     Total:     2.0695

*** Psi4 exiting successfully. Buy a developer a beer!
