                               Psi4 1.3.2 release

  ==> Input File <==

--------------------------------------------------------------------------
#psi4
#
memory 32 gb

molecule  {
0 1
  O        2.3476870     0.7564740    -0.5170070
  N        0.1051940     2.2022940     0.2485340
  N        2.3184480    -1.3288730     0.3923020
  C        0.2041490    -0.2277810    -0.0328410
  C       -0.5292580     0.9782650     0.0721850
  C       -0.4780620    -1.4467680    -0.1744800
  C       -1.9322610     0.8976940     0.1244170
  C       -1.8678090    -1.5041600    -0.1507450
  C       -2.5929860    -0.3189550    -0.0016080
  C        1.6942170    -0.1960210    -0.0707790
  H        0.0963370    -2.3571300    -0.3293910
  H       -2.5048800     1.8176440     0.2323000
  H       -2.3796530    -2.4547020    -0.2729900
  H       -3.6848533    -0.3188642    -0.1740566
  H        1.0340450     2.2328410    -0.1623240
  H       -0.4673770     3.0011870     0.0009920
  H        1.8426920    -1.9076120     1.0707290
  H        3.3240540    -1.2501130     0.4893940
units angstrom
no_reorient  #important for SAPT in psi4, default
symmetry c1  #important for SAPT in psi4, default
}

set PROPERTIES_ORIGIN ["COM"]
properties('MP2/aug-cc-pvtz', properties = ['dipole'])
--------------------------------------------------------------------------

    Molecular point group: c1
  Charge       = 0
  Multiplicity = 1
  Basis Set: AUG-CC-PVTZ
    Blend: AUG-CC-PVTZ
  Basis Set: (AUG-CC-PVTZ AUX)
    Blend: AUG-CC-PVTZ-JKFIT

    Orbital Energies [Eh]
    ---------------------

    Doubly Occupied:

       1A    -20.526570     2A    -15.587906     3A    -15.560215
       4A    -11.363856     5A    -11.297291     6A    -11.256066
       7A    -11.254922     8A    -11.244673     9A    -11.234864
      10A    -11.232438    11A     -1.380367    12A     -1.227313
      13A     -1.214398    14A     -1.137142    15A     -1.036362
      16A     -0.998728    17A     -0.876476    18A     -0.833933
      19A     -0.792699    20A     -0.736497    21A     -0.698198
      22A     -0.686335    23A     -0.673705    24A     -0.637971
      25A     -0.608775    26A     -0.603524    27A     -0.586272
      28A     -0.575933    29A     -0.541882    30A     -0.518533
      31A     -0.510349    32A     -0.455753    33A     -0.435754
      34A     -0.420620    35A     -0.351790    36A     -0.303343

  @DF-RHF Final Energy:  -453.68408308647395

   => Energetics <=

    Nuclear Repulsion Energy =            499.6880534635702702
    One-Electron Energy =               -1607.9413635936275568
    Two-Electron Energy =                 654.5692270435833962
    Total Energy =                       -453.6840830864739473
  Basis Set: (AUG-CC-PVTZ AUX)
    Blend: AUG-CC-PVTZ-RI
    Molecular point group: c1

    Geometry (in Angstrom), charge = 0, multiplicity = 1:

       Center              X                  Y                   Z               Mass
    ------------   -----------------  -----------------  -----------------  -----------------
         O            2.327811756950     0.747131482588    -0.507888622813    15.994914619570
         N            0.085318756950     2.192951482588     0.257652377187    14.003074004430
         N            2.298572756950    -1.338215517412     0.401420377187    14.003074004430
         C            0.184273756950    -0.237123517412    -0.023722622813    12.000000000000
         C           -0.549133243050     0.968922482588     0.081303377187    12.000000000000
         C           -0.497937243050    -1.456110517412    -0.165361622813    12.000000000000
         C           -1.952136243050     0.888351482588     0.133535377187    12.000000000000
         C           -1.887684243050    -1.513502517412    -0.141626622813    12.000000000000
         C           -2.612861243050    -0.328297517412     0.007510377187    12.000000000000
         C            1.674341756950    -0.205363517412    -0.061660622813    12.000000000000
         H            0.076461756950    -2.366472517412    -0.320272622813     1.007825032230
         H           -2.524755243050     1.808301482588     0.241418377187     1.007825032230
         H           -2.399528243050    -2.464044517412    -0.263871622813     1.007825032230
         H           -3.704728543050    -0.328206717412    -0.164938222813     1.007825032230
         H            1.014169756950     2.223498482588    -0.153205622813     1.007825032230
         H           -0.487252243050     2.991844482588     0.010110377187     1.007825032230
         H            1.822816756950    -1.916954517412     1.079847377187     1.007825032230
         H            3.304178756950    -1.259455517412     0.498512377187     1.007825032230

  Basis Set: AUG-CC-PVTZ
    Blend: AUG-CC-PVTZ
  Basis Set: (AUG-CC-PVTZ AUX)
    Blend: AUG-CC-PVTZ-JKFIT
	 Reference Energy          =    -453.6840830864739473 [Eh]
	 Singles Energy            =      -0.0000000000000000 [Eh]
	 Same-Spin Energy          =      -0.4863521231989142 [Eh]
	 Opposite-Spin Energy      =      -1.4792840973396977 [Eh]
	 Correlation Energy        =      -1.9656362205386118 [Eh]
	 Total Energy              =    -455.6497193070125604 [Eh]

	 ================> DF-SCS-MP2 Energies <==================
	-----------------------------------------------------------
	 SCS Same-Spin Scale       =       0.3333333333333333 [-]
	 SCS Opposite-Spin Scale   =       1.2000000000000000 [-]
	 SCS Same-Spin Energy      =      -0.1621173743996381 [Eh]
	 SCS Opposite-Spin Energy  =      -1.7751409168076371 [Eh]
	 SCS Correlation Energy    =      -1.9372582912072751 [Eh]
	 SCS Total Energy          =    -455.6213413776812331 [Eh]
	-----------------------------------------------------------

  Dipole Moment: [D]
     X:    -1.0976      Y:    -1.3410      Z:     0.9374     Total:     1.9703

*** Psi4 exiting successfully. Buy a developer a beer!
