                               Psi4 1.3.2 release

  ==> Input File <==

--------------------------------------------------------------------------
#psi4
#
memory 32 gb

molecule  {
0 1
  O        2.3476870     0.7564740    -0.5170070
  N        0.1051940     2.2022940     0.2485340
  N        2.3184480    -1.3288730     0.3923020
  C        0.2041490    -0.2277810    -0.0328410
  C       -0.5292580     0.9782650     0.0721850
  C       -0.4780620    -1.4467680    -0.1744800
  C       -1.9322610     0.8976940     0.1244170
  C       -1.8678090    -1.5041600    -0.1507450
  C       -2.5929860    -0.3189550    -0.0016080
  C        1.6952812    -0.2061176     0.0287043
  H        0.0963370    -2.3571300    -0.3293910
  H       -2.5048800     1.8176440     0.2323000
  H       -2.3796530    -2.4547020    -0.2729900
  H       -3.6801520    -0.3414970     0.0246030
  H        1.0340450     2.2328410    -0.1623240
  H       -0.4673770     3.0011870     0.0009920
  H        1.8426920    -1.9076120     1.0707290
  H        3.3240540    -1.2501130     0.4893940
units angstrom
no_reorient  #important for SAPT in psi4, default
symmetry c1  #important for SAPT in psi4, default
}

set PROPERTIES_ORIGIN ["COM"]
properties('MP2/aug-cc-pvtz', properties = ['dipole'])
--------------------------------------------------------------------------

    Molecular point group: c1
  Charge       = 0
  Multiplicity = 1
  Basis Set: AUG-CC-PVTZ
    Blend: AUG-CC-PVTZ
  Basis Set: (AUG-CC-PVTZ AUX)
    Blend: AUG-CC-PVTZ-JKFIT

    Orbital Energies [Eh]
    ---------------------

    Doubly Occupied:

       1A    -20.518029     2A    -15.598349     3A    -15.557976
       4A    -11.364654     5A    -11.296676     6A    -11.256004
       7A    -11.252917     8A    -11.245900     9A    -11.234313
      10A    -11.232173    11A     -1.356884    12A     -1.228139
      13A     -1.224374    14A     -1.137075    15A     -1.036605
      16A     -0.998144    17A     -0.878562    18A     -0.834395
      19A     -0.797971    20A     -0.742678    21A     -0.702183
      22A     -0.686374    23A     -0.676984    24A     -0.631069
      25A     -0.606512    26A     -0.603690    27A     -0.578974
      28A     -0.571583    29A     -0.535591    30A     -0.523081
      31A     -0.509419    32A     -0.453962    33A     -0.428787
      34A     -0.420326    35A     -0.350925    36A     -0.302291

  @DF-RHF Final Energy:  -453.67621991274967

   => Energetics <=

    Nuclear Repulsion Energy =            499.5272128658573934
    One-Electron Energy =               -1607.6597255763697376
    Two-Electron Energy =                 654.4562927977627851
    Total Energy =                       -453.6762199127496160
  Basis Set: (AUG-CC-PVTZ AUX)
    Blend: AUG-CC-PVTZ-RI
    Molecular point group: c1

    Geometry (in Angstrom), charge = 0, multiplicity = 1:

       Center              X                  Y                   Z               Mass
    ------------   -----------------  -----------------  -----------------  -----------------
         O            2.327683078304     0.748189583622    -0.518133927755    15.994914619570
         N            0.085190078304     2.194009583622     0.247407072245    14.003074004430
         N            2.298444078304    -1.337157416378     0.391175072245    14.003074004430
         C            0.184145078304    -0.236065416378    -0.033967927755    12.000000000000
         C           -0.549261921696     0.969980583622     0.071058072245    12.000000000000
         C           -0.498065921696    -1.455052416378    -0.175606927755    12.000000000000
         C           -1.952264921696     0.889409583622     0.123290072245    12.000000000000
         C           -1.887812921696    -1.512444416378    -0.151871927755    12.000000000000
         C           -2.612989921696    -0.327239416378    -0.002734927755    12.000000000000
         C            1.675277278304    -0.214402016378     0.027577372245    12.000000000000
         H            0.076333078304    -2.365414416378    -0.330517927755     1.007825032230
         H           -2.524883921696     1.809359583622     0.231173072245     1.007825032230
         H           -2.399656921696    -2.462986416378    -0.274116927755     1.007825032230
         H           -3.700155921696    -0.349781416378     0.023476072245     1.007825032230
         H            1.014041078304     2.224556583622    -0.163450927755     1.007825032230
         H           -0.487380921696     2.992902583622    -0.000134927755     1.007825032230
         H            1.822688078304    -1.915896416378     1.069602072245     1.007825032230
         H            3.304050078304    -1.258397416378     0.488267072245     1.007825032230

  Basis Set: AUG-CC-PVTZ
    Blend: AUG-CC-PVTZ
  Basis Set: (AUG-CC-PVTZ AUX)
    Blend: AUG-CC-PVTZ-JKFIT
	 Reference Energy          =    -453.6762199127496729 [Eh]
	 Singles Energy            =      -0.0000000000000000 [Eh]
	 Same-Spin Energy          =      -0.4873486619649632 [Eh]
	 Opposite-Spin Energy      =      -1.4811747006517808 [Eh]
	 Correlation Energy        =      -1.9685233626167440 [Eh]
	 Total Energy              =    -455.6447432753664089 [Eh]

	 ================> DF-SCS-MP2 Energies <==================
	-----------------------------------------------------------
	 SCS Same-Spin Scale       =       0.3333333333333333 [-]
	 SCS Opposite-Spin Scale   =       1.2000000000000000 [-]
	 SCS Same-Spin Energy      =      -0.1624495539883211 [Eh]
	 SCS Opposite-Spin Energy  =      -1.7774096407821369 [Eh]
	 SCS Correlation Energy    =      -1.9398591947704580 [Eh]
	 SCS Total Energy          =    -455.6160791075201359 [Eh]
	-----------------------------------------------------------

  Dipole Moment: [D]
     X:    -1.0273      Y:    -1.6758      Z:     1.2866     Total:     2.3492

*** Psi4 exiting successfully. Buy a developer a beer!
