                               Psi4 1.3.2 release

  ==> Input File <==

--------------------------------------------------------------------------
#psi4
#
memory 32 gb

molecule  {
0 1
  O        2.3476870     0.7564740    -0.5170070
  N        0.1051940     2.2022940     0.2485340
  N        2.3184480    -1.3288730     0.3923020
  C        0.2041490    -0.2277810    -0.0328410
  C       -0.5292580     0.9782650     0.0721850
  C       -0.4780620    -1.4467680    -0.1744800
  C       -1.9348212     0.9205933    -0.0742512
  C       -1.8678090    -1.5041600    -0.1507450
  C       -2.5929860    -0.3189550    -0.0016080
  C        1.6942170    -0.1960210    -0.0707790
  H        0.0963370    -2.3571300    -0.3293910
  H       -2.5048800     1.8176440     0.2323000
  H       -2.3796530    -2.4547020    -0.2729900
  H       -3.6801520    -0.3414970     0.0246030
  H        1.0340450     2.2328410    -0.1623240
  H       -0.4673770     3.0011870     0.0009920
  H        1.8426920    -1.9076120     1.0707290
  H        3.3240540    -1.2501130     0.4893940
units angstrom
no_reorient  #important for SAPT in psi4, default
symmetry c1  #important for SAPT in psi4, default
}

set PROPERTIES_ORIGIN ["COM"]
properties('MP2/aug-cc-pvtz', properties = ['dipole'])
--------------------------------------------------------------------------

    Molecular point group: c1
  Charge       = 0
  Multiplicity = 1
  Basis Set: AUG-CC-PVTZ
    Blend: AUG-CC-PVTZ
  Basis Set: (AUG-CC-PVTZ AUX)
    Blend: AUG-CC-PVTZ-JKFIT

    Orbital Energies [Eh]
    ---------------------

    Doubly Occupied:

       1A    -20.526930     2A    -15.588019     3A    -15.560163
       4A    -11.364193     5A    -11.299423     6A    -11.258296
       7A    -11.256654     8A    -11.244447     9A    -11.236801
      10A    -11.232353    11A     -1.380633    12A     -1.226962
      13A     -1.214599    14A     -1.136692    15A     -1.035539
      16A     -0.997874    17A     -0.876756    18A     -0.833085
      19A     -0.792033    20A     -0.736038    21A     -0.698578
      22A     -0.687993    23A     -0.673173    24A     -0.637024
      25A     -0.609050    26A     -0.606036    27A     -0.584457
      28A     -0.572533    29A     -0.540222    30A     -0.521159
      31A     -0.507674    32A     -0.452331    33A     -0.436260
      34A     -0.420954    35A     -0.351965    36A     -0.304434

  @DF-RHF Final Energy:  -453.67700751141626

   => Energetics <=

    Nuclear Repulsion Energy =            499.3759993335331160
    One-Electron Energy =               -1607.3033433947100548
    Two-Electron Energy =                 654.2503365497606183
    Total Energy =                       -453.6770075114162637
  Basis Set: (AUG-CC-PVTZ AUX)
    Blend: AUG-CC-PVTZ-RI
    Molecular point group: c1

    Geometry (in Angstrom), charge = 0, multiplicity = 1:

       Center              X                  Y                   Z               Mass
    ------------   -----------------  -----------------  -----------------  -----------------
         O            2.328002728673     0.745279542899    -0.491838751482    15.994914619570
         N            0.085509728673     2.191099542899     0.273702248518    14.003074004430
         N            2.298763728673    -1.340067457101     0.417470248518    14.003074004430
         C            0.184464728673    -0.238975457101    -0.007672751482    12.000000000000
         C           -0.548942271327     0.967070542899     0.097353248518    12.000000000000
         C           -0.497746271327    -1.457962457101    -0.149311751482    12.000000000000
         C           -1.954505471327     0.909398842899    -0.049082951482    12.000000000000
         C           -1.887493271327    -1.515354457101    -0.125576751482    12.000000000000
         C           -2.612670271327    -0.330149457101     0.023560248518    12.000000000000
         C            1.674532728673    -0.207215457101    -0.045610751482    12.000000000000
         H            0.076652728673    -2.368324457101    -0.304222751482     1.007825032230
         H           -2.524564271327     1.806449542899     0.257468248518     1.007825032230
         H           -2.399337271327    -2.465896457101    -0.247821751482     1.007825032230
         H           -3.699836271327    -0.352691457101     0.049771248518     1.007825032230
         H            1.014360728673     2.221646542899    -0.137155751482     1.007825032230
         H           -0.487061271327     2.989992542899     0.026160248518     1.007825032230
         H            1.823007728673    -1.918806457101     1.095897248518     1.007825032230
         H            3.304369728673    -1.261307457101     0.514562248518     1.007825032230

  Basis Set: AUG-CC-PVTZ
    Blend: AUG-CC-PVTZ
  Basis Set: (AUG-CC-PVTZ AUX)
    Blend: AUG-CC-PVTZ-JKFIT
	 Reference Energy          =    -453.6770075114162637 [Eh]
	 Singles Energy            =      -0.0000000000000000 [Eh]
	 Same-Spin Energy          =      -0.4864952370345669 [Eh]
	 Opposite-Spin Energy      =      -1.4801279103167029 [Eh]
	 Correlation Energy        =      -1.9666231473512696 [Eh]
	 Total Energy              =    -455.6436306587675062 [Eh]

	 ================> DF-SCS-MP2 Energies <==================
	-----------------------------------------------------------
	 SCS Same-Spin Scale       =       0.3333333333333333 [-]
	 SCS Opposite-Spin Scale   =       1.2000000000000000 [-]
	 SCS Same-Spin Energy      =      -0.1621650790115223 [Eh]
	 SCS Opposite-Spin Energy  =      -1.7761534923800435 [Eh]
	 SCS Correlation Energy    =      -1.9383185713915658 [Eh]
	 SCS Total Energy          =    -455.6153260828078260 [Eh]
	-----------------------------------------------------------

  Dipole Moment: [D]
     X:    -1.0528      Y:    -1.4442      Z:     1.1818     Total:     2.1426

*** Psi4 exiting successfully. Buy a developer a beer!
