                               Psi4 1.3.2 release

  ==> Input File <==

--------------------------------------------------------------------------
#psi4
#
memory 32 gb

molecule  {
0 1
  O        2.3476870     0.7564740    -0.5170070
  N        0.1051940     2.2022940     0.2485340
  N        2.3184480    -1.3288730     0.3923020
  C        0.2041490    -0.2277810    -0.0328410
  C       -0.5292580     0.9782650     0.0721850
  C       -0.4780620    -1.4467680    -0.1744800
  C       -1.9322610     0.8976940     0.1244170
  C       -1.8678090    -1.5041600    -0.1507450
  C       -2.5929860    -0.3189550    -0.0016080
  C        1.6942170    -0.1960210    -0.0707790
  H        0.0963370    -2.3571300    -0.3293910
  H       -2.5048800     1.8176440     0.2323000
  H       -2.3796530    -2.4547020    -0.2729900
  H       -3.6813273    -0.3358388    -0.0250619
  H        1.0340450     2.2328410    -0.1623240
  H       -0.4673770     3.0011870     0.0009920
  H        1.8426920    -1.9076120     1.0707290
  H        3.3240540    -1.2501130     0.4893940
units angstrom
no_reorient  #important for SAPT in psi4, default
symmetry c1  #important for SAPT in psi4, default
}

set PROPERTIES_ORIGIN ["COM"]
properties('MP2/aug-cc-pvtz', properties = ['dipole'])
--------------------------------------------------------------------------

    Molecular point group: c1
  Charge       = 0
  Multiplicity = 1
  Basis Set: AUG-CC-PVTZ
    Blend: AUG-CC-PVTZ
  Basis Set: (AUG-CC-PVTZ AUX)
    Blend: AUG-CC-PVTZ-JKFIT

    Orbital Energies [Eh]
    ---------------------

    Doubly Occupied:

       1A    -20.526461     2A    -15.587744     3A    -15.560108
       4A    -11.363733     5A    -11.297182     6A    -11.255939
       7A    -11.253379     8A    -11.244395     9A    -11.234609
      10A    -11.232146    11A     -1.380248    12A     -1.227195
      13A     -1.214260    14A     -1.137089    15A     -1.036606
      16A     -0.998582    17A     -0.877253    18A     -0.833797
      19A     -0.792866    20A     -0.736382    21A     -0.698811
      22A     -0.687840    23A     -0.673589    24A     -0.637920
      25A     -0.609059    26A     -0.604030    27A     -0.586332
      28A     -0.575447    29A     -0.540183    30A     -0.522338
      31A     -0.510169    32A     -0.455374    33A     -0.435727
      34A     -0.420509    35A     -0.352158    36A     -0.303246

  @DF-RHF Final Energy:  -453.68653886908362

   => Energetics <=

    Nuclear Repulsion Energy =            499.7515018679628156
    One-Electron Energy =               -1608.0706708294760574
    Two-Electron Energy =                 654.6326300924296220
    Total Energy =                       -453.6865388690836198
  Basis Set: (AUG-CC-PVTZ AUX)
    Blend: AUG-CC-PVTZ-RI
    Molecular point group: c1

    Geometry (in Angstrom), charge = 0, multiplicity = 1:

       Center              X                  Y                   Z               Mass
    ------------   -----------------  -----------------  -----------------  -----------------
         O            2.327785639829     0.747257213635    -0.508992228178    15.994914619570
         N            0.085292639829     2.193077213635     0.256548771822    14.003074004430
         N            2.298546639829    -1.338089786365     0.400316771822    14.003074004430
         C            0.184247639829    -0.236997786365    -0.024826228178    12.000000000000
         C           -0.549159360171     0.969048213635     0.080199771822    12.000000000000
         C           -0.497963360171    -1.455984786365    -0.166465228178    12.000000000000
         C           -1.952162360171     0.888477213635     0.132431771822    12.000000000000
         C           -1.887710360171    -1.513376786365    -0.142730228178    12.000000000000
         C           -2.612887360171    -0.328171786365     0.006406771822    12.000000000000
         C            1.674315639829    -0.205237786365    -0.062764228178    12.000000000000
         H            0.076435639829    -2.366346786365    -0.321376228178     1.007825032230
         H           -2.524781360171     1.808427213635     0.240314771822     1.007825032230
         H           -2.399554360171    -2.463918786365    -0.264975228178     1.007825032230
         H           -3.701228660171    -0.345055586365    -0.017047128178     1.007825032230
         H            1.014143639829     2.223624213635    -0.154309228178     1.007825032230
         H           -0.487278360171     2.991970213635     0.009006771822     1.007825032230
         H            1.822790639829    -1.916828786365     1.078743771822     1.007825032230
         H            3.304152639829    -1.259329786365     0.497408771822     1.007825032230

  Basis Set: AUG-CC-PVTZ
    Blend: AUG-CC-PVTZ
  Basis Set: (AUG-CC-PVTZ AUX)
    Blend: AUG-CC-PVTZ-JKFIT
	 Reference Energy          =    -453.6865388690836198 [Eh]
	 Singles Energy            =      -0.0000000000000000 [Eh]
	 Same-Spin Energy          =      -0.4861942352893776 [Eh]
	 Opposite-Spin Energy      =      -1.4789098717067080 [Eh]
	 Correlation Energy        =      -1.9651041069960855 [Eh]
	 Total Energy              =    -455.6516429760796996 [Eh]

	 ================> DF-SCS-MP2 Energies <==================
	-----------------------------------------------------------
	 SCS Same-Spin Scale       =       0.3333333333333333 [-]
	 SCS Opposite-Spin Scale   =       1.2000000000000000 [-]
	 SCS Same-Spin Energy      =      -0.1620647450964592 [Eh]
	 SCS Opposite-Spin Energy  =      -1.7746918460480494 [Eh]
	 SCS Correlation Energy    =      -1.9367565911445086 [Eh]
	 SCS Total Energy          =    -455.6232954602281211 [Eh]
	-----------------------------------------------------------

  Dipole Moment: [D]
     X:    -1.1277      Y:    -1.3516      Z:     1.0303     Total:     2.0396

*** Psi4 exiting successfully. Buy a developer a beer!
