                               Psi4 1.3.2 release

  ==> Input File <==

--------------------------------------------------------------------------
#psi4
#
memory 32 gb

molecule  {
0 1
  O        2.3476870     0.7564740    -0.5170070
  N        0.1051940     2.2022940     0.2485340
  N        2.3184480    -1.3288730     0.3923020
  C        0.2041490    -0.2277810    -0.0328410
  C       -0.5292580     0.9782650     0.0721850
  C       -0.4780620    -1.4467680    -0.1744800
  C       -1.9341811     0.9148684    -0.0245842
  C       -1.8678090    -1.5041600    -0.1507450
  C       -2.5929860    -0.3189550    -0.0016080
  C        1.6942170    -0.1960210    -0.0707790
  H        0.0963370    -2.3571300    -0.3293910
  H       -2.5048800     1.8176440     0.2323000
  H       -2.3796530    -2.4547020    -0.2729900
  H       -3.6801520    -0.3414970     0.0246030
  H        1.0340450     2.2328410    -0.1623240
  H       -0.4673770     3.0011870     0.0009920
  H        1.8426920    -1.9076120     1.0707290
  H        3.3240540    -1.2501130     0.4893940
units angstrom
no_reorient  #important for SAPT in psi4, default
symmetry c1  #important for SAPT in psi4, default
}

set PROPERTIES_ORIGIN ["COM"]
properties('MP2/aug-cc-pvtz', properties = ['dipole'])
--------------------------------------------------------------------------

    Molecular point group: c1
  Charge       = 0
  Multiplicity = 1
  Basis Set: AUG-CC-PVTZ
    Blend: AUG-CC-PVTZ
  Basis Set: (AUG-CC-PVTZ AUX)
    Blend: AUG-CC-PVTZ-JKFIT

    Orbital Energies [Eh]
    ---------------------

    Doubly Occupied:

       1A    -20.526781     2A    -15.587893     3A    -15.559934
       4A    -11.364034     5A    -11.298265     6A    -11.257309
       7A    -11.255239     8A    -11.244416     9A    -11.235731
      10A    -11.232304    11A     -1.380494    12A     -1.227000
      13A     -1.214455    14A     -1.136847    15A     -1.036019
      16A     -0.998246    17A     -0.877075    18A     -0.833377
      19A     -0.792410    20A     -0.736179    21A     -0.698724
      22A     -0.687959    23A     -0.673327    24A     -0.637405
      25A     -0.609151    26A     -0.605927    27A     -0.585303
      28A     -0.573259    29A     -0.540180    30A     -0.521752
      31A     -0.509139    32A     -0.453151    33A     -0.436161
      34A     -0.420794    35A     -0.352068    36A     -0.304038

  @DF-RHF Final Energy:  -453.68159889549094

   => Energetics <=

    Nuclear Repulsion Energy =            499.5556080035786977
    One-Electron Energy =               -1607.6697178812453330
    Two-Electron Energy =                 654.4325109821756996
    Total Energy =                       -453.6815988954908789
  Basis Set: (AUG-CC-PVTZ AUX)
    Blend: AUG-CC-PVTZ-RI
    Molecular point group: c1

    Geometry (in Angstrom), charge = 0, multiplicity = 1:

       Center              X                  Y                   Z               Mass
    ------------   -----------------  -----------------  -----------------  -----------------
         O            2.327946275687     0.745784444785    -0.496219083360    15.994914619570
         N            0.085453275687     2.191604444785     0.269321916640    14.003074004430
         N            2.298707275687    -1.339562555215     0.413089916640    14.003074004430
         C            0.184408275687    -0.238470555215    -0.012053083360    12.000000000000
         C           -0.548998724313     0.967575444785     0.092972916640    12.000000000000
         C           -0.497802724313    -1.457457555215    -0.153692083360    12.000000000000
         C           -1.953921824313     0.904178844785    -0.003796283360    12.000000000000
         C           -1.887549724313    -1.514849555215    -0.129957083360    12.000000000000
         C           -2.612726724313    -0.329644555215     0.019179916640    12.000000000000
         C            1.674476275687    -0.206710555215    -0.049991083360    12.000000000000
         H            0.076596275687    -2.367819555215    -0.308603083360     1.007825032230
         H           -2.524620724313     1.806954444785     0.253087916640     1.007825032230
         H           -2.399393724313    -2.465391555215    -0.252202083360     1.007825032230
         H           -3.699892724313    -0.352186555215     0.045390916640     1.007825032230
         H            1.014304275687     2.222151444785    -0.141536083360     1.007825032230
         H           -0.487117724313     2.990497444785     0.021779916640     1.007825032230
         H            1.822951275687    -1.918301555215     1.091516916640     1.007825032230
         H            3.304313275687    -1.260802555215     0.510181916640     1.007825032230

  Basis Set: AUG-CC-PVTZ
    Blend: AUG-CC-PVTZ
  Basis Set: (AUG-CC-PVTZ AUX)
    Blend: AUG-CC-PVTZ-JKFIT
	 Reference Energy          =    -453.6815988954909358 [Eh]
	 Singles Energy            =      -0.0000000000000000 [Eh]
	 Same-Spin Energy          =      -0.4863481250014759 [Eh]
	 Opposite-Spin Energy      =      -1.4795504874494991 [Eh]
	 Correlation Energy        =      -1.9658986124509750 [Eh]
	 Total Energy              =    -455.6474975079419210 [Eh]

	 ================> DF-SCS-MP2 Energies <==================
	-----------------------------------------------------------
	 SCS Same-Spin Scale       =       0.3333333333333333 [-]
	 SCS Opposite-Spin Scale   =       1.2000000000000000 [-]
	 SCS Same-Spin Energy      =      -0.1621160416671586 [Eh]
	 SCS Opposite-Spin Energy  =      -1.7754605849393990 [Eh]
	 SCS Correlation Energy    =      -1.9375766266065575 [Eh]
	 SCS Total Energy          =    -455.6191755220975210 [Eh]
	-----------------------------------------------------------

  Dipole Moment: [D]
     X:    -1.0856      Y:    -1.4128      Z:     1.1509     Total:     2.1211

*** Psi4 exiting successfully. Buy a developer a beer!
