                               Psi4 1.3.2 release

  ==> Input File <==

--------------------------------------------------------------------------
#psi4
#
memory 32 gb

molecule  {
0 1
  O        2.3476870     0.7564740    -0.5170070
  N        0.1051940     2.2022940     0.2485340
  N        2.3184480    -1.3288730     0.3923020
  C        0.2041490    -0.2277810    -0.0328410
  C       -0.5292580     0.9782650     0.0721850
  C       -0.4780620    -1.4467680    -0.1744800
  C       -1.9322610     0.8976940     0.1244170
  C       -1.8678090    -1.5041600    -0.1507450
  C       -2.5929860    -0.3189550    -0.0016080
  C        1.6958133    -0.2111659     0.0784459
  H        0.0963370    -2.3571300    -0.3293910
  H       -2.5048800     1.8176440     0.2323000
  H       -2.3796530    -2.4547020    -0.2729900
  H       -3.6801520    -0.3414970     0.0246030
  H        1.0340450     2.2328410    -0.1623240
  H       -0.4673770     3.0011870     0.0009920
  H        1.8426920    -1.9076120     1.0707290
  H        3.3240540    -1.2501130     0.4893940
units angstrom
no_reorient  #important for SAPT in psi4, default
symmetry c1  #important for SAPT in psi4, default
}

set PROPERTIES_ORIGIN ["COM"]
properties('MP2/aug-cc-pvtz', properties = ['dipole'])
--------------------------------------------------------------------------

    Molecular point group: c1
  Charge       = 0
  Multiplicity = 1
  Basis Set: AUG-CC-PVTZ
    Blend: AUG-CC-PVTZ
  Basis Set: (AUG-CC-PVTZ AUX)
    Blend: AUG-CC-PVTZ-JKFIT

    Orbital Energies [Eh]
    ---------------------

    Doubly Occupied:

       1A    -20.514318     2A    -15.603437     3A    -15.556951
       4A    -11.365703     5A    -11.296394     6A    -11.255974
       7A    -11.252710     8A    -11.247126     9A    -11.234174
      10A    -11.232205    11A     -1.348219    12A     -1.231776
      13A     -1.222882    14A     -1.136989    15A     -1.036370
      16A     -0.997889    17A     -0.879029    18A     -0.834698
      19A     -0.800359    20A     -0.745930    21A     -0.703839
      22A     -0.685732    23A     -0.677798    24A     -0.628647
      25A     -0.605402    26A     -0.603614    27A     -0.577312
      28A     -0.567291    29A     -0.533051    30A     -0.523239
      31A     -0.509062    32A     -0.453382    33A     -0.425104
      34A     -0.418261    35A     -0.349946    36A     -0.301737

  @DF-RHF Final Energy:  -453.66561350823326

   => Energetics <=

    Nuclear Repulsion Energy =            499.3389572306577406
    One-Electron Energy =               -1607.2960391616738889
    Two-Electron Energy =                 654.2914684227828275
    Total Energy =                       -453.6656135082332639
  Basis Set: (AUG-CC-PVTZ AUX)
    Blend: AUG-CC-PVTZ-RI
    Molecular point group: c1

    Geometry (in Angstrom), charge = 0, multiplicity = 1:

       Center              X                  Y                   Z               Mass
    ------------   -----------------  -----------------  -----------------  -----------------
         O            2.327636150272     0.748634813441    -0.522520838906    15.994914619570
         N            0.085143150272     2.194454813441     0.243020161094    14.003074004430
         N            2.298397150272    -1.336712186559     0.386788161094    14.003074004430
         C            0.184098150272    -0.235620186559    -0.038354838906    12.000000000000
         C           -0.549308849728     0.970425813441     0.066671161094    12.000000000000
         C           -0.498112849728    -1.454607186559    -0.179993838906    12.000000000000
         C           -1.952311849728     0.889854813441     0.118903161094    12.000000000000
         C           -1.887859849728    -1.511999186559    -0.156258838906    12.000000000000
         C           -2.613036849728    -0.326794186559    -0.007121838906    12.000000000000
         C            1.675762450272    -0.219005086559     0.072932061094    12.000000000000
         H            0.076286150272    -2.364969186559    -0.334904838906     1.007825032230
         H           -2.524930849728     1.809804813441     0.226786161094     1.007825032230
         H           -2.399703849728    -2.462541186559    -0.278503838906     1.007825032230
         H           -3.700202849728    -0.349336186559     0.019089161094     1.007825032230
         H            1.013994150272     2.225001813441    -0.167837838906     1.007825032230
         H           -0.487427849728     2.993347813441    -0.004521838906     1.007825032230
         H            1.822641150272    -1.915451186559     1.065215161094     1.007825032230
         H            3.304003150272    -1.257952186559     0.483880161094     1.007825032230

  Basis Set: AUG-CC-PVTZ
    Blend: AUG-CC-PVTZ
  Basis Set: (AUG-CC-PVTZ AUX)
    Blend: AUG-CC-PVTZ-JKFIT
	 Reference Energy          =    -453.6656135082332639 [Eh]
	 Singles Energy            =      -0.0000000000000000 [Eh]
	 Same-Spin Energy          =      -0.4881035171401232 [Eh]
	 Opposite-Spin Energy      =      -1.4827864513883755 [Eh]
	 Correlation Energy        =      -1.9708899685284986 [Eh]
	 Total Energy              =    -455.6365034767617885 [Eh]

	 ================> DF-SCS-MP2 Energies <==================
	-----------------------------------------------------------
	 SCS Same-Spin Scale       =       0.3333333333333333 [-]
	 SCS Opposite-Spin Scale   =       1.2000000000000000 [-]
	 SCS Same-Spin Energy      =      -0.1627011723800411 [Eh]
	 SCS Opposite-Spin Energy  =      -1.7793437416660505 [Eh]
	 SCS Correlation Energy    =      -1.9420449140460916 [Eh]
	 SCS Total Energy          =    -455.6076584222793713 [Eh]
	-----------------------------------------------------------

  Dipole Moment: [D]
     X:    -0.9753      Y:    -1.8210      Z:     1.3828     Total:     2.4858

*** Psi4 exiting successfully. Buy a developer a beer!
