                               Psi4 1.3.2 release

  ==> Input File <==

--------------------------------------------------------------------------
#psi4
#
memory 32 gb

molecule  {
0 1
  O        2.3476870     0.7564740    -0.5170070
  N        0.1051940     2.2022940     0.2485340
  N        2.3184480    -1.3288730     0.3923020
  C        0.2041490    -0.2277810    -0.0328410
  C       -0.5292580     0.9782650     0.0721850
  C       -0.4780620    -1.4467680    -0.1744800
  C       -1.9322610     0.8976940     0.1244170
  C       -1.8678090    -1.5041600    -0.1507450
  C       -2.5929860    -0.3189550    -0.0016080
  C        1.6942170    -0.1960210    -0.0707790
  H        0.0963370    -2.3571300    -0.3293910
  H       -2.5048800     1.8176440     0.2323000
  H       -2.3796530    -2.4547020    -0.2729900
  H       -3.6836779    -0.3245224    -0.1243917
  H        1.0340450     2.2328410    -0.1623240
  H       -0.4673770     3.0011870     0.0009920
  H        1.8426920    -1.9076120     1.0707290
  H        3.3240540    -1.2501130     0.4893940
units angstrom
no_reorient  #important for SAPT in psi4, default
symmetry c1  #important for SAPT in psi4, default
}

set PROPERTIES_ORIGIN ["COM"]
properties('MP2/aug-cc-pvtz', properties = ['dipole'])
--------------------------------------------------------------------------

    Molecular point group: c1
  Charge       = 0
  Multiplicity = 1
  Basis Set: AUG-CC-PVTZ
    Blend: AUG-CC-PVTZ
  Basis Set: (AUG-CC-PVTZ AUX)
    Blend: AUG-CC-PVTZ-JKFIT

    Orbital Energies [Eh]
    ---------------------

    Doubly Occupied:

       1A    -20.526511     2A    -15.587833     3A    -15.560169
       4A    -11.363793     5A    -11.297239     6A    -11.256008
       7A    -11.254205     8A    -11.244540     9A    -11.234738
      10A    -11.232302    11A     -1.380306    12A     -1.227258
      13A     -1.214333    14A     -1.137116    15A     -1.036472
      16A     -0.998658    17A     -0.876829    18A     -0.833868
      19A     -0.792773    20A     -0.736441    21A     -0.698455
      22A     -0.687049    23A     -0.673649    24A     -0.637947
      25A     -0.608919    26A     -0.603726    27A     -0.586289
      28A     -0.575764    29A     -0.541385    30A     -0.519830
      31A     -0.510353    32A     -0.455681    33A     -0.435732
      34A     -0.420567    35A     -0.351939    36A     -0.303296

  @DF-RHF Final Energy:  -453.68527170756579

   => Energetics <=

    Nuclear Repulsion Energy =            499.7175124938472663
    One-Electron Energy =               -1608.0016140825962339
    Two-Electron Energy =                 654.5988298811830646
    Total Energy =                       -453.6852717075657893
  Basis Set: (AUG-CC-PVTZ AUX)
    Blend: AUG-CC-PVTZ-RI
    Molecular point group: c1

    Geometry (in Angstrom), charge = 0, multiplicity = 1:

       Center              X                  Y                   Z               Mass
    ------------   -----------------  -----------------  -----------------  -----------------
         O            2.327803050749     0.747173392937    -0.508256491268    15.994914619570
         N            0.085310050749     2.192993392937     0.257284508732    14.003074004430
         N            2.298564050749    -1.338173607063     0.401052508732    14.003074004430
         C            0.184265050749    -0.237081607063    -0.024090491268    12.000000000000
         C           -0.549141949251     0.968964392937     0.080935508732    12.000000000000
         C           -0.497945949251    -1.456068607063    -0.165729491268    12.000000000000
         C           -1.952144949251     0.888393392937     0.133167508732    12.000000000000
         C           -1.887692949251    -1.513460607063    -0.141994491268    12.000000000000
         C           -2.612869949251    -0.328255607063     0.007142508732    12.000000000000
         C            1.674333050749    -0.205321607063    -0.062028491268    12.000000000000
         H            0.076453050749    -2.366430607063    -0.320640491268     1.007825032230
         H           -2.524763949251     1.808343392937     0.241050508732     1.007825032230
         H           -2.399536949251    -2.464002607063    -0.264239491268     1.007825032230
         H           -3.703561849251    -0.333823007063    -0.115641191268     1.007825032230
         H            1.014161050749     2.223540392937    -0.153573491268     1.007825032230
         H           -0.487260949251     2.991886392937     0.009742508732     1.007825032230
         H            1.822808050749    -1.916912607063     1.079479508732     1.007825032230
         H            3.304170050749    -1.259413607063     0.498144508732     1.007825032230

  Basis Set: AUG-CC-PVTZ
    Blend: AUG-CC-PVTZ
  Basis Set: (AUG-CC-PVTZ AUX)
    Blend: AUG-CC-PVTZ-JKFIT
	 Reference Energy          =    -453.6852717075657893 [Eh]
	 Singles Energy            =      -0.0000000000000000 [Eh]
	 Same-Spin Energy          =      -0.4862781295021509 [Eh]
	 Opposite-Spin Energy      =      -1.4791032155688724 [Eh]
	 Correlation Energy        =      -1.9653813450710231 [Eh]
	 Total Energy              =    -455.6506530526368124 [Eh]

	 ================> DF-SCS-MP2 Energies <==================
	-----------------------------------------------------------
	 SCS Same-Spin Scale       =       0.3333333333333333 [-]
	 SCS Opposite-Spin Scale   =       1.2000000000000000 [-]
	 SCS Same-Spin Energy      =      -0.1620927098340503 [Eh]
	 SCS Opposite-Spin Energy  =      -1.7749238586826468 [Eh]
	 SCS Correlation Energy    =      -1.9370165685166971 [Eh]
	 SCS Total Energy          =    -455.6222882760824859 [Eh]
	-----------------------------------------------------------

  Dipole Moment: [D]
     X:    -1.1123      Y:    -1.3446      Z:     0.9681     Total:     1.9956

*** Psi4 exiting successfully. Buy a developer a beer!
