                               Psi4 1.3.2 release

  ==> Input File <==

--------------------------------------------------------------------------
#psi4
#
memory 32 gb

molecule  {
0 1
  O        2.3476870     0.7564740    -0.5170070
  N        0.1051940     2.2022940     0.2485340
  N        2.3184480    -1.3288730     0.3923020
  C        0.2017828    -0.2677120    -0.1244921
  C       -0.5292580     0.9782650     0.0721850
  C       -0.4780620    -1.4467680    -0.1744800
  C       -1.9322610     0.8976940     0.1244170
  C       -1.8678090    -1.5041600    -0.1507450
  C       -2.5929860    -0.3189550    -0.0016080
  C        1.6942170    -0.1960210    -0.0707790
  H        0.0963370    -2.3571300    -0.3293910
  H       -2.5048800     1.8176440     0.2323000
  H       -2.3796530    -2.4547020    -0.2729900
  H       -3.6801520    -0.3414970     0.0246030
  H        1.0340450     2.2328410    -0.1623240
  H       -0.4673770     3.0011870     0.0009920
  H        1.8426920    -1.9076120     1.0707290
  H        3.3240540    -1.2501130     0.4893940
units angstrom
no_reorient  #important for SAPT in psi4, default
symmetry c1  #important for SAPT in psi4, default
}

set PROPERTIES_ORIGIN ["COM"]
properties('MP2/aug-cc-pvtz', properties = ['dipole'])
--------------------------------------------------------------------------

    Molecular point group: c1
  Charge       = 0
  Multiplicity = 1
  Basis Set: AUG-CC-PVTZ
    Blend: AUG-CC-PVTZ
  Basis Set: (AUG-CC-PVTZ AUX)
    Blend: AUG-CC-PVTZ-JKFIT

    Orbital Energies [Eh]
    ---------------------

    Doubly Occupied:

       1A    -20.527499     2A    -15.588585     3A    -15.562328
       4A    -11.364538     5A    -11.301785     6A    -11.252708
       7A    -11.251073     8A    -11.245618     9A    -11.232427
      10A    -11.230230    11A     -1.380981    12A     -1.226177
      13A     -1.215072    14A     -1.139351    15A     -1.039842
      16A     -0.994944    17A     -0.876434    18A     -0.830569
      19A     -0.794629    20A     -0.737376    21A     -0.698165
      22A     -0.690687    23A     -0.674766    24A     -0.638024
      25A     -0.605932    26A     -0.603516    27A     -0.590262
      28A     -0.573689    29A     -0.538651    30A     -0.524904
      31A     -0.504947    32A     -0.456713    33A     -0.435815
      34A     -0.421570    35A     -0.356935    36A     -0.299062

  @DF-RHF Final Energy:  -453.68247040409801

   => Energetics <=

    Nuclear Repulsion Energy =            499.5474361945027226
    One-Electron Energy =               -1607.6482094538168894
    Two-Electron Energy =                 654.4183028552160977
    Total Energy =                       -453.6824704040980123
  Basis Set: (AUG-CC-PVTZ AUX)
    Blend: AUG-CC-PVTZ-RI
    Molecular point group: c1

    Geometry (in Angstrom), charge = 0, multiplicity = 1:

       Center              X                  Y                   Z               Mass
    ------------   -----------------  -----------------  -----------------  -----------------
         O            2.327985619035     0.750820798984    -0.501277018634    15.994914619570
         N            0.085492619035     2.196640798984     0.264263981366    14.003074004430
         N            2.298746619035    -1.334526201016     0.408031981366    14.003074004430
         C            0.182081419035    -0.273365201016    -0.108762118634    12.000000000000
         C           -0.548959380965     0.972611798984     0.087914981366    12.000000000000
         C           -0.497763380965    -1.452421201016    -0.158750018634    12.000000000000
         C           -1.951962380965     0.892040798984     0.140146981366    12.000000000000
         C           -1.887510380965    -1.509813201016    -0.135015018634    12.000000000000
         C           -2.612687380965    -0.324608201016     0.014121981366    12.000000000000
         C            1.674515619035    -0.201674201016    -0.055049018634    12.000000000000
         H            0.076635619035    -2.362783201016    -0.313661018634     1.007825032230
         H           -2.524581380965     1.811990798984     0.248029981366     1.007825032230
         H           -2.399354380965    -2.460355201016    -0.257260018634     1.007825032230
         H           -3.699853380965    -0.347150201016     0.040332981366     1.007825032230
         H            1.014343619035     2.227187798984    -0.146594018634     1.007825032230
         H           -0.487078380965     2.995533798984     0.016721981366     1.007825032230
         H            1.822990619035    -1.913265201016     1.086458981366     1.007825032230
         H            3.304352619035    -1.255766201016     0.505123981366     1.007825032230

  Basis Set: AUG-CC-PVTZ
    Blend: AUG-CC-PVTZ
  Basis Set: (AUG-CC-PVTZ AUX)
    Blend: AUG-CC-PVTZ-JKFIT
	 Reference Energy          =    -453.6824704040980123 [Eh]
	 Singles Energy            =      -0.0000000000000000 [Eh]
	 Same-Spin Energy          =      -0.4862339087761647 [Eh]
	 Opposite-Spin Energy      =      -1.4790554017419744 [Eh]
	 Correlation Energy        =      -1.9652893105181390 [Eh]
	 Total Energy              =    -455.6477597146161429 [Eh]

	 ================> DF-SCS-MP2 Energies <==================
	-----------------------------------------------------------
	 SCS Same-Spin Scale       =       0.3333333333333333 [-]
	 SCS Opposite-Spin Scale   =       1.2000000000000000 [-]
	 SCS Same-Spin Energy      =      -0.1620779695920549 [Eh]
	 SCS Opposite-Spin Energy  =      -1.7748664820903692 [Eh]
	 SCS Correlation Energy    =      -1.9369444516824241 [Eh]
	 SCS Total Energy          =    -455.6194148557804624 [Eh]
	-----------------------------------------------------------

  Dipole Moment: [D]
     X:    -1.0581      Y:    -1.3198      Z:     1.0754     Total:     2.0045

*** Psi4 exiting successfully. Buy a developer a beer!
