                               Psi4 1.3.2 release

  ==> Input File <==

--------------------------------------------------------------------------
#psi4
#
memory 32 gb

molecule  {
0 1
  O        2.3476870     0.7564740    -0.5170070
  N        0.1051940     2.2022940     0.2485340
  N        2.3184480    -1.3288730     0.3923020
  C        0.2041490    -0.2277810    -0.0328410
  C       -0.5292580     0.9782650     0.0721850
  C       -0.4780620    -1.4467680    -0.1744800
  C       -1.9329010     0.9034188     0.0747499
  C       -1.8678090    -1.5041600    -0.1507450
  C       -2.5929860    -0.3189550    -0.0016080
  C        1.6942170    -0.1960210    -0.0707790
  H        0.0963370    -2.3571300    -0.3293910
  H       -2.5048800     1.8176440     0.2323000
  H       -2.3796530    -2.4547020    -0.2729900
  H       -3.6801520    -0.3414970     0.0246030
  H        1.0340450     2.2328410    -0.1623240
  H       -0.4673770     3.0011870     0.0009920
  H        1.8426920    -1.9076120     1.0707290
  H        3.3240540    -1.2501130     0.4893940
units angstrom
no_reorient  #important for SAPT in psi4, default
symmetry c1  #important for SAPT in psi4, default
}

set PROPERTIES_ORIGIN ["COM"]
properties('MP2/aug-cc-pvtz', properties = ['dipole'])
--------------------------------------------------------------------------

    Molecular point group: c1
  Charge       = 0
  Multiplicity = 1
  Basis Set: AUG-CC-PVTZ
    Blend: AUG-CC-PVTZ
  Basis Set: (AUG-CC-PVTZ AUX)
    Blend: AUG-CC-PVTZ-JKFIT

    Orbital Energies [Eh]
    ---------------------

    Doubly Occupied:

       1A    -20.526554     2A    -15.587750     3A    -15.559904
       4A    -11.363809     5A    -11.297134     6A    -11.256128
       7A    -11.253537     8A    -11.244391     9A    -11.234624
      10A    -11.232198    11A     -1.380306    12A     -1.227119
      13A     -1.214285    14A     -1.137053    15A     -1.036570
      16A     -0.998592    17A     -0.877365    18A     -0.833740
      19A     -0.792846    20A     -0.736364    21A     -0.698894
      22A     -0.687924    23A     -0.673550    24A     -0.637887
      25A     -0.609140    26A     -0.604989    27A     -0.586257
      28A     -0.574654    29A     -0.539810    30A     -0.522953
      31A     -0.510252    32A     -0.454565    33A     -0.435900
      34A     -0.420573    35A     -0.352211    36A     -0.303448

  @DF-RHF Final Energy:  -453.68640857510468

   => Energetics <=

    Nuclear Repulsion Energy =            499.7463347697580502
    One-Electron Energy =               -1608.0589353978650706
    Two-Electron Energy =                 654.6261920530023417
    Total Energy =                       -453.6864085751046787
  Basis Set: (AUG-CC-PVTZ AUX)
    Blend: AUG-CC-PVTZ-RI
    Molecular point group: c1

    Geometry (in Angstrom), charge = 0, multiplicity = 1:

       Center              X                  Y                   Z               Mass
    ------------   -----------------  -----------------  -----------------  -----------------
         O            2.327833378535     0.746794230918    -0.504979755935    15.994914619570
         N            0.085340378535     2.192614230918     0.260561244065    14.003074004430
         N            2.298594378535    -1.338552769082     0.404329244065    14.003074004430
         C            0.184295378535    -0.237460769082    -0.020813755935    12.000000000000
         C           -0.549111621465     0.968585230918     0.084212244065    12.000000000000
         C           -0.497915621465    -1.456447769082    -0.162452755935    12.000000000000
         C           -1.952754621465     0.893739030918     0.086777144065    12.000000000000
         C           -1.887662621465    -1.513839769082    -0.138717755935    12.000000000000
         C           -2.612839621465    -0.328634769082     0.010419244065    12.000000000000
         C            1.674363378535    -0.205700769082    -0.058751755935    12.000000000000
         H            0.076483378535    -2.366809769082    -0.317363755935     1.007825032230
         H           -2.524733621465     1.807964230918     0.244327244065     1.007825032230
         H           -2.399506621465    -2.464381769082    -0.260962755935     1.007825032230
         H           -3.700005621465    -0.351176769082     0.036630244065     1.007825032230
         H            1.014191378535     2.223161230918    -0.150296755935     1.007825032230
         H           -0.487230621465     2.991507230918     0.013019244065     1.007825032230
         H            1.822838378535    -1.917291769082     1.082756244065     1.007825032230
         H            3.304200378535    -1.259792769082     0.501421244065     1.007825032230

  Basis Set: AUG-CC-PVTZ
    Blend: AUG-CC-PVTZ
  Basis Set: (AUG-CC-PVTZ AUX)
    Blend: AUG-CC-PVTZ-JKFIT
	 Reference Energy          =    -453.6864085751046787 [Eh]
	 Singles Energy            =      -0.0000000000000000 [Eh]
	 Same-Spin Energy          =      -0.4861889579274916 [Eh]
	 Opposite-Spin Energy      =      -1.4789576536050248 [Eh]
	 Correlation Energy        =      -1.9651466115325165 [Eh]
	 Total Energy              =    -455.6515551866372107 [Eh]

	 ================> DF-SCS-MP2 Energies <==================
	-----------------------------------------------------------
	 SCS Same-Spin Scale       =       0.3333333333333333 [-]
	 SCS Opposite-Spin Scale   =       1.2000000000000000 [-]
	 SCS Same-Spin Energy      =      -0.1620629859758305 [Eh]
	 SCS Opposite-Spin Energy  =      -1.7747491843260297 [Eh]
	 SCS Correlation Energy    =      -1.9368121703018601 [Eh]
	 SCS Total Energy          =    -455.6232207454065133 [Eh]
	-----------------------------------------------------------

  Dipole Moment: [D]
     X:    -1.1235      Y:    -1.3680      Z:     1.0912     Total:     2.0795

*** Psi4 exiting successfully. Buy a developer a beer!
