                               Psi4 1.3.2 release

  ==> Input File <==

--------------------------------------------------------------------------
#psi4
#
memory 32 gb

molecule  {
0 1
  O        2.3476870     0.7564740    -0.5170070
  N        0.1051940     2.2022940     0.2485340
  N        2.3184480    -1.3288730     0.3923020
  C        0.2041490    -0.2277810    -0.0328410
  C       -0.5292580     0.9782650     0.0721850
  C       -0.4780620    -1.4467680    -0.1744800
  C       -1.9322610     0.8976940     0.1244170
  C       -1.8678090    -1.5041600    -0.1507450
  C       -2.5929860    -0.3189550    -0.0016080
  C        1.6942170    -0.1960210    -0.0707790
  H        0.0963370    -2.3571300    -0.3293910
  H       -2.5048800     1.8176440     0.2323000
  H       -2.3796530    -2.4547020    -0.2729900
  H       -3.6825026    -0.3301806    -0.0747268
  H        1.0340450     2.2328410    -0.1623240
  H       -0.4673770     3.0011870     0.0009920
  H        1.8426920    -1.9076120     1.0707290
  H        3.3240540    -1.2501130     0.4893940
units angstrom
no_reorient  #important for SAPT in psi4, default
symmetry c1  #important for SAPT in psi4, default
}

set PROPERTIES_ORIGIN ["COM"]
properties('MP2/aug-cc-pvtz', properties = ['dipole'])
--------------------------------------------------------------------------

    Molecular point group: c1
  Charge       = 0
  Multiplicity = 1
  Basis Set: AUG-CC-PVTZ
    Blend: AUG-CC-PVTZ
  Basis Set: (AUG-CC-PVTZ AUX)
    Blend: AUG-CC-PVTZ-JKFIT

    Orbital Energies [Eh]
    ---------------------

    Doubly Occupied:

       1A    -20.526475     2A    -15.587779     3A    -15.560133
       4A    -11.363752     5A    -11.297203     6A    -11.255966
       7A    -11.253689     8A    -11.244448     9A    -11.234653
      10A    -11.232204    11A     -1.380267    12A     -1.227219
      13A     -1.214287    14A     -1.137099    15A     -1.036554
      16A     -0.998610    17A     -0.877092    18A     -0.833823
      19A     -0.792830    20A     -0.736403    21A     -0.698670
      22A     -0.687547    23A     -0.673610    24A     -0.637931
      25A     -0.609017    26A     -0.603892    27A     -0.586309
      28A     -0.575602    29A     -0.540819    30A     -0.521108
      31A     -0.510284    32A     -0.455555    33A     -0.435723
      34A     -0.420530    35A     -0.352062    36A     -0.303264

  @DF-RHF Final Energy:  -453.68608014005201

   => Energetics <=

    Nuclear Repulsion Energy =            499.7387595456993381
    One-Electron Energy =               -1608.0448637208505716
    Two-Electron Energy =                 654.6200240350991635
    Total Energy =                       -453.6860801400520131
  Basis Set: (AUG-CC-PVTZ AUX)
    Blend: AUG-CC-PVTZ-RI
    Molecular point group: c1

    Geometry (in Angstrom), charge = 0, multiplicity = 1:

       Center              X                  Y                   Z               Mass
    ------------   -----------------  -----------------  -----------------  -----------------
         O            2.327794345289     0.747215303286    -0.508624359723    15.994914619570
         N            0.085301345289     2.193035303286     0.256916640277    14.003074004430
         N            2.298555345289    -1.338131696714     0.400684640277    14.003074004430
         C            0.184256345289    -0.237039696714    -0.024458359723    12.000000000000
         C           -0.549150654711     0.969006303286     0.080567640277    12.000000000000
         C           -0.497954654711    -1.456026696714    -0.166097359723    12.000000000000
         C           -1.952153654711     0.888435303286     0.132799640277    12.000000000000
         C           -1.887701654711    -1.513418696714    -0.142362359723    12.000000000000
         C           -2.612878654711    -0.328213696714     0.006774640277    12.000000000000
         C            1.674324345289    -0.205279696714    -0.062396359723    12.000000000000
         H            0.076444345289    -2.366388696714    -0.321008359723     1.007825032230
         H           -2.524772654711     1.808385303286     0.240682640277     1.007825032230
         H           -2.399545654711    -2.463960696714    -0.264607359723     1.007825032230
         H           -3.702395254711    -0.339439296714    -0.066344159723     1.007825032230
         H            1.014152345289     2.223582303286    -0.153941359723     1.007825032230
         H           -0.487269654711     2.991928303286     0.009374640277     1.007825032230
         H            1.822799345289    -1.916870696714     1.079111640277     1.007825032230
         H            3.304161345289    -1.259371696714     0.497776640277     1.007825032230

  Basis Set: AUG-CC-PVTZ
    Blend: AUG-CC-PVTZ
  Basis Set: (AUG-CC-PVTZ AUX)
    Blend: AUG-CC-PVTZ-JKFIT
	 Reference Energy          =    -453.6860801400520131 [Eh]
	 Singles Energy            =      -0.0000000000000000 [Eh]
	 Same-Spin Energy          =      -0.4862253580992500 [Eh]
	 Opposite-Spin Energy      =      -1.4789794060487853 [Eh]
	 Correlation Energy        =      -1.9652047641480352 [Eh]
	 Total Energy              =    -455.6512849042000539 [Eh]

	 ================> DF-SCS-MP2 Energies <==================
	-----------------------------------------------------------
	 SCS Same-Spin Scale       =       0.3333333333333333 [-]
	 SCS Opposite-Spin Scale   =       1.2000000000000000 [-]
	 SCS Same-Spin Energy      =      -0.1620751193664167 [Eh]
	 SCS Opposite-Spin Energy  =      -1.7747752872585423 [Eh]
	 SCS Correlation Energy    =      -1.9368504066249590 [Eh]
	 SCS Total Energy          =    -455.6229305466769688 [Eh]
	-----------------------------------------------------------

  Dipole Moment: [D]
     X:    -1.1223      Y:    -1.3482      Z:     0.9991     Total:     2.0187

*** Psi4 exiting successfully. Buy a developer a beer!
