                               Psi4 1.3.2 release

  ==> Input File <==

--------------------------------------------------------------------------
#psi4
#
memory 32 gb

molecule  {
0 1
  O        2.3476870     0.7564740    -0.5170070
  N        0.1051940     2.2022940     0.2485340
  N        2.3184480    -1.3288730     0.3923020
  C        0.2005997    -0.2876775    -0.1703176
  C       -0.5292580     0.9782650     0.0721850
  C       -0.4780620    -1.4467680    -0.1744800
  C       -1.9322610     0.8976940     0.1244170
  C       -1.8678090    -1.5041600    -0.1507450
  C       -2.5929860    -0.3189550    -0.0016080
  C        1.6942170    -0.1960210    -0.0707790
  H        0.0963370    -2.3571300    -0.3293910
  H       -2.5048800     1.8176440     0.2323000
  H       -2.3796530    -2.4547020    -0.2729900
  H       -3.6801520    -0.3414970     0.0246030
  H        1.0340450     2.2328410    -0.1623240
  H       -0.4673770     3.0011870     0.0009920
  H        1.8426920    -1.9076120     1.0707290
  H        3.3240540    -1.2501130     0.4893940
units angstrom
no_reorient  #important for SAPT in psi4, default
symmetry c1  #important for SAPT in psi4, default
}

set PROPERTIES_ORIGIN ["COM"]
properties('MP2/aug-cc-pvtz', properties = ['dipole'])
--------------------------------------------------------------------------

    Molecular point group: c1
  Charge       = 0
  Multiplicity = 1
  Basis Set: AUG-CC-PVTZ
    Blend: AUG-CC-PVTZ
  Basis Set: (AUG-CC-PVTZ AUX)
    Blend: AUG-CC-PVTZ-JKFIT

    Orbital Energies [Eh]
    ---------------------

    Doubly Occupied:

       1A    -20.528057     2A    -15.588999     3A    -15.563444
       4A    -11.365133     5A    -11.304076     6A    -11.252604
       7A    -11.248956     8A    -11.246305     9A    -11.231335
      10A    -11.229292    11A     -1.381304    12A     -1.225726
      13A     -1.215428    14A     -1.140498    15A     -1.041397
      16A     -0.992946    17A     -0.875632    18A     -0.828984
      19A     -0.795077    20A     -0.737621    21A     -0.697932
      22A     -0.691873    23A     -0.675281    24A     -0.638109
      25A     -0.604954    26A     -0.602557    27A     -0.591613
      28A     -0.572652    29A     -0.538287    30A     -0.525332
      31A     -0.501863    32A     -0.457432    33A     -0.435416
      34A     -0.422000    35A     -0.359330    36A     -0.297103

  @DF-RHF Final Energy:  -453.67658353113336

   => Energetics <=

    Nuclear Repulsion Energy =            499.3708773537704815
    One-Electron Energy =               -1607.2858279382339788
    Two-Electron Energy =                 654.2383670533300801
    Total Energy =                       -453.6765835311333603
  Basis Set: (AUG-CC-PVTZ AUX)
    Blend: AUG-CC-PVTZ-RI
    Molecular point group: c1

    Geometry (in Angstrom), charge = 0, multiplicity = 1:

       Center              X                  Y                   Z               Mass
    ------------   -----------------  -----------------  -----------------  -----------------
         O            2.328089961368     0.752581636484    -0.497235484044    15.994914619570
         N            0.085596961368     2.198401636484     0.268305515956    14.003074004430
         N            2.298850961368    -1.332765363516     0.412073515956    14.003074004430
         C            0.181002661368    -0.291569863516    -0.150546084044    12.000000000000
         C           -0.548855038632     0.974372636484     0.091956515956    12.000000000000
         C           -0.497659038632    -1.450660363516    -0.154708484044    12.000000000000
         C           -1.951858038632     0.893801636484     0.144188515956    12.000000000000
         C           -1.887406038632    -1.508052363516    -0.130973484044    12.000000000000
         C           -2.612583038632    -0.322847363516     0.018163515956    12.000000000000
         C            1.674619961368    -0.199913363516    -0.051007484044    12.000000000000
         H            0.076739961368    -2.361022363516    -0.309619484044     1.007825032230
         H           -2.524477038632     1.813751636484     0.252071515956     1.007825032230
         H           -2.399250038632    -2.458594363516    -0.253218484044     1.007825032230
         H           -3.699749038632    -0.345389363516     0.044374515956     1.007825032230
         H            1.014447961368     2.228948636484    -0.142552484044     1.007825032230
         H           -0.486974038632     2.997294636484     0.020763515956     1.007825032230
         H            1.823094961368    -1.911504363516     1.090500515956     1.007825032230
         H            3.304456961368    -1.254005363516     0.509165515956     1.007825032230

  Basis Set: AUG-CC-PVTZ
    Blend: AUG-CC-PVTZ
  Basis Set: (AUG-CC-PVTZ AUX)
    Blend: AUG-CC-PVTZ-JKFIT
	 Reference Energy          =    -453.6765835311333603 [Eh]
	 Singles Energy            =      -0.0000000000000000 [Eh]
	 Same-Spin Energy          =      -0.4862908234744341 [Eh]
	 Opposite-Spin Energy      =      -1.4793374740793543 [Eh]
	 Correlation Energy        =      -1.9656282975537884 [Eh]
	 Total Energy              =    -455.6422118286871523 [Eh]

	 ================> DF-SCS-MP2 Energies <==================
	-----------------------------------------------------------
	 SCS Same-Spin Scale       =       0.3333333333333333 [-]
	 SCS Opposite-Spin Scale   =       1.2000000000000000 [-]
	 SCS Same-Spin Energy      =      -0.1620969411581447 [Eh]
	 SCS Opposite-Spin Energy  =      -1.7752049688952252 [Eh]
	 SCS Correlation Energy    =      -1.9373019100533699 [Eh]
	 SCS Total Energy          =    -455.6138854411867101 [Eh]
	-----------------------------------------------------------

  Dipole Moment: [D]
     X:    -1.0278      Y:    -1.3018      Z:     1.0819     Total:     1.9803

*** Psi4 exiting successfully. Buy a developer a beer!
