                               Psi4 1.3.2 release

  ==> Input File <==

--------------------------------------------------------------------------
#psi4
#
memory 32 gb

molecule  {
0 1
  O        2.3476870     0.7564740    -0.5170070
  N        0.1051940     2.2022940     0.2485340
  N        2.3184480    -1.3288730     0.3923020
  C        0.2041490    -0.2277810    -0.0328410
  C       -0.5292580     0.9782650     0.0721850
  C       -0.4780620    -1.4467680    -0.1744800
  C       -1.9322610     0.8976940     0.1244170
  C       -1.8678090    -1.5041600    -0.1507450
  C       -2.5929860    -0.3189550    -0.0016080
  C        1.6963454    -0.2162142     0.1281876
  H        0.0963370    -2.3571300    -0.3293910
  H       -2.5048800     1.8176440     0.2323000
  H       -2.3796530    -2.4547020    -0.2729900
  H       -3.6801520    -0.3414970     0.0246030
  H        1.0340450     2.2328410    -0.1623240
  H       -0.4673770     3.0011870     0.0009920
  H        1.8426920    -1.9076120     1.0707290
  H        3.3240540    -1.2501130     0.4893940
units angstrom
no_reorient  #important for SAPT in psi4, default
symmetry c1  #important for SAPT in psi4, default
}

set PROPERTIES_ORIGIN ["COM"]
properties('MP2/aug-cc-pvtz', properties = ['dipole'])
--------------------------------------------------------------------------

    Molecular point group: c1
  Charge       = 0
  Multiplicity = 1
  Basis Set: AUG-CC-PVTZ
    Blend: AUG-CC-PVTZ
  Basis Set: (AUG-CC-PVTZ AUX)
    Blend: AUG-CC-PVTZ-JKFIT

    Orbital Energies [Eh]
    ---------------------

    Doubly Occupied:

       1A    -20.510968     2A    -15.608356     3A    -15.555957
       4A    -11.367051     5A    -11.296085     6A    -11.255897
       7A    -11.252480     8A    -11.248628     9A    -11.234033
      10A    -11.232236    11A     -1.342372    12A     -1.233116
      13A     -1.220688    14A     -1.136856    15A     -1.035986
      16A     -0.997605    17A     -0.879392    18A     -0.834982
      19A     -0.802515    20A     -0.749194    21A     -0.705348
      22A     -0.685185    23A     -0.678057    24A     -0.626765
      25A     -0.604460    26A     -0.603600    27A     -0.577264
      28A     -0.561631    29A     -0.529958    30A     -0.523238
      31A     -0.508654    32A     -0.452800    33A     -0.421916
      34A     -0.414756    35A     -0.348772    36A     -0.301128

  @DF-RHF Final Energy:  -453.65164969449370

   => Energetics <=

    Nuclear Repulsion Energy =            499.1026384761590293
    One-Electron Energy =               -1606.8327219262762355
    Two-Electron Energy =                 654.0784337556235641
    Total Energy =                       -453.6516496944936989
  Basis Set: (AUG-CC-PVTZ AUX)
    Blend: AUG-CC-PVTZ-RI
    Molecular point group: c1

    Geometry (in Angstrom), charge = 0, multiplicity = 1:

       Center              X                  Y                   Z               Mass
    ------------   -----------------  -----------------  -----------------  -----------------
         O            2.327589222239     0.749080043260    -0.526907758877    15.994914619570
         N            0.085096222239     2.194900043260     0.238633241123    14.003074004430
         N            2.298350222239    -1.336266956740     0.382401241123    14.003074004430
         C            0.184051222239    -0.235174956740    -0.042741758877    12.000000000000
         C           -0.549355777761     0.970871043260     0.062284241123    12.000000000000
         C           -0.498159777761    -1.454161956740    -0.184380758877    12.000000000000
         C           -1.952358777761     0.890300043260     0.114516241123    12.000000000000
         C           -1.887906777761    -1.511553956740    -0.160645758877    12.000000000000
         C           -2.613083777761    -0.326348956740    -0.011508758877    12.000000000000
         C            1.676247622239    -0.223608156740     0.118286841123    12.000000000000
         H            0.076239222239    -2.364523956740    -0.339291758877     1.007825032230
         H           -2.524977777761     1.810250043260     0.222399241123     1.007825032230
         H           -2.399750777761    -2.462095956740    -0.282890758877     1.007825032230
         H           -3.700249777761    -0.348890956740     0.014702241123     1.007825032230
         H            1.013947222239     2.225447043260    -0.172224758877     1.007825032230
         H           -0.487474777761     2.993793043260    -0.008908758877     1.007825032230
         H            1.822594222239    -1.915005956740     1.060828241123     1.007825032230
         H            3.303956222239    -1.257506956740     0.479493241123     1.007825032230

  Basis Set: AUG-CC-PVTZ
    Blend: AUG-CC-PVTZ
  Basis Set: (AUG-CC-PVTZ AUX)
    Blend: AUG-CC-PVTZ-JKFIT
	 Reference Energy          =    -453.6516496944936989 [Eh]
	 Singles Energy            =      -0.0000000000000000 [Eh]
	 Same-Spin Energy          =      -0.4889579188537369 [Eh]
	 Opposite-Spin Energy      =      -1.4847024060984735 [Eh]
	 Correlation Energy        =      -1.9736603249522104 [Eh]
	 Total Energy              =    -455.6253100194459194 [Eh]

	 ================> DF-SCS-MP2 Energies <==================
	-----------------------------------------------------------
	 SCS Same-Spin Scale       =       0.3333333333333333 [-]
	 SCS Opposite-Spin Scale   =       1.2000000000000000 [-]
	 SCS Same-Spin Energy      =      -0.1629859729512456 [Eh]
	 SCS Opposite-Spin Energy  =      -1.7816428873181682 [Eh]
	 SCS Correlation Energy    =      -1.9446288602694137 [Eh]
	 SCS Total Energy          =    -455.5962785547631029 [Eh]
	-----------------------------------------------------------

  Dipole Moment: [D]
     X:    -0.9222      Y:    -1.9554      Z:     1.4674     Total:     2.6129

*** Psi4 exiting successfully. Buy a developer a beer!
