                               Psi4 1.3.2 release

  ==> Input File <==

--------------------------------------------------------------------------
#psi4
#
memory 32 gb

molecule  {
0 1
  O        2.3476870     0.7564740    -0.5170070
  N        0.1051940     2.2022940     0.2485340
  N        2.3184480    -1.3288730     0.3923020
  C        0.2041490    -0.2277810    -0.0328410
  C       -0.5292580     0.9782650     0.0721850
  C       -0.4780620    -1.4467680    -0.1744800
  C       -1.9322610     0.8976940     0.1244170
  C       -1.8678090    -1.5041600    -0.1507450
  C       -2.5929860    -0.3189550    -0.0016080
  C        1.6968775    -0.2212625     0.1779292
  H        0.0963370    -2.3571300    -0.3293910
  H       -2.5048800     1.8176440     0.2323000
  H       -2.3796530    -2.4547020    -0.2729900
  H       -3.6801520    -0.3414970     0.0246030
  H        1.0340450     2.2328410    -0.1623240
  H       -0.4673770     3.0011870     0.0009920
  H        1.8426920    -1.9076120     1.0707290
  H        3.3240540    -1.2501130     0.4893940
units angstrom
no_reorient  #important for SAPT in psi4, default
symmetry c1  #important for SAPT in psi4, default
}

set PROPERTIES_ORIGIN ["COM"]
properties('MP2/aug-cc-pvtz', properties = ['dipole'])
--------------------------------------------------------------------------

    Molecular point group: c1
  Charge       = 0
  Multiplicity = 1
  Basis Set: AUG-CC-PVTZ
    Blend: AUG-CC-PVTZ
  Basis Set: (AUG-CC-PVTZ AUX)
    Blend: AUG-CC-PVTZ-JKFIT

    Orbital Energies [Eh]
    ---------------------

    Doubly Occupied:

       1A    -20.508000     2A    -15.613085     3A    -15.555000
       4A    -11.368615     5A    -11.295749     6A    -11.255772
       7A    -11.252227     8A    -11.250369     9A    -11.233891
      10A    -11.232263    11A     -1.339501    12A     -1.232375
      13A     -1.217464    14A     -1.136680    15A     -1.035459
      16A     -0.997288    17A     -0.879646    18A     -0.835228
      19A     -0.804361    20A     -0.752416    21A     -0.706611
      22A     -0.684714    23A     -0.677831    24A     -0.625273
      25A     -0.603965    26A     -0.603353    27A     -0.577937
      28A     -0.556037    29A     -0.527328    30A     -0.521514
      31A     -0.508170    32A     -0.452204    33A     -0.419184
      34A     -0.410282    35A     -0.347433    36A     -0.300462

  @DF-RHF Final Energy:  -453.63459371968054

   => Energetics <=

    Nuclear Repulsion Energy =            498.8190769607627431
    One-Electron Energy =               -1606.2719677596101064
    Two-Electron Energy =                 653.8182970791668822
    Total Energy =                       -453.6345937196805380
  Basis Set: (AUG-CC-PVTZ AUX)
    Blend: AUG-CC-PVTZ-RI
    Molecular point group: c1

    Geometry (in Angstrom), charge = 0, multiplicity = 1:

       Center              X                  Y                   Z               Mass
    ------------   -----------------  -----------------  -----------------  -----------------
         O            2.327542294207     0.749525273079    -0.531294670028    15.994914619570
         N            0.085049294207     2.195345273079     0.234246329972    14.003074004430
         N            2.298303294207    -1.335821726921     0.378014329972    14.003074004430
         C            0.184004294207    -0.234729726921    -0.047128670028    12.000000000000
         C           -0.549402705793     0.971316273079     0.057897329972    12.000000000000
         C           -0.498206705793    -1.453716726921    -0.188767670028    12.000000000000
         C           -1.952405705793     0.890745273079     0.110129329972    12.000000000000
         C           -1.887953705793    -1.511108726921    -0.165032670028    12.000000000000
         C           -2.613130705793    -0.325903726921    -0.015895670028    12.000000000000
         C            1.676732794207    -0.228211226921     0.163641529972    12.000000000000
         H            0.076192294207    -2.364078726921    -0.343678670028     1.007825032230
         H           -2.525024705793     1.810695273079     0.218012329972     1.007825032230
         H           -2.399797705793    -2.461650726921    -0.287277670028     1.007825032230
         H           -3.700296705793    -0.348445726921     0.010315329972     1.007825032230
         H            1.013900294207     2.225892273079    -0.176611670028     1.007825032230
         H           -0.487521705793     2.994238273079    -0.013295670028     1.007825032230
         H            1.822547294207    -1.914560726921     1.056441329972     1.007825032230
         H            3.303909294207    -1.257061726921     0.475106329972     1.007825032230

  Basis Set: AUG-CC-PVTZ
    Blend: AUG-CC-PVTZ
  Basis Set: (AUG-CC-PVTZ AUX)
    Blend: AUG-CC-PVTZ-JKFIT
	 Reference Energy          =    -453.6345937196805380 [Eh]
	 Singles Energy            =      -0.0000000000000000 [Eh]
	 Same-Spin Energy          =      -0.4898952924174124 [Eh]
	 Opposite-Spin Energy      =      -1.4869106181631306 [Eh]
	 Correlation Energy        =      -1.9768059105805431 [Eh]
	 Total Energy              =    -455.6113996302610758 [Eh]

	 ================> DF-SCS-MP2 Energies <==================
	-----------------------------------------------------------
	 SCS Same-Spin Scale       =       0.3333333333333333 [-]
	 SCS Opposite-Spin Scale   =       1.2000000000000000 [-]
	 SCS Same-Spin Energy      =      -0.1632984308058041 [Eh]
	 SCS Opposite-Spin Energy  =      -1.7842927417957568 [Eh]
	 SCS Correlation Energy    =      -1.9475911726015609 [Eh]
	 SCS Total Energy          =    -455.5821848922821005 [Eh]
	-----------------------------------------------------------

  Dipole Moment: [D]
     X:    -0.8681      Y:    -2.0791      Z:     1.5404     Total:     2.7293

*** Psi4 exiting successfully. Buy a developer a beer!
