                               Psi4 1.3.2 release

  ==> Input File <==

--------------------------------------------------------------------------
#psi4
#
memory 32 gb

molecule  {
0 1
  O        2.3476870     0.7564740    -0.5170070
  N        0.1051940     2.2022940     0.2485340
  N        2.3184480    -1.3288730     0.3923020
  C        0.2041490    -0.2277810    -0.0328410
  C       -0.5292580     0.9782650     0.0721850
  C       -0.4780620    -1.4467680    -0.1744800
  C       -1.9322610     0.8976940     0.1244170
  C       -1.8678090    -1.5041600    -0.1507450
  C       -2.5929860    -0.3189550    -0.0016080
  C        1.6947491    -0.2010693    -0.0210374
  H        0.0963370    -2.3571300    -0.3293910
  H       -2.5048800     1.8176440     0.2323000
  H       -2.3796530    -2.4547020    -0.2729900
  H       -3.6801520    -0.3414970     0.0246030
  H        1.0340450     2.2328410    -0.1623240
  H       -0.4673770     3.0011870     0.0009920
  H        1.8426920    -1.9076120     1.0707290
  H        3.3240540    -1.2501130     0.4893940
units angstrom
no_reorient  #important for SAPT in psi4, default
symmetry c1  #important for SAPT in psi4, default
}

set PROPERTIES_ORIGIN ["COM"]
properties('MP2/aug-cc-pvtz', properties = ['dipole'])
--------------------------------------------------------------------------

    Molecular point group: c1
  Charge       = 0
  Multiplicity = 1
  Basis Set: AUG-CC-PVTZ
    Blend: AUG-CC-PVTZ
  Basis Set: (AUG-CC-PVTZ AUX)
    Blend: AUG-CC-PVTZ-JKFIT

    Orbital Energies [Eh]
    ---------------------

    Doubly Occupied:

       1A    -20.522083     2A    -15.593107     3A    -15.559025
       4A    -11.363978     5A    -11.296935     6A    -11.255986
       7A    -11.253105     8A    -11.244977     9A    -11.234456
      10A    -11.232145    11A     -1.367794    12A     -1.226190
      13A     -1.221704    14A     -1.137110    15A     -1.036689
      16A     -0.998371    17A     -0.877989    18A     -0.834088
      19A     -0.795443    20A     -0.739479    21A     -0.700489
      22A     -0.687112    23A     -0.675574    24A     -0.634152
      25A     -0.607742    26A     -0.603863    27A     -0.582539
      28A     -0.573777    29A     -0.537678    30A     -0.523135
      31A     -0.509736    32A     -0.454547    33A     -0.432493
      34A     -0.421022    35A     -0.351689    36A     -0.302792

  @DF-RHF Final Energy:  -453.68327510195178

   => Energetics <=

    Nuclear Repulsion Energy =            499.6664523469949017
    One-Electron Energy =               -1607.9214627459507483
    Two-Electron Energy =                 654.5717352970041247
    Total Energy =                       -453.6832751019517218
  Basis Set: (AUG-CC-PVTZ AUX)
    Blend: AUG-CC-PVTZ-RI
    Molecular point group: c1

    Geometry (in Angstrom), charge = 0, multiplicity = 1:

       Center              X                  Y                   Z               Mass
    ------------   -----------------  -----------------  -----------------  -----------------
         O            2.327730006337     0.747744353803    -0.513747007784    15.994914619570
         N            0.085237006337     2.193564353803     0.251793992216    14.003074004430
         N            2.298491006337    -1.337602646197     0.395561992216    14.003074004430
         C            0.184192006337    -0.236510646197    -0.029581007784    12.000000000000
         C           -0.549214993663     0.969535353803     0.075444992216    12.000000000000
         C           -0.498018993663    -1.455497646197    -0.171220007784    12.000000000000
         C           -1.952217993663     0.888964353803     0.127676992216    12.000000000000
         C           -1.887765993663    -1.512889646197    -0.147485007784    12.000000000000
         C           -2.612942993663    -0.327684646197     0.001651992216    12.000000000000
         C            1.674792106337    -0.209798946197    -0.017777407784    12.000000000000
         H            0.076380006337    -2.365859646197    -0.326131007784     1.007825032230
         H           -2.524836993663     1.808914353803     0.235559992216     1.007825032230
         H           -2.399609993663    -2.463431646197    -0.269730007784     1.007825032230
         H           -3.700108993663    -0.350226646197     0.027862992216     1.007825032230
         H            1.014088006337     2.224111353803    -0.159064007784     1.007825032230
         H           -0.487333993663     2.992457353803     0.004251992216     1.007825032230
         H            1.822735006337    -1.916341646197     1.073988992216     1.007825032230
         H            3.304097006337    -1.258842646197     0.492653992216     1.007825032230

  Basis Set: AUG-CC-PVTZ
    Blend: AUG-CC-PVTZ
  Basis Set: (AUG-CC-PVTZ AUX)
    Blend: AUG-CC-PVTZ-JKFIT
	 Reference Energy          =    -453.6832751019517787 [Eh]
	 Singles Energy            =      -0.0000000000000000 [Eh]
	 Same-Spin Energy          =      -0.4867059271400651 [Eh]
	 Opposite-Spin Energy      =      -1.4798735821025852 [Eh]
	 Correlation Energy        =      -1.9665795092426503 [Eh]
	 Total Energy              =    -455.6498546111944279 [Eh]

	 ================> DF-SCS-MP2 Energies <==================
	-----------------------------------------------------------
	 SCS Same-Spin Scale       =       0.3333333333333333 [-]
	 SCS Opposite-Spin Scale   =       1.2000000000000000 [-]
	 SCS Same-Spin Energy      =      -0.1622353090466883 [Eh]
	 SCS Opposite-Spin Energy  =      -1.7758482985231023 [Eh]
	 SCS Correlation Energy    =      -1.9380836075697907 [Eh]
	 SCS Total Energy          =    -455.6213587095215871 [Eh]
	-----------------------------------------------------------

  Dipole Moment: [D]
     X:    -1.0782      Y:    -1.5202      Z:     1.1793     Total:     2.2055

*** Psi4 exiting successfully. Buy a developer a beer!
