                               Psi4 1.3.2 release

  ==> Input File <==

--------------------------------------------------------------------------
#psi4
#
memory 32 gb

molecule  {
0 1
  O        2.3476870     0.7564740    -0.5170070
  N        0.1051940     2.2022940     0.2485340
  N        2.3184480    -1.3288730     0.3923020
  C        0.2041490    -0.2277810    -0.0328410
  C       -0.5292580     0.9782650     0.0721850
  C       -0.4780620    -1.4467680    -0.1744800
  C       -1.9335411     0.9091436     0.0250829
  C       -1.8678090    -1.5041600    -0.1507450
  C       -2.5929860    -0.3189550    -0.0016080
  C        1.6942170    -0.1960210    -0.0707790
  H        0.0963370    -2.3571300    -0.3293910
  H       -2.5048800     1.8176440     0.2323000
  H       -2.3796530    -2.4547020    -0.2729900
  H       -3.6801520    -0.3414970     0.0246030
  H        1.0340450     2.2328410    -0.1623240
  H       -0.4673770     3.0011870     0.0009920
  H        1.8426920    -1.9076120     1.0707290
  H        3.3240540    -1.2501130     0.4893940
units angstrom
no_reorient  #important for SAPT in psi4, default
symmetry c1  #important for SAPT in psi4, default
}

set PROPERTIES_ORIGIN ["COM"]
properties('MP2/aug-cc-pvtz', properties = ['dipole'])
--------------------------------------------------------------------------

    Molecular point group: c1
  Charge       = 0
  Multiplicity = 1
  Basis Set: AUG-CC-PVTZ
    Blend: AUG-CC-PVTZ
  Basis Set: (AUG-CC-PVTZ AUX)
    Blend: AUG-CC-PVTZ-JKFIT

    Orbital Energies [Eh]
    ---------------------

    Doubly Occupied:

       1A    -20.526657     2A    -15.587805     3A    -15.559849
       4A    -11.363907     5A    -11.297498     6A    -11.256587
       7A    -11.254194     8A    -11.244399     9A    -11.235001
      10A    -11.232255    11A     -1.380386    12A     -1.227054
      13A     -1.214352    14A     -1.136970    15A     -1.036365
      16A     -0.998483    17A     -0.877283    18A     -0.833599
      19A     -0.792686    20A     -0.736294    21A     -0.698842
      22A     -0.687933    23A     -0.673459    24A     -0.637707
      25A     -0.609190    26A     -0.605570    27A     -0.585905
      28A     -0.573969    29A     -0.540043    30A     -0.522355
      31A     -0.509978    32A     -0.453899    33A     -0.436039
      34A     -0.420668    35A     -0.352154    36A     -0.303712

  @DF-RHF Final Energy:  -453.68472447850036

   => Energetics <=

    Nuclear Repulsion Energy =            499.6794576093078604
    One-Electron Energy =               -1607.9222683724794933
    Two-Electron Energy =                 654.5580862846713899
    Total Energy =                       -453.6847244785003568
  Basis Set: (AUG-CC-PVTZ AUX)
    Blend: AUG-CC-PVTZ-RI
    Molecular point group: c1

    Geometry (in Angstrom), charge = 0, multiplicity = 1:

       Center              X                  Y                   Z               Mass
    ------------   -----------------  -----------------  -----------------  -----------------
         O            2.327889831521     0.746289337851    -0.500599424057    15.994914619570
         N            0.085396831521     2.192109337851     0.264941575943    14.003074004430
         N            2.298650831521    -1.339057662149     0.408709575943    14.003074004430
         C            0.184351831521    -0.237965662149    -0.016433424057    12.000000000000
         C           -0.549055168479     0.968080337851     0.088592575943    12.000000000000
         C           -0.497859168479    -1.456952662149    -0.158072424057    12.000000000000
         C           -1.953338268479     0.898958937851     0.041490475943    12.000000000000
         C           -1.887606168479    -1.514344662149    -0.134337424057    12.000000000000
         C           -2.612783168479    -0.329139662149     0.014799575943    12.000000000000
         C            1.674419831521    -0.206205662149    -0.054371424057    12.000000000000
         H            0.076539831521    -2.367314662149    -0.312983424057     1.007825032230
         H           -2.524677168479     1.807459337851     0.248707575943     1.007825032230
         H           -2.399450168479    -2.464886662149    -0.256582424057     1.007825032230
         H           -3.699949168479    -0.351681662149     0.041010575943     1.007825032230
         H            1.014247831521     2.222656337851    -0.145916424057     1.007825032230
         H           -0.487174168479     2.991002337851     0.017399575943     1.007825032230
         H            1.822894831521    -1.917796662149     1.087136575943     1.007825032230
         H            3.304256831521    -1.260297662149     0.505801575943     1.007825032230

  Basis Set: AUG-CC-PVTZ
    Blend: AUG-CC-PVTZ
  Basis Set: (AUG-CC-PVTZ AUX)
    Blend: AUG-CC-PVTZ-JKFIT
	 Reference Energy          =    -453.6847244785003568 [Eh]
	 Singles Energy            =      -0.0000000000000000 [Eh]
	 Same-Spin Energy          =      -0.4862447570089768 [Eh]
	 Opposite-Spin Energy      =      -1.4791660738712133 [Eh]
	 Correlation Energy        =      -1.9654108308801903 [Eh]
	 Total Energy              =    -455.6501353093805733 [Eh]

	 ================> DF-SCS-MP2 Energies <==================
	-----------------------------------------------------------
	 SCS Same-Spin Scale       =       0.3333333333333333 [-]
	 SCS Opposite-Spin Scale   =       1.2000000000000000 [-]
	 SCS Same-Spin Energy      =      -0.1620815856696589 [Eh]
	 SCS Opposite-Spin Energy  =      -1.7749992886454560 [Eh]
	 SCS Correlation Energy    =      -1.9370808743151149 [Eh]
	 SCS Total Energy          =    -455.6218053528154996 [Eh]
	-----------------------------------------------------------

  Dipole Moment: [D]
     X:    -1.1092      Y:    -1.3873      Z:     1.1208     Total:     2.1003

*** Psi4 exiting successfully. Buy a developer a beer!
