                               Psi4 1.3.2 release

  ==> Input File <==

--------------------------------------------------------------------------
#psi4
#
memory 32 gb

molecule  {
0 1
  O        2.3476870     0.7564740    -0.5170070
  N        0.1051940     2.2022940     0.2485340
  N        2.3184480    -1.3288730     0.3923020
  C        0.2041490    -0.2277810    -0.0328410
  C       -0.5292580     0.9782650     0.0721850
  C       -0.4780620    -1.4467680    -0.1744800
  C       -1.9354612     0.9263181    -0.1239183
  C       -1.8678090    -1.5041600    -0.1507450
  C       -2.5929860    -0.3189550    -0.0016080
  C        1.6942170    -0.1960210    -0.0707790
  H        0.0963370    -2.3571300    -0.3293910
  H       -2.5048800     1.8176440     0.2323000
  H       -2.3796530    -2.4547020    -0.2729900
  H       -3.6801520    -0.3414970     0.0246030
  H        1.0340450     2.2328410    -0.1623240
  H       -0.4673770     3.0011870     0.0009920
  H        1.8426920    -1.9076120     1.0707290
  H        3.3240540    -1.2501130     0.4893940
units angstrom
no_reorient  #important for SAPT in psi4, default
symmetry c1  #important for SAPT in psi4, default
}

set PROPERTIES_ORIGIN ["COM"]
properties('MP2/aug-cc-pvtz', properties = ['dipole'])
--------------------------------------------------------------------------

    Molecular point group: c1
  Charge       = 0
  Multiplicity = 1
  Basis Set: AUG-CC-PVTZ
    Blend: AUG-CC-PVTZ
  Basis Set: (AUG-CC-PVTZ AUX)
    Blend: AUG-CC-PVTZ-JKFIT

    Orbital Energies [Eh]
    ---------------------

    Doubly Occupied:

       1A    -20.527109     2A    -15.588185     3A    -15.560543
       4A    -11.364387     5A    -11.300953     6A    -11.259547
       7A    -11.258408     8A    -11.244501     9A    -11.238188
      10A    -11.232410    11A     -1.380807    12A     -1.226947
      13A     -1.214786    14A     -1.136518    15A     -1.034938
      16A     -0.997349    17A     -0.876349    18A     -0.832736
      19A     -0.791573    20A     -0.735893    21A     -0.698451
      22A     -0.688023    23A     -0.673019    24A     -0.636612
      25A     -0.609005    26A     -0.605799    27A     -0.583380
      28A     -0.571798    29A     -0.540163    30A     -0.520556
      31A     -0.505544    32A     -0.451448    33A     -0.436331
      34A     -0.421149    35A     -0.351863    36A     -0.304905

  @DF-RHF Final Energy:  -453.67092169104120

   => Energetics <=

    Nuclear Repulsion Energy =            499.1423555035605091
    One-Electron Energy =               -1606.8262082879268746
    Two-Electron Energy =                 654.0129310933251645
    Total Energy =                       -453.6709216910411442
  Basis Set: (AUG-CC-PVTZ AUX)
    Blend: AUG-CC-PVTZ-RI
    Molecular point group: c1

    Geometry (in Angstrom), charge = 0, multiplicity = 1:

       Center              X                  Y                   Z               Mass
    ------------   -----------------  -----------------  -----------------  -----------------
         O            2.328059172839     0.744774649832    -0.487458410784    15.994914619570
         N            0.085566172839     2.190594649832     0.278082589216    14.003074004430
         N            2.298820172839    -1.340572350168     0.421850589216    14.003074004430
         C            0.184521172839    -0.239480350168    -0.003292410784    12.000000000000
         C           -0.548885827161     0.966565649832     0.101733589216    12.000000000000
         C           -0.497689827161    -1.458467350168    -0.144931410784    12.000000000000
         C           -1.955089027161     0.914618749832    -0.094369710784    12.000000000000
         C           -1.887436827161    -1.515859350168    -0.121196410784    12.000000000000
         C           -2.612613827161    -0.330654350168     0.027940589216    12.000000000000
         C            1.674589172839    -0.207720350168    -0.041230410784    12.000000000000
         H            0.076709172839    -2.368829350168    -0.299842410784     1.007825032230
         H           -2.524507827161     1.805944649832     0.261848589216     1.007825032230
         H           -2.399280827161    -2.466401350168    -0.243441410784     1.007825032230
         H           -3.699779827161    -0.353196350168     0.054151589216     1.007825032230
         H            1.014417172839     2.221141649832    -0.132775410784     1.007825032230
         H           -0.487004827161     2.989487649832     0.030540589216     1.007825032230
         H            1.823064172839    -1.919311350168     1.100277589216     1.007825032230
         H            3.304426172839    -1.261812350168     0.518942589216     1.007825032230

  Basis Set: AUG-CC-PVTZ
    Blend: AUG-CC-PVTZ
  Basis Set: (AUG-CC-PVTZ AUX)
    Blend: AUG-CC-PVTZ-JKFIT
	 Reference Energy          =    -453.6709216910412010 [Eh]
	 Singles Energy            =      -0.0000000000000000 [Eh]
	 Same-Spin Energy          =      -0.4866818531917994 [Eh]
	 Opposite-Spin Energy      =      -1.4808851453931613 [Eh]
	 Correlation Energy        =      -1.9675669985849606 [Eh]
	 Total Energy              =    -455.6384886896261719 [Eh]

	 ================> DF-SCS-MP2 Energies <==================
	-----------------------------------------------------------
	 SCS Same-Spin Scale       =       0.3333333333333333 [-]
	 SCS Opposite-Spin Scale   =       1.2000000000000000 [-]
	 SCS Same-Spin Energy      =      -0.1622272843972665 [Eh]
	 SCS Opposite-Spin Energy  =      -1.7770621744717936 [Eh]
	 SCS Correlation Energy    =      -1.9392894588690601 [Eh]
	 SCS Total Energy          =    -455.6102111499102421 [Eh]
	-----------------------------------------------------------

  Dipole Moment: [D]
     X:    -1.0106      Y:    -1.4812      Z:     1.2138     Total:     2.1654

*** Psi4 exiting successfully. Buy a developer a beer!
