                               Psi4 1.3.2 release

  ==> Input File <==

--------------------------------------------------------------------------
#psi4
#
memory 32 gb

molecule  {
0 1
  O        2.3476870     0.7564740    -0.5170070
  N        0.1051940     2.2022940     0.2485340
  N        2.3184480    -1.3288730     0.3923020
  C        0.2041490    -0.2277810    -0.0328410
  C       -0.5292580     0.9782650     0.0721850
  C       -0.4780620    -1.4467680    -0.1744800
  C       -1.9322610     0.8976940     0.1244170
  C       -1.8678090    -1.5041600    -0.1507450
  C       -2.5929860    -0.3189550    -0.0016080
  C        1.6942170    -0.1960210    -0.0707790
  H        0.0963370    -2.3571300    -0.3293910
  H       -2.5048800     1.8176440     0.2323000
  H       -2.3796530    -2.4547020    -0.2729900
  H       -3.6860286    -0.3132061    -0.2237216
  H        1.0340450     2.2328410    -0.1623240
  H       -0.4673770     3.0011870     0.0009920
  H        1.8426920    -1.9076120     1.0707290
  H        3.3240540    -1.2501130     0.4893940
units angstrom
no_reorient  #important for SAPT in psi4, default
symmetry c1  #important for SAPT in psi4, default
}

set PROPERTIES_ORIGIN ["COM"]
properties('MP2/aug-cc-pvtz', properties = ['dipole'])
--------------------------------------------------------------------------

    Molecular point group: c1
  Charge       = 0
  Multiplicity = 1
  Basis Set: AUG-CC-PVTZ
    Blend: AUG-CC-PVTZ
  Basis Set: (AUG-CC-PVTZ AUX)
    Blend: AUG-CC-PVTZ-JKFIT

    Orbital Energies [Eh]
    ---------------------

    Doubly Occupied:

       1A    -20.526651     2A    -15.587996     3A    -15.560272
       4A    -11.363942     5A    -11.297358     6A    -11.256140
       7A    -11.255832     8A    -11.244845     9A    -11.235032
      10A    -11.232614    11A     -1.380449    12A     -1.227384
      13A     -1.214481    14A     -1.137178    15A     -1.036231
      16A     -0.998818    17A     -0.876046    18A     -0.834018
      19A     -0.792613    20A     -0.736571    21A     -0.697936
      22A     -0.685401    23A     -0.673777    24A     -0.638002
      25A     -0.608601    26A     -0.603275    27A     -0.586256
      28A     -0.576107    29A     -0.542308    30A     -0.517266
      31A     -0.510215    32A     -0.455773    33A     -0.435788
      34A     -0.420689    35A     -0.351618    36A     -0.303404

  @DF-RHF Final Energy:  -453.68247645180406

   => Energetics <=

    Nuclear Repulsion Energy =            499.6507775086960805
    One-Electron Energy =               -1607.8647315530843116
    Two-Electron Energy =                 654.5314775925841104
    Total Energy =                       -453.6824764518040638
  Basis Set: (AUG-CC-PVTZ AUX)
    Blend: AUG-CC-PVTZ-RI
    Molecular point group: c1

    Geometry (in Angstrom), charge = 0, multiplicity = 1:

       Center              X                  Y                   Z               Mass
    ------------   -----------------  -----------------  -----------------  -----------------
         O            2.327820462409     0.747089572980    -0.507520753618    15.994914619570
         N            0.085327462409     2.192909572980     0.258020246382    14.003074004430
         N            2.298581462409    -1.338257427020     0.401788246382    14.003074004430
         C            0.184282462409    -0.237165427020    -0.023354753618    12.000000000000
         C           -0.549124537591     0.968880572980     0.081671246382    12.000000000000
         C           -0.497928537591    -1.456152427020    -0.164993753618    12.000000000000
         C           -1.952127537591     0.888309572980     0.133903246382    12.000000000000
         C           -1.887675537591    -1.513544427020    -0.141258753618    12.000000000000
         C           -2.612852537591    -0.328339427020     0.007878246382    12.000000000000
         C            1.674350462409    -0.205405427020    -0.061292753618    12.000000000000
         H            0.076470462409    -2.366514427020    -0.319904753618     1.007825032230
         H           -2.524746537591     1.808259572980     0.241786246382     1.007825032230
         H           -2.399519537591    -2.464086427020    -0.263503753618     1.007825032230
         H           -3.705895137591    -0.322590527020    -0.214235353618     1.007825032230
         H            1.014178462409     2.223456572980    -0.152837753618     1.007825032230
         H           -0.487243537591     2.991802572980     0.010478246382     1.007825032230
         H            1.822825462409    -1.916996427020     1.080215246382     1.007825032230
         H            3.304187462409    -1.259497427020     0.498880246382     1.007825032230

  Basis Set: AUG-CC-PVTZ
    Blend: AUG-CC-PVTZ
  Basis Set: (AUG-CC-PVTZ AUX)
    Blend: AUG-CC-PVTZ-JKFIT
	 Reference Energy          =    -453.6824764518040638 [Eh]
	 Singles Energy            =      -0.0000000000000000 [Eh]
	 Same-Spin Energy          =      -0.4864464286983474 [Eh]
	 Opposite-Spin Energy      =      -1.4795230749309827 [Eh]
	 Correlation Energy        =      -1.9659695036293301 [Eh]
	 Total Energy              =    -455.6484459554333739 [Eh]

	 ================> DF-SCS-MP2 Energies <==================
	-----------------------------------------------------------
	 SCS Same-Spin Scale       =       0.3333333333333333 [-]
	 SCS Opposite-Spin Scale   =       1.2000000000000000 [-]
	 SCS Same-Spin Energy      =      -0.1621488095661158 [Eh]
	 SCS Opposite-Spin Energy  =      -1.7754276899171793 [Eh]
	 SCS Correlation Energy    =      -1.9375764994832951 [Eh]
	 SCS Total Energy          =    -455.6200529512873345 [Eh]
	-----------------------------------------------------------

  Dipole Moment: [D]
     X:    -1.0785      Y:    -1.3374      Z:     0.9072     Total:     1.9429

*** Psi4 exiting successfully. Buy a developer a beer!
