                               Psi4 1.3.2 release

  ==> Input File <==

--------------------------------------------------------------------------
#psi4
#
memory 32 gb

molecule  {
0 1
  O        2.3476870     0.7564740    -0.5170070
  N        0.1051940     2.2022940     0.2485340
  N        2.3184480    -1.3288730     0.3923020
  C        0.1994166    -0.3076430    -0.2161431
  C       -0.5292580     0.9782650     0.0721850
  C       -0.4780620    -1.4467680    -0.1744800
  C       -1.9322610     0.8976940     0.1244170
  C       -1.8678090    -1.5041600    -0.1507450
  C       -2.5929860    -0.3189550    -0.0016080
  C        1.6942170    -0.1960210    -0.0707790
  H        0.0963370    -2.3571300    -0.3293910
  H       -2.5048800     1.8176440     0.2323000
  H       -2.3796530    -2.4547020    -0.2729900
  H       -3.6801520    -0.3414970     0.0246030
  H        1.0340450     2.2328410    -0.1623240
  H       -0.4673770     3.0011870     0.0009920
  H        1.8426920    -1.9076120     1.0707290
  H        3.3240540    -1.2501130     0.4893940
units angstrom
no_reorient  #important for SAPT in psi4, default
symmetry c1  #important for SAPT in psi4, default
}

set PROPERTIES_ORIGIN ["COM"]
properties('MP2/aug-cc-pvtz', properties = ['dipole'])
--------------------------------------------------------------------------

    Molecular point group: c1
  Charge       = 0
  Multiplicity = 1
  Basis Set: AUG-CC-PVTZ
    Blend: AUG-CC-PVTZ
  Basis Set: (AUG-CC-PVTZ AUX)
    Blend: AUG-CC-PVTZ-JKFIT

    Orbital Energies [Eh]
    ---------------------

    Doubly Occupied:

       1A    -20.528629     2A    -15.589397     3A    -15.564532
       4A    -11.365841     5A    -11.306292     6A    -11.252635
       7A    -11.248063     8A    -11.246101     9A    -11.230269
      10A    -11.228392    11A     -1.381588    12A     -1.225298
      13A     -1.215744    14A     -1.141642    15A     -1.042906
      16A     -0.990869    17A     -0.874587    18A     -0.827500
      19A     -0.795170    20A     -0.737693    21A     -0.697848
      22A     -0.692834    23A     -0.675725    24A     -0.638208
      25A     -0.604908    26A     -0.600845    27A     -0.592416
      28A     -0.571459    29A     -0.537988    30A     -0.525569
      31A     -0.498530    32A     -0.458055    33A     -0.434696
      34A     -0.422322    35A     -0.361707    36A     -0.295263

  @DF-RHF Final Energy:  -453.66827183186524

   => Energetics <=

    Nuclear Repulsion Energy =            499.1462164383087270
    One-Electron Energy =               -1606.8259354901140341
    Two-Electron Energy =                 654.0114472199400097
    Total Energy =                       -453.6682718318652405
  Basis Set: (AUG-CC-PVTZ AUX)
    Blend: AUG-CC-PVTZ-RI
    Molecular point group: c1

    Geometry (in Angstrom), charge = 0, multiplicity = 1:

       Center              X                  Y                   Z               Mass
    ------------   -----------------  -----------------  -----------------  -----------------
         O            2.328194303701     0.754342473984    -0.493193949454    15.994914619570
         N            0.085701303701     2.200162473984     0.272347050546    14.003074004430
         N            2.298955303701    -1.331004526016     0.416115050546    14.003074004430
         C            0.179923903701    -0.309774526016    -0.192330049454    12.000000000000
         C           -0.548750696299     0.976133473984     0.095998050546    12.000000000000
         C           -0.497554696299    -1.448899526016    -0.150666949454    12.000000000000
         C           -1.951753696299     0.895562473984     0.148230050546    12.000000000000
         C           -1.887301696299    -1.506291526016    -0.126931949454    12.000000000000
         C           -2.612478696299    -0.321086526016     0.022205050546    12.000000000000
         C            1.674724303701    -0.198152526016    -0.046965949454    12.000000000000
         H            0.076844303701    -2.359261526016    -0.305577949454     1.007825032230
         H           -2.524372696299     1.815512473984     0.256113050546     1.007825032230
         H           -2.399145696299    -2.456833526016    -0.249176949454     1.007825032230
         H           -3.699644696299    -0.343628526016     0.048416050546     1.007825032230
         H            1.014552303701     2.230709473984    -0.138510949454     1.007825032230
         H           -0.486869696299     2.999055473984     0.024805050546     1.007825032230
         H            1.823199303701    -1.909743526016     1.094542050546     1.007825032230
         H            3.304561303701    -1.252244526016     0.513207050546     1.007825032230

  Basis Set: AUG-CC-PVTZ
    Blend: AUG-CC-PVTZ
  Basis Set: (AUG-CC-PVTZ AUX)
    Blend: AUG-CC-PVTZ-JKFIT
	 Reference Energy          =    -453.6682718318652405 [Eh]
	 Singles Energy            =      -0.0000000000000000 [Eh]
	 Same-Spin Energy          =      -0.4863824827484998 [Eh]
	 Opposite-Spin Energy      =      -1.4798129295199476 [Eh]
	 Correlation Energy        =      -1.9661954122684473 [Eh]
	 Total Energy              =    -455.6344672441337025 [Eh]

	 ================> DF-SCS-MP2 Energies <==================
	-----------------------------------------------------------
	 SCS Same-Spin Scale       =       0.3333333333333333 [-]
	 SCS Opposite-Spin Scale   =       1.2000000000000000 [-]
	 SCS Same-Spin Energy      =      -0.1621274942494999 [Eh]
	 SCS Opposite-Spin Energy  =      -1.7757755154239370 [Eh]
	 SCS Correlation Energy    =      -1.9379030096734369 [Eh]
	 SCS Total Energy          =    -455.6061748415386887 [Eh]
	-----------------------------------------------------------

  Dipole Moment: [D]
     X:    -1.0015      Y:    -1.2842      Z:     1.0884     Total:     1.9588

*** Psi4 exiting successfully. Buy a developer a beer!
