                               Psi4 1.3.2 release

  ==> Input File <==

--------------------------------------------------------------------------
#psi4
#
memory 32 gb

molecule  {
0 1
  O        2.3476870     0.7564740    -0.5170070
  N        0.1051940     2.2022940     0.2485340
  N        2.3184480    -1.3288730     0.3923020
  C        0.1982335    -0.3276085    -0.2619687
  C       -0.5292580     0.9782650     0.0721850
  C       -0.4780620    -1.4467680    -0.1744800
  C       -1.9322610     0.8976940     0.1244170
  C       -1.8678090    -1.5041600    -0.1507450
  C       -2.5929860    -0.3189550    -0.0016080
  C        1.6942170    -0.1960210    -0.0707790
  H        0.0963370    -2.3571300    -0.3293910
  H       -2.5048800     1.8176440     0.2323000
  H       -2.3796530    -2.4547020    -0.2729900
  H       -3.6801520    -0.3414970     0.0246030
  H        1.0340450     2.2328410    -0.1623240
  H       -0.4673770     3.0011870     0.0009920
  H        1.8426920    -1.9076120     1.0707290
  H        3.3240540    -1.2501130     0.4893940
units angstrom
no_reorient  #important for SAPT in psi4, default
symmetry c1  #important for SAPT in psi4, default
}

set PROPERTIES_ORIGIN ["COM"]
properties('MP2/aug-cc-pvtz', properties = ['dipole'])
--------------------------------------------------------------------------

    Molecular point group: c1
  Charge       = 0
  Multiplicity = 1
  Basis Set: AUG-CC-PVTZ
    Blend: AUG-CC-PVTZ
  Basis Set: (AUG-CC-PVTZ AUX)
    Blend: AUG-CC-PVTZ-JKFIT

    Orbital Energies [Eh]
    ---------------------

    Doubly Occupied:

       1A    -20.529202     2A    -15.589778     3A    -15.565574
       4A    -11.366648     5A    -11.308386     6A    -11.252806
       7A    -11.248881     8A    -11.244576     9A    -11.229247
      10A    -11.227549    11A     -1.381822    12A     -1.224881
      13A     -1.216016    14A     -1.142766    15A     -1.044363
      16A     -0.988743    17A     -0.873302    18A     -0.826159
      19A     -0.794877    20A     -0.737594    21A     -0.697996
      22A     -0.693478    23A     -0.676074    24A     -0.638319
      25A     -0.605259    26A     -0.599200    27A     -0.592456
      28A     -0.570116    29A     -0.537782    30A     -0.525604
      31A     -0.495045    32A     -0.458533    33A     -0.433652
      34A     -0.422471    35A     -0.364033    36A     -0.293559

  @DF-RHF Final Energy:  -453.65766607977145

   => Energetics <=

    Nuclear Repulsion Energy =            498.8736647433423741
    One-Electron Energy =               -1606.2691654230504810
    Two-Electron Energy =                 653.7378345999368321
    Total Energy =                       -453.6576660797713885
  Basis Set: (AUG-CC-PVTZ AUX)
    Blend: AUG-CC-PVTZ-RI
    Molecular point group: c1

    Geometry (in Angstrom), charge = 0, multiplicity = 1:

       Center              X                  Y                   Z               Mass
    ------------   -----------------  -----------------  -----------------  -----------------
         O            2.328298646033     0.756103311485    -0.489152406044    15.994914619570
         N            0.085805646033     2.201923311485     0.276388593956    14.003074004430
         N            2.299059646033    -1.329243688515     0.420156593956    14.003074004430
         C            0.178845146033    -0.327979188515    -0.234114106044    12.000000000000
         C           -0.548646353967     0.977894311485     0.100039593956    12.000000000000
         C           -0.497450353967    -1.447138688515    -0.146625406044    12.000000000000
         C           -1.951649353967     0.897323311485     0.152271593956    12.000000000000
         C           -1.887197353967    -1.504530688515    -0.122890406044    12.000000000000
         C           -2.612374353967    -0.319325688515     0.026246593956    12.000000000000
         C            1.674828646033    -0.196391688515    -0.042924406044    12.000000000000
         H            0.076948646033    -2.357500688515    -0.301536406044     1.007825032230
         H           -2.524268353967     1.817273311485     0.260154593956     1.007825032230
         H           -2.399041353967    -2.455072688515    -0.245135406044     1.007825032230
         H           -3.699540353967    -0.341867688515     0.052457593956     1.007825032230
         H            1.014656646033     2.232470311485    -0.134469406044     1.007825032230
         H           -0.486765353967     3.000816311485     0.028846593956     1.007825032230
         H            1.823303646033    -1.907982688515     1.098583593956     1.007825032230
         H            3.304665646033    -1.250483688515     0.517248593956     1.007825032230

  Basis Set: AUG-CC-PVTZ
    Blend: AUG-CC-PVTZ
  Basis Set: (AUG-CC-PVTZ AUX)
    Blend: AUG-CC-PVTZ-JKFIT
	 Reference Energy          =    -453.6576660797714453 [Eh]
	 Singles Energy            =      -0.0000000000000000 [Eh]
	 Same-Spin Energy          =      -0.4865226476647199 [Eh]
	 Opposite-Spin Energy      =      -1.4804872916371026 [Eh]
	 Correlation Energy        =      -1.9670099393018226 [Eh]
	 Total Energy              =    -455.6246760190732630 [Eh]

	 ================> DF-SCS-MP2 Energies <==================
	-----------------------------------------------------------
	 SCS Same-Spin Scale       =       0.3333333333333333 [-]
	 SCS Opposite-Spin Scale   =       1.2000000000000000 [-]
	 SCS Same-Spin Energy      =      -0.1621742158882399 [Eh]
	 SCS Opposite-Spin Energy  =      -1.7765847499645231 [Eh]
	 SCS Correlation Energy    =      -1.9387589658527631 [Eh]
	 SCS Total Energy          =    -455.5964250456241871 [Eh]
	-----------------------------------------------------------

  Dipole Moment: [D]
     X:    -0.9797      Y:    -1.2672      Z:     1.0951     Total:     1.9404

*** Psi4 exiting successfully. Buy a developer a beer!
