                               Psi4 1.3.2 release

  ==> Input File <==

--------------------------------------------------------------------------
#psi4
#
memory 32 gb

molecule  {
0 1
  O        2.3476870     0.7564740    -0.5170070
  N        0.1051940     2.2022940     0.2485340
  N        2.3184480    -1.3288730     0.3923020
  C        0.2029659    -0.2477465    -0.0786665
  C       -0.5292580     0.9782650     0.0721850
  C       -0.4780620    -1.4467680    -0.1744800
  C       -1.9322610     0.8976940     0.1244170
  C       -1.8678090    -1.5041600    -0.1507450
  C       -2.5929860    -0.3189550    -0.0016080
  C        1.6942170    -0.1960210    -0.0707790
  H        0.0963370    -2.3571300    -0.3293910
  H       -2.5048800     1.8176440     0.2323000
  H       -2.3796530    -2.4547020    -0.2729900
  H       -3.6801520    -0.3414970     0.0246030
  H        1.0340450     2.2328410    -0.1623240
  H       -0.4673770     3.0011870     0.0009920
  H        1.8426920    -1.9076120     1.0707290
  H        3.3240540    -1.2501130     0.4893940
units angstrom
no_reorient  #important for SAPT in psi4, default
symmetry c1  #important for SAPT in psi4, default
}

set PROPERTIES_ORIGIN ["COM"]
properties('MP2/aug-cc-pvtz', properties = ['dipole'])
--------------------------------------------------------------------------

    Molecular point group: c1
  Charge       = 0
  Multiplicity = 1
  Basis Set: AUG-CC-PVTZ
    Blend: AUG-CC-PVTZ
  Basis Set: (AUG-CC-PVTZ AUX)
    Blend: AUG-CC-PVTZ-JKFIT

    Orbital Energies [Eh]
    ---------------------

    Doubly Occupied:

       1A    -20.526966     2A    -15.588161     3A    -15.561202
       4A    -11.364069     5A    -11.299467     6A    -11.253449
       7A    -11.252936     8A    -11.244947     9A    -11.233525
      10A    -11.231184    11A     -1.380627    12A     -1.226660
      13A     -1.214679    14A     -1.138211    15A     -1.038250
      16A     -0.996831    17A     -0.876991    18A     -0.832194
      19A     -0.793876    20A     -0.736960    21A     -0.698485
      22A     -0.689355    23A     -0.674197    24A     -0.637958
      25A     -0.607523    26A     -0.603861    27A     -0.588482
      28A     -0.574572    29A     -0.539053    30A     -0.524293
      31A     -0.507696    32A     -0.455939    33A     -0.435916
      34A     -0.421066    35A     -0.354556    36A     -0.301118

  @DF-RHF Final Energy:  -453.68584543745919

   => Energetics <=

    Nuclear Repulsion Energy =            499.6757157297499248
    One-Electron Energy =               -1607.9126121564388541
    Two-Electron Energy =                 654.5510509892296795
    Total Energy =                       -453.6858454374591929
  Basis Set: (AUG-CC-PVTZ AUX)
    Blend: AUG-CC-PVTZ-RI
    Molecular point group: c1

    Geometry (in Angstrom), charge = 0, multiplicity = 1:

       Center              X                  Y                   Z               Mass
    ------------   -----------------  -----------------  -----------------  -----------------
         O            2.327881276702     0.749059961484    -0.505318562043    15.994914619570
         N            0.085388276702     2.194879961484     0.260222437957    14.003074004430
         N            2.298642276702    -1.336287038516     0.403990437957    14.003074004430
         C            0.183160176702    -0.255160538516    -0.066978062043    12.000000000000
         C           -0.549063723298     0.970850961484     0.083873437957    12.000000000000
         C           -0.497867723298    -1.454182038516    -0.162791562043    12.000000000000
         C           -1.952066723298     0.890279961484     0.136105437957    12.000000000000
         C           -1.887614723298    -1.511574038516    -0.139056562043    12.000000000000
         C           -2.612791723298    -0.326369038516     0.010080437957    12.000000000000
         C            1.674411276702    -0.203435038516    -0.059090562043    12.000000000000
         H            0.076531276702    -2.364544038516    -0.317702562043     1.007825032230
         H           -2.524685723298     1.810229961484     0.243988437957     1.007825032230
         H           -2.399458723298    -2.462116038516    -0.261301562043     1.007825032230
         H           -3.699957723298    -0.348911038516     0.036291437957     1.007825032230
         H            1.014239276702     2.225426961484    -0.150635562043     1.007825032230
         H           -0.487182723298     2.993772961484     0.012680437957     1.007825032230
         H            1.822886276702    -1.915026038516     1.082417437957     1.007825032230
         H            3.304248276702    -1.257527038516     0.501082437957     1.007825032230

  Basis Set: AUG-CC-PVTZ
    Blend: AUG-CC-PVTZ
  Basis Set: (AUG-CC-PVTZ AUX)
    Blend: AUG-CC-PVTZ-JKFIT
	 Reference Energy          =    -453.6858454374591929 [Eh]
	 Singles Energy            =      -0.0000000000000000 [Eh]
	 Same-Spin Energy          =      -0.4862005333954196 [Eh]
	 Opposite-Spin Energy      =      -1.4789250598770085 [Eh]
	 Correlation Energy        =      -1.9651255932724281 [Eh]
	 Total Energy              =    -455.6509710307316254 [Eh]

	 ================> DF-SCS-MP2 Energies <==================
	-----------------------------------------------------------
	 SCS Same-Spin Scale       =       0.3333333333333333 [-]
	 SCS Opposite-Spin Scale   =       1.2000000000000000 [-]
	 SCS Same-Spin Energy      =      -0.1620668444651399 [Eh]
	 SCS Opposite-Spin Energy  =      -1.7747100718524103 [Eh]
	 SCS Correlation Energy    =      -1.9367769163175501 [Eh]
	 SCS Total Energy          =    -455.6226223537767623 [Eh]
	-----------------------------------------------------------

  Dipole Moment: [D]
     X:    -1.0918      Y:    -1.3378      Z:     1.0686     Total:     2.0307

*** Psi4 exiting successfully. Buy a developer a beer!
