                               Psi4 1.3.2 release

  ==> Input File <==

--------------------------------------------------------------------------
#psi4
#
memory 32 gb

molecule  {
0 1
  N       -0.9921260    -0.3000080     0.0000520
  N        0.0017640    -1.1800760     0.0000510
  N       -0.6308990     0.9900470    -0.0000160
  N        0.7028190     0.9633360    -0.0000720
  C        1.0536040    -0.3405910    -0.0000270
  H       -1.9683030    -0.5816970     0.0001040
  H        2.0757721    -0.6878597    -0.1500530
units angstrom
no_reorient  #important for SAPT in psi4, default
symmetry c1  #important for SAPT in psi4, default
}

set PROPERTIES_ORIGIN ["COM"]
properties('MP2/aug-cc-pvtz', properties = ['dipole'])
--------------------------------------------------------------------------

    Molecular point group: c1
  Charge       = 0
  Multiplicity = 1
  Basis Set: AUG-CC-PVTZ
    Blend: AUG-CC-PVTZ
  Basis Set: (AUG-CC-PVTZ AUX)
    Blend: AUG-CC-PVTZ-JKFIT

    Orbital Energies [Eh]
    ---------------------

    Doubly Occupied:

       1A    -15.717140     2A    -15.684875     3A    -15.642657
       4A    -15.623182     5A    -11.314081     6A     -1.498766
       7A     -1.265311     8A     -1.182624     9A     -0.927376
      10A     -0.875980    11A     -0.779722    12A     -0.683056
      13A     -0.647600    14A     -0.576221    15A     -0.510731
      16A     -0.485748    17A     -0.451116    18A     -0.414083

  @DF-RHF Final Energy:  -256.84115009657478

   => Energetics <=

    Nuclear Repulsion Energy =            166.0946508818076666
    One-Electron Energy =                -677.3110683186243932
    Two-Electron Energy =                 254.3752673402419475
    Total Energy =                       -256.8411500965747791
  Basis Set: (AUG-CC-PVTZ AUX)
    Blend: AUG-CC-PVTZ-RI
    Molecular point group: c1

    Geometry (in Angstrom), charge = 0, multiplicity = 1:

       Center              X                  Y                   Z               Mass
    ------------   -----------------  -----------------  -----------------  -----------------
         N           -0.990563006199    -0.318015923575     0.002211656510    14.003074004430
         N            0.003326993801    -1.198083923575     0.002210656510    14.003074004430
         N           -0.629336006199     0.972039076425     0.002143656510    14.003074004430
         N            0.704381993801     0.945328076425     0.002087656510    14.003074004430
         C            1.055166993801    -0.358598923575     0.002132656510    12.000000000000
         H           -1.966740006199    -0.599704923575     0.002263656510     1.007825032230
         H            2.077335093801    -0.705867623575    -0.147893343490     1.007825032230

  Basis Set: AUG-CC-PVTZ
    Blend: AUG-CC-PVTZ
  Basis Set: (AUG-CC-PVTZ AUX)
    Blend: AUG-CC-PVTZ-JKFIT
	 Reference Energy          =    -256.8411500965747791 [Eh]
	 Singles Energy            =      -0.0000000000000000 [Eh]
	 Same-Spin Energy          =      -0.2779778680016271 [Eh]
	 Opposite-Spin Energy      =      -0.7938853846970464 [Eh]
	 Correlation Energy        =      -1.0718632526986736 [Eh]
	 Total Energy              =    -257.9130133492734558 [Eh]

	 ================> DF-SCS-MP2 Energies <==================
	-----------------------------------------------------------
	 SCS Same-Spin Scale       =       0.3333333333333333 [-]
	 SCS Opposite-Spin Scale   =       1.2000000000000000 [-]
	 SCS Same-Spin Energy      =      -0.0926592893338757 [Eh]
	 SCS Opposite-Spin Energy  =      -0.9526624616364556 [Eh]
	 SCS Correlation Energy    =      -1.0453217509703314 [Eh]
	 SCS Total Energy          =    -257.8864718475451241 [Eh]
	-----------------------------------------------------------

  Dipole Moment: [D]
     X:    -1.2504      Y:    -2.0192      Z:    -0.1143     Total:     2.3778

*** Psi4 exiting successfully. Buy a developer a beer!
