                               Psi4 1.3.2 release

  ==> Input File <==

--------------------------------------------------------------------------
#psi4
#
memory 32 gb

molecule  {
0 1
  N       -0.9921260    -0.3000080     0.0000520
  N        0.0017640    -1.1800760     0.0000510
  N       -0.6308990     0.9900470    -0.0000160
  N        0.7028190     0.9633360    -0.0000720
  C        1.0536040    -0.3405910    -0.0000270
  H       -1.9683030    -0.5816970     0.0001040
  H        2.0757760    -0.6878552    -0.0500530
units angstrom
no_reorient  #important for SAPT in psi4, default
symmetry c1  #important for SAPT in psi4, default
}

set PROPERTIES_ORIGIN ["COM"]
properties('MP2/aug-cc-pvtz', properties = ['dipole'])
--------------------------------------------------------------------------

    Molecular point group: c1
  Charge       = 0
  Multiplicity = 1
  Basis Set: AUG-CC-PVTZ
    Blend: AUG-CC-PVTZ
  Basis Set: (AUG-CC-PVTZ AUX)
    Blend: AUG-CC-PVTZ-JKFIT

    Orbital Energies [Eh]
    ---------------------

    Doubly Occupied:

       1A    -15.716987     2A    -15.684790     3A    -15.642461
       4A    -15.623056     5A    -11.313368     6A     -1.498624
       7A     -1.265177     8A     -1.182642     9A     -0.927351
      10A     -0.876916    11A     -0.780049    12A     -0.682435
      13A     -0.650173    14A     -0.576641    15A     -0.510625
      16A     -0.485630    17A     -0.451076    18A     -0.414251

  @DF-RHF Final Energy:  -256.84245422975278

   => Energetics <=

    Nuclear Repulsion Energy =            166.1294972718577867
    One-Electron Energy =                -677.3793963604335886
    Two-Electron Energy =                 254.4074448588230553
    Total Energy =                       -256.8424542297527751
  Basis Set: (AUG-CC-PVTZ AUX)
    Blend: AUG-CC-PVTZ-RI
    Molecular point group: c1

    Geometry (in Angstrom), charge = 0, multiplicity = 1:

       Center              X                  Y                   Z               Mass
    ------------   -----------------  -----------------  -----------------  -----------------
         N           -0.990563062327    -0.318015988337     0.000772481026    14.003074004430
         N            0.003326937673    -1.198083988337     0.000771481026    14.003074004430
         N           -0.629336062327     0.972039011663     0.000704481026    14.003074004430
         N            0.704381937673     0.945328011663     0.000648481026    14.003074004430
         C            1.055166937673    -0.358598988337     0.000693481026    12.000000000000
         H           -1.966740062327    -0.599704988337     0.000824481026     1.007825032230
         H            2.077338937673    -0.705863188337    -0.049332518974     1.007825032230

  Basis Set: AUG-CC-PVTZ
    Blend: AUG-CC-PVTZ
  Basis Set: (AUG-CC-PVTZ AUX)
    Blend: AUG-CC-PVTZ-JKFIT
	 Reference Energy          =    -256.8424542297527751 [Eh]
	 Singles Energy            =      -0.0000000000000000 [Eh]
	 Same-Spin Energy          =      -0.2778991664899821 [Eh]
	 Opposite-Spin Energy      =      -0.7937160764383462 [Eh]
	 Correlation Energy        =      -1.0716152429283283 [Eh]
	 Total Energy              =    -257.9140694726810921 [Eh]

	 ================> DF-SCS-MP2 Energies <==================
	-----------------------------------------------------------
	 SCS Same-Spin Scale       =       0.3333333333333333 [-]
	 SCS Opposite-Spin Scale   =       1.2000000000000000 [-]
	 SCS Same-Spin Energy      =      -0.0926330554966607 [Eh]
	 SCS Opposite-Spin Energy  =      -0.9524592917260154 [Eh]
	 SCS Correlation Energy    =      -1.0450923472226761 [Eh]
	 SCS Total Energy          =    -257.8875465769754669 [Eh]
	-----------------------------------------------------------

  Dipole Moment: [D]
     X:    -1.2387      Y:    -2.0240      Z:    -0.0381     Total:     2.3733

*** Psi4 exiting successfully. Buy a developer a beer!
