                               Psi4 1.3.2 release

  ==> Input File <==

--------------------------------------------------------------------------
#psi4
#
memory 32 gb

molecule  {
0 1
  N       -0.9921260    -0.3000080     0.0000520
  N        0.0017640    -1.1800760     0.0000510
  N       -0.6308990     0.9900470    -0.0000160
  N        0.7028190     0.9633360    -0.0000720
  C        1.0536040    -0.3405910    -0.0000270
  H       -1.9683030    -0.5816970     0.0001040
  H        2.0757681    -0.6878641    -0.2500530
units angstrom
no_reorient  #important for SAPT in psi4, default
symmetry c1  #important for SAPT in psi4, default
}

set PROPERTIES_ORIGIN ["COM"]
properties('MP2/aug-cc-pvtz', properties = ['dipole'])
--------------------------------------------------------------------------

    Molecular point group: c1
  Charge       = 0
  Multiplicity = 1
  Basis Set: AUG-CC-PVTZ
    Blend: AUG-CC-PVTZ
  Basis Set: (AUG-CC-PVTZ AUX)
    Blend: AUG-CC-PVTZ-JKFIT

    Orbital Energies [Eh]
    ---------------------

    Doubly Occupied:

       1A    -15.717441     2A    -15.685044     3A    -15.643046
       4A    -15.623434     5A    -11.315476     6A     -1.499046
       7A     -1.265577     8A     -1.182595     9A     -0.927442
      10A     -0.874244    11A     -0.779111    12A     -0.684031
      13A     -0.642867    14A     -0.575282    15A     -0.510939
      16A     -0.485980    17A     -0.451200    18A     -0.413761

  @DF-RHF Final Energy:  -256.83832006140369

   => Energetics <=

    Nuclear Repulsion Energy =            166.0269609816529055
    One-Electron Energy =                -677.1775287332734479
    Two-Electron Energy =                 254.3122476902168501
    Total Energy =                       -256.8383200614036923
  Basis Set: (AUG-CC-PVTZ AUX)
    Blend: AUG-CC-PVTZ-RI
    Molecular point group: c1

    Geometry (in Angstrom), charge = 0, multiplicity = 1:

       Center              X                  Y                   Z               Mass
    ------------   -----------------  -----------------  -----------------  -----------------
         N           -0.990562948632    -0.318015860251     0.003650831995    14.003074004430
         N            0.003327051368    -1.198083860251     0.003649831995    14.003074004430
         N           -0.629335948632     0.972039139749     0.003582831995    14.003074004430
         N            0.704382051368     0.945328139749     0.003526831995    14.003074004430
         C            1.055167051368    -0.358598860251     0.003571831995    12.000000000000
         H           -1.966739948632    -0.599704860251     0.003702831995     1.007825032230
         H            2.077331151368    -0.705871960251    -0.246454168005     1.007825032230

  Basis Set: AUG-CC-PVTZ
    Blend: AUG-CC-PVTZ
  Basis Set: (AUG-CC-PVTZ AUX)
    Blend: AUG-CC-PVTZ-JKFIT
	 Reference Energy          =    -256.8383200614036923 [Eh]
	 Singles Energy            =      -0.0000000000000000 [Eh]
	 Same-Spin Energy          =      -0.2781319259537830 [Eh]
	 Opposite-Spin Energy      =      -0.7942362793868420 [Eh]
	 Correlation Energy        =      -1.0723682053406249 [Eh]
	 Total Energy              =    -257.9106882667443301 [Eh]

	 ================> DF-SCS-MP2 Energies <==================
	-----------------------------------------------------------
	 SCS Same-Spin Scale       =       0.3333333333333333 [-]
	 SCS Opposite-Spin Scale   =       1.2000000000000000 [-]
	 SCS Same-Spin Energy      =      -0.0927106419845943 [Eh]
	 SCS Opposite-Spin Energy  =      -0.9530835352642104 [Eh]
	 SCS Correlation Energy    =      -1.0457941772488049 [Eh]
	 SCS Total Energy          =    -257.8841142386525007 [Eh]
	-----------------------------------------------------------

  Dipole Moment: [D]
     X:    -1.2733      Y:    -2.0097      Z:    -0.1903     Total:     2.3867

*** Psi4 exiting successfully. Buy a developer a beer!
