                               Psi4 1.3.2 release

  ==> Input File <==

--------------------------------------------------------------------------
#psi4
#
memory 32 gb

molecule  {
0 1
  N       -0.9921260    -0.3000080     0.0000520
  N        0.0017640    -1.1800760     0.0000510
  N       -0.6308990     0.9900470    -0.0000160
  N        0.7028190     0.9633360    -0.0000720
  C        1.0536040    -0.3405910    -0.0000270
  H       -1.9683030    -0.5816970     0.0001040
  H        2.0757701    -0.6878619    -0.2000530
units angstrom
no_reorient  #important for SAPT in psi4, default
symmetry c1  #important for SAPT in psi4, default
}

set PROPERTIES_ORIGIN ["COM"]
properties('MP2/aug-cc-pvtz', properties = ['dipole'])
--------------------------------------------------------------------------

    Molecular point group: c1
  Charge       = 0
  Multiplicity = 1
  Basis Set: AUG-CC-PVTZ
    Blend: AUG-CC-PVTZ
  Basis Set: (AUG-CC-PVTZ AUX)
    Blend: AUG-CC-PVTZ-JKFIT

    Orbital Energies [Eh]
    ---------------------

    Doubly Occupied:

       1A    -15.717272     2A    -15.684949     3A    -15.642828
       4A    -15.623292     5A    -11.314696     6A     -1.498889
       7A     -1.265428     8A     -1.182610     9A     -0.927402
      10A     -0.875199    11A     -0.779448    12A     -0.683519
      13A     -0.645467    14A     -0.575827    15A     -0.510823
      16A     -0.485850    17A     -0.451152    18A     -0.413940

  @DF-RHF Final Energy:  -256.83994621888849

   => Energetics <=

    Nuclear Repulsion Energy =            166.0647161390426731
    One-Electron Energy =                -677.2521424527687941
    Two-Electron Energy =                 254.3474800948376071
    Total Energy =                       -256.8399462188884854
  Basis Set: (AUG-CC-PVTZ AUX)
    Blend: AUG-CC-PVTZ-RI
    Molecular point group: c1

    Geometry (in Angstrom), charge = 0, multiplicity = 1:

       Center              X                  Y                   Z               Mass
    ------------   -----------------  -----------------  -----------------  -----------------
         N           -0.990562977416    -0.318015891913     0.002931244252    14.003074004430
         N            0.003327022584    -1.198083891913     0.002930244252    14.003074004430
         N           -0.629335977416     0.972039108087     0.002863244252    14.003074004430
         N            0.704382022584     0.945328108087     0.002807244252    14.003074004430
         C            1.055167022584    -0.358598891913     0.002852244252    12.000000000000
         H           -1.966739977416    -0.599704891913     0.002983244252     1.007825032230
         H            2.077333122584    -0.705869791913    -0.197173755748     1.007825032230

  Basis Set: AUG-CC-PVTZ
    Blend: AUG-CC-PVTZ
  Basis Set: (AUG-CC-PVTZ AUX)
    Blend: AUG-CC-PVTZ-JKFIT
	 Reference Energy          =    -256.8399462188884854 [Eh]
	 Singles Energy            =      -0.0000000000000000 [Eh]
	 Same-Spin Energy          =      -0.2780458108771340 [Eh]
	 Opposite-Spin Energy      =      -0.7940372197346741 [Eh]
	 Correlation Energy        =      -1.0720830306118081 [Eh]
	 Total Energy              =    -257.9120292495002786 [Eh]

	 ================> DF-SCS-MP2 Energies <==================
	-----------------------------------------------------------
	 SCS Same-Spin Scale       =       0.3333333333333333 [-]
	 SCS Opposite-Spin Scale   =       1.2000000000000000 [-]
	 SCS Same-Spin Energy      =      -0.0926819369590447 [Eh]
	 SCS Opposite-Spin Energy  =      -0.9528446636816089 [Eh]
	 SCS Correlation Energy    =      -1.0455266006406536 [Eh]
	 SCS Total Energy          =    -257.8854728195291273 [Eh]
	-----------------------------------------------------------

  Dipole Moment: [D]
     X:    -1.2605      Y:    -2.0150      Z:    -0.1524     Total:     2.3817

*** Psi4 exiting successfully. Buy a developer a beer!
