                               Psi4 1.3.2 release

  ==> Input File <==

--------------------------------------------------------------------------
#psi4
#
memory 32 gb

molecule  {
0 1
  N       -0.9921260    -0.3000080     0.0000520
  N        0.0017640    -1.1800760     0.0000510
  N       -0.6308990     0.9900470    -0.0000160
  N        0.7028190     0.9633360    -0.0000720
  C        1.0536040    -0.3405910    -0.0000270
  H       -1.9683030    -0.5816970     0.0001040
  H        2.0757740    -0.6878574    -0.1000530
units angstrom
no_reorient  #important for SAPT in psi4, default
symmetry c1  #important for SAPT in psi4, default
}

set PROPERTIES_ORIGIN ["COM"]
properties('MP2/aug-cc-pvtz', properties = ['dipole'])
--------------------------------------------------------------------------

    Molecular point group: c1
  Charge       = 0
  Multiplicity = 1
  Basis Set: AUG-CC-PVTZ
    Blend: AUG-CC-PVTZ
  Basis Set: (AUG-CC-PVTZ AUX)
    Blend: AUG-CC-PVTZ-JKFIT

    Orbital Energies [Eh]
    ---------------------

    Doubly Occupied:

       1A    -15.717044     2A    -15.684822     3A    -15.642535
       4A    -15.623103     5A    -11.313636     6A     -1.498677
       7A     -1.265228     8A     -1.182635     9A     -0.927359
      10A     -0.876559    11A     -0.779925    12A     -0.682681
      13A     -0.649190    14A     -0.576487    15A     -0.510665
      16A     -0.485674    17A     -0.451091    18A     -0.414188

  @DF-RHF Final Energy:  -256.84197457456571

   => Energetics <=

    Nuclear Repulsion Energy =            166.1163491904877105
    One-Electron Energy =                -677.3536492693341415
    Two-Electron Energy =                 254.3953255042806916
    Total Energy =                       -256.8419745745657110
  Basis Set: (AUG-CC-PVTZ AUX)
    Blend: AUG-CC-PVTZ-RI
    Molecular point group: c1

    Geometry (in Angstrom), charge = 0, multiplicity = 1:

       Center              X                  Y                   Z               Mass
    ------------   -----------------  -----------------  -----------------  -----------------
         N           -0.990563033544    -0.318015956676     0.001492068768    14.003074004430
         N            0.003326966456    -1.198083956676     0.001491068768    14.003074004430
         N           -0.629336033544     0.972039043324     0.001424068768    14.003074004430
         N            0.704381966456     0.945328043324     0.001368068768    14.003074004430
         C            1.055166966456    -0.358598956676     0.001413068768    12.000000000000
         H           -1.966740033544    -0.599704956676     0.001544068768     1.007825032230
         H            2.077336966456    -0.705865356676    -0.098612931232     1.007825032230

  Basis Set: AUG-CC-PVTZ
    Blend: AUG-CC-PVTZ
  Basis Set: (AUG-CC-PVTZ AUX)
    Blend: AUG-CC-PVTZ-JKFIT
	 Reference Energy          =    -256.8419745745657110 [Eh]
	 Singles Energy            =      -0.0000000000000000 [Eh]
	 Same-Spin Energy          =      -0.2779288116562604 [Eh]
	 Opposite-Spin Energy      =      -0.7937789592639861 [Eh]
	 Correlation Energy        =      -1.0717077709202465 [Eh]
	 Total Energy              =    -257.9136823454859382 [Eh]

	 ================> DF-SCS-MP2 Energies <==================
	-----------------------------------------------------------
	 SCS Same-Spin Scale       =       0.3333333333333333 [-]
	 SCS Opposite-Spin Scale   =       1.2000000000000000 [-]
	 SCS Same-Spin Energy      =      -0.0926429372187535 [Eh]
	 SCS Opposite-Spin Energy  =      -0.9525347511167833 [Eh]
	 SCS Correlation Energy    =      -1.0451776883355368 [Eh]
	 SCS Total Energy          =    -257.8871522629012247 [Eh]
	-----------------------------------------------------------

  Dipole Moment: [D]
     X:    -1.2431      Y:    -2.0222      Z:    -0.0762     Total:     2.3750

*** Psi4 exiting successfully. Buy a developer a beer!
