                               Psi4 1.3.2 release

  ==> Input File <==

--------------------------------------------------------------------------
#psi4
#
memory 32 gb

molecule  {
0 1
  N       -0.9921260    -0.3000080     0.0000520
  N        0.0017640    -1.1800760     0.0000510
  N       -0.6308990     0.9900470    -0.0000160
  N        0.7028190     0.9633360    -0.0000720
  C        1.0536040    -0.3405910    -0.0000270
  H       -1.9683030    -0.5816970     0.0001040
  H        2.0757780    -0.6878530    -0.0000530
units angstrom
no_reorient  #important for SAPT in psi4, default
symmetry c1  #important for SAPT in psi4, default
}

set PROPERTIES_ORIGIN ["COM"]
properties('MP2/aug-cc-pvtz', properties = ['dipole'])
--------------------------------------------------------------------------

    Molecular point group: c1
  Charge       = 0
  Multiplicity = 1
  Basis Set: AUG-CC-PVTZ
    Blend: AUG-CC-PVTZ
  Basis Set: (AUG-CC-PVTZ AUX)
    Blend: AUG-CC-PVTZ-JKFIT

    Orbital Energies [Eh]
    ---------------------

    Doubly Occupied:

       1A    -15.716967     2A    -15.684780     3A    -15.642436
       4A    -15.623040     5A    -11.313278     6A     -1.498606
       7A     -1.265160     8A     -1.182645     9A     -0.927348
      10A     -0.877036    11A     -0.780091    12A     -0.682349
      13A     -0.650507    14A     -0.576692    15A     -0.510611
      16A     -0.485616    17A     -0.451071    18A     -0.414272

  @DF-RHF Final Energy:  -256.84261152018075

   => Energetics <=

    Nuclear Repulsion Energy =            166.1339018819318767
    One-Electron Energy =                -677.3880122818816290
    Two-Electron Energy =                 254.4114988797690273
    Total Energy =                       -256.8426115201807534
  Basis Set: (AUG-CC-PVTZ AUX)
    Blend: AUG-CC-PVTZ-RI
    Molecular point group: c1

    Geometry (in Angstrom), charge = 0, multiplicity = 1:

       Center              X                  Y                   Z               Mass
    ------------   -----------------  -----------------  -----------------  -----------------
         N           -0.990563091111    -0.318016019999     0.000052893284    14.003074004430
         N            0.003326908889    -1.198084019999     0.000051893284    14.003074004430
         N           -0.629336091111     0.972038980001    -0.000015106716    14.003074004430
         N            0.704381908889     0.945327980001    -0.000071106716    14.003074004430
         C            1.055166908889    -0.358599019999    -0.000026106716    12.000000000000
         H           -1.966740091111    -0.599705019999     0.000104893284     1.007825032230
         H            2.077340908889    -0.705861019999    -0.000052106716     1.007825032230

  Basis Set: AUG-CC-PVTZ
    Blend: AUG-CC-PVTZ
  Basis Set: (AUG-CC-PVTZ AUX)
    Blend: AUG-CC-PVTZ-JKFIT
	 Reference Energy          =    -256.8426115201807534 [Eh]
	 Singles Energy            =      -0.0000000000000000 [Eh]
	 Same-Spin Energy          =      -0.2778892492399416 [Eh]
	 Opposite-Spin Energy      =      -0.7936952968449655 [Eh]
	 Correlation Energy        =      -1.0715845460849072 [Eh]
	 Total Energy              =    -257.9141960662656743 [Eh]

	 ================> DF-SCS-MP2 Energies <==================
	-----------------------------------------------------------
	 SCS Same-Spin Scale       =       0.3333333333333333 [-]
	 SCS Opposite-Spin Scale   =       1.2000000000000000 [-]
	 SCS Same-Spin Energy      =      -0.0926297497466472 [Eh]
	 SCS Opposite-Spin Energy  =      -0.9524343562139586 [Eh]
	 SCS Correlation Energy    =      -1.0450641059606058 [Eh]
	 SCS Total Energy          =    -257.8876756261413448 [Eh]
	-----------------------------------------------------------

  Dipole Moment: [D]
     X:    -1.2372      Y:    -2.0246      Z:     0.0001     Total:     2.3727

*** Psi4 exiting successfully. Buy a developer a beer!
