                               Psi4 1.3.2 release

  ==> Input File <==

--------------------------------------------------------------------------
#psi4
#
memory 32 gb

molecule  {
0 1
  N       -0.9921260    -0.3000080     0.0000520
  N        0.0017640    -1.1800760     0.0000510
  N       -0.6308990     0.9900470    -0.0000160
  N        0.7028190     0.9633360    -0.0000720
  C        1.0536040    -0.3405910    -0.0000270
  H       -1.9683030    -0.5816970     0.0001040
  H        2.0757661    -0.6878663    -0.3000530
units angstrom
no_reorient  #important for SAPT in psi4, default
symmetry c1  #important for SAPT in psi4, default
}

set PROPERTIES_ORIGIN ["COM"]
properties('MP2/aug-cc-pvtz', properties = ['dipole'])
--------------------------------------------------------------------------

    Molecular point group: c1
  Charge       = 0
  Multiplicity = 1
  Basis Set: AUG-CC-PVTZ
    Blend: AUG-CC-PVTZ
  Basis Set: (AUG-CC-PVTZ AUX)
    Blend: AUG-CC-PVTZ-JKFIT

    Orbital Energies [Eh]
    ---------------------

    Doubly Occupied:

       1A    -15.717645     2A    -15.685160     3A    -15.643310
       4A    -15.623606     5A    -11.316412     6A     -1.499236
       7A     -1.265758     8A     -1.182582     9A     -0.927498
      10A     -0.873150    11A     -0.778723    12A     -0.684558
      13A     -0.639878    14A     -0.574556    15A     -0.511078
      16A     -0.486138    17A     -0.451259    18A     -0.413549

  @DF-RHF Final Energy:  -256.83622506140773

   => Energetics <=

    Nuclear Repulsion Energy =            165.9818875497450108
    One-Electron Energy =                -677.0880341888279190
    Two-Electron Energy =                 254.2699215776751487
    Total Energy =                       -256.8362250614077311
  Basis Set: (AUG-CC-PVTZ AUX)
    Blend: AUG-CC-PVTZ-RI
    Molecular point group: c1

    Geometry (in Angstrom), charge = 0, multiplicity = 1:

       Center              X                  Y                   Z               Mass
    ------------   -----------------  -----------------  -----------------  -----------------
         N           -0.990562919849    -0.318015828589     0.004370419737    14.003074004430
         N            0.003327080151    -1.198083828589     0.004369419737    14.003074004430
         N           -0.629335919849     0.972039171411     0.004302419737    14.003074004430
         N            0.704382080151     0.945328171411     0.004246419737    14.003074004430
         C            1.055167080151    -0.358598828589     0.004291419737    12.000000000000
         H           -1.966739919849    -0.599704828589     0.004422419737     1.007825032230
         H            2.077329180151    -0.705874128589    -0.295734580263     1.007825032230

  Basis Set: AUG-CC-PVTZ
    Blend: AUG-CC-PVTZ
  Basis Set: (AUG-CC-PVTZ AUX)
    Blend: AUG-CC-PVTZ-JKFIT
	 Reference Energy          =    -256.8362250614077311 [Eh]
	 Singles Energy            =      -0.0000000000000000 [Eh]
	 Same-Spin Energy          =      -0.2782353343799086 [Eh]
	 Opposite-Spin Energy      =      -0.7944839783954694 [Eh]
	 Correlation Energy        =      -1.0727193127753780 [Eh]
	 Total Energy              =    -257.9089443741831360 [Eh]

	 ================> DF-SCS-MP2 Energies <==================
	-----------------------------------------------------------
	 SCS Same-Spin Scale       =       0.3333333333333333 [-]
	 SCS Opposite-Spin Scale   =       1.2000000000000000 [-]
	 SCS Same-Spin Energy      =      -0.0927451114599695 [Eh]
	 SCS Opposite-Spin Energy  =      -0.9533807740745632 [Eh]
	 SCS Correlation Energy    =      -1.0461258855345328 [Eh]
	 SCS Total Energy          =    -257.8823509469422675 [Eh]
	-----------------------------------------------------------

  Dipole Moment: [D]
     X:    -1.2887      Y:    -2.0033      Z:    -0.2281     Total:     2.3929

*** Psi4 exiting successfully. Buy a developer a beer!
