                               Psi4 1.3.2 release

  ==> Input File <==

--------------------------------------------------------------------------
#psi4
#
memory 32 gb

molecule  {
0 1
  O        0.6831730     1.9514370    -0.1851230
  N        0.3221270    -0.3206750    -0.2979720
  C        1.7580560    -0.4955670    -0.5492050
  C       -0.1211040     1.0090560    -0.1118080
  C       -0.4973450    -1.4105120    -0.1972350
  C        2.5603930    -0.4317450     0.7423750
  C       -1.5372540     1.1223260     0.1526570
  C       -1.8319680    -1.2780450     0.0712850
  C       -2.3551590     0.0280850     0.2487950
  H        1.8855710    -1.4559800    -1.0561060
  H        2.0595230     0.3051280    -1.2266110
  H        0.0384365    -2.3913412    -0.0589847
  H        2.4186300     0.5432120     1.2108420
  H        2.2423160    -1.2153800     1.4354410
  H        3.6255180    -0.5665000     0.5315230
  H       -1.9126600     2.1320090     0.2855670
  H       -2.4591310    -2.1595270     0.1391440
  H       -3.4140320     0.1624990     0.4585800
units angstrom
no_reorient  #important for SAPT in psi4, default
symmetry c1  #important for SAPT in psi4, default
}

set PROPERTIES_ORIGIN ["COM"]
properties('MP2/aug-cc-pvtz', properties = ['dipole'])
--------------------------------------------------------------------------

    Molecular point group: c1
  Charge       = 0
  Multiplicity = 1
  Basis Set: AUG-CC-PVTZ
    Blend: AUG-CC-PVTZ
  Basis Set: (AUG-CC-PVTZ AUX)
    Blend: AUG-CC-PVTZ-JKFIT

    Orbital Energies [Eh]
    ---------------------

    Doubly Occupied:

       1A    -20.506553     2A    -15.625058     3A    -11.350144
       4A    -11.311862     5A    -11.273258     6A    -11.271044
       7A    -11.241387     8A    -11.238095     9A    -11.221322
      10A     -1.369159    11A     -1.277991    12A     -1.119553
      13A     -1.030624    14A     -1.017765    15A     -0.895635
      16A     -0.867815    17A     -0.824803    18A     -0.712261
      19A     -0.700382    20A     -0.661785    21A     -0.642974
      22A     -0.611469    23A     -0.606573    24A     -0.603131
      25A     -0.560997    26A     -0.540044    27A     -0.529232
      28A     -0.525687    29A     -0.504853    30A     -0.473287
      31A     -0.420912    32A     -0.407944    33A     -0.309126

  @DF-RHF Final Energy:  -399.76533642104675

   => Energetics <=

    Nuclear Repulsion Energy =            437.3225210943172669
    One-Electron Energy =               -1409.6702589734179583
    Two-Electron Energy =                 572.5824014580539369
    Total Energy =                       -399.7653364210467544
  Basis Set: (AUG-CC-PVTZ AUX)
    Blend: AUG-CC-PVTZ-RI
    Molecular point group: c1

    Geometry (in Angstrom), charge = 0, multiplicity = 1:

       Center              X                  Y                   Z               Mass
    ------------   -----------------  -----------------  -----------------  -----------------
         O            0.718399339159     1.914355396877    -0.176035916750    15.994914619570
         N            0.357353339159    -0.357756603123    -0.288884916750    14.003074004430
         C            1.793282339159    -0.532648603123    -0.540117916750    12.000000000000
         C           -0.085877660841     0.971974396877    -0.102720916750    12.000000000000
         C           -0.462118660841    -1.447593603123    -0.188147916750    12.000000000000
         C            2.595619339159    -0.468826603123     0.751462083250    12.000000000000
         C           -1.502027660841     1.085244396877     0.161744083250    12.000000000000
         C           -1.796741660841    -1.315126603123     0.080372083250    12.000000000000
         C           -2.319932660841    -0.008996603123     0.257882083250    12.000000000000
         H            1.920797339159    -1.493061603123    -1.047018916750     1.007825032230
         H            2.094749339159     0.268046396877    -1.217523916750     1.007825032230
         H            0.073662839159    -2.428422803123    -0.049897616750     1.007825032230
         H            2.453856339159     0.506130396877     1.219929083250     1.007825032230
         H            2.277542339159    -1.252461603123     1.444528083250     1.007825032230
         H            3.660744339159    -0.603581603123     0.540610083250     1.007825032230
         H           -1.877433660841     2.094927396877     0.294654083250     1.007825032230
         H           -2.423904660841    -2.196608603123     0.148231083250     1.007825032230
         H           -3.378805660841     0.125417396877     0.467667083250     1.007825032230

  Basis Set: AUG-CC-PVTZ
    Blend: AUG-CC-PVTZ
  Basis Set: (AUG-CC-PVTZ AUX)
    Blend: AUG-CC-PVTZ-JKFIT
	 Reference Energy          =    -399.7653364210467544 [Eh]
	 Singles Energy            =      -0.0000000000000000 [Eh]
	 Same-Spin Energy          =      -0.4238987475434488 [Eh]
	 Opposite-Spin Energy      =      -1.3408321398711673 [Eh]
	 Correlation Energy        =      -1.7647308874146161 [Eh]
	 Total Energy              =    -401.5300673084613550 [Eh]

	 ================> DF-SCS-MP2 Energies <==================
	-----------------------------------------------------------
	 SCS Same-Spin Scale       =       0.3333333333333333 [-]
	 SCS Opposite-Spin Scale   =       1.2000000000000000 [-]
	 SCS Same-Spin Energy      =      -0.1412995825144829 [Eh]
	 SCS Opposite-Spin Energy  =      -1.6089985678454009 [Eh]
	 SCS Correlation Energy    =      -1.7502981503598838 [Eh]
	 SCS Total Energy          =    -401.5156345714066219 [Eh]
	-----------------------------------------------------------

  Dipole Moment: [D]
     X:    -0.7645      Y:    -3.7591      Z:     0.2247     Total:     3.8426

*** Psi4 exiting successfully. Buy a developer a beer!
