                               Psi4 1.3.2 release

  ==> Input File <==

--------------------------------------------------------------------------
#psi4
#
memory 32 gb

molecule  {
0 1
  O        0.6831730     1.9514370    -0.1851230
  N        0.3221270    -0.3206750    -0.2979720
  C        1.7580560    -0.4955670    -0.5492050
  C       -0.1211040     1.0090560    -0.1118080
  C       -0.4973450    -1.4105120    -0.1972350
  C        2.5603930    -0.4317450     0.7423750
  C       -1.5372540     1.1223260     0.1526570
  C       -1.8319680    -1.2780450     0.0712850
  C       -2.3551590     0.0280850     0.2487950
  H        1.8855710    -1.4559800    -1.0561060
  H        2.0595230     0.3051280    -1.2266110
  H       -0.0197130    -2.3738180    -0.3527730
  H        2.4186300     0.5432120     1.2108420
  H        2.2423160    -1.2153800     1.4354410
  H        3.6255180    -0.5665000     0.5315230
  H       -1.9400885     2.1403511     0.1383322
  H       -2.4591310    -2.1595270     0.1391440
  H       -3.4140320     0.1624990     0.4585800
units angstrom
no_reorient  #important for SAPT in psi4, default
symmetry c1  #important for SAPT in psi4, default
}

set PROPERTIES_ORIGIN ["COM"]
properties('MP2/aug-cc-pvtz', properties = ['dipole'])
--------------------------------------------------------------------------

    Molecular point group: c1
  Charge       = 0
  Multiplicity = 1
  Basis Set: AUG-CC-PVTZ
    Blend: AUG-CC-PVTZ
  Basis Set: (AUG-CC-PVTZ AUX)
    Blend: AUG-CC-PVTZ-JKFIT

    Orbital Energies [Eh]
    ---------------------

    Doubly Occupied:

       1A    -20.506322     2A    -15.625546     3A    -11.349941
       4A    -11.308978     5A    -11.273851     6A    -11.270717
       7A    -11.240218     8A    -11.237880     9A    -11.221131
      10A     -1.369080    11A     -1.278371    12A     -1.119106
      13A     -1.031239    14A     -1.018005    15A     -0.895583
      16A     -0.869986    17A     -0.824866    18A     -0.713967
      19A     -0.700474    20A     -0.666547    21A     -0.640731
      22A     -0.612649    23A     -0.607386    24A     -0.605595
      25A     -0.560603    26A     -0.536640    27A     -0.531292
      28A     -0.524676    29A     -0.505988    30A     -0.474970
      31A     -0.420894    32A     -0.407627    33A     -0.308732

  @DF-RHF Final Energy:  -399.77019084535618

   => Energetics <=

    Nuclear Repulsion Energy =            437.3887500393294090
    One-Electron Energy =               -1409.7987048523525573
    Two-Electron Energy =                 572.6397639676670224
    Total Energy =                       -399.7701908453561828
  Basis Set: (AUG-CC-PVTZ AUX)
    Blend: AUG-CC-PVTZ-RI
    Molecular point group: c1

    Geometry (in Angstrom), charge = 0, multiplicity = 1:

       Center              X                  Y                   Z               Mass
    ------------   -----------------  -----------------  -----------------  -----------------
         O            0.719100149772     1.914143582196    -0.172424314830    15.994914619570
         N            0.358054149772    -0.357968417804    -0.285273314830    14.003074004430
         C            1.793983149772    -0.532860417804    -0.536506314830    12.000000000000
         C           -0.085176850228     0.971762582196    -0.099109314830    12.000000000000
         C           -0.461417850228    -1.447805417804    -0.184536314830    12.000000000000
         C            2.596320149772    -0.469038417804     0.755073685170    12.000000000000
         C           -1.501326850228     1.085032582196     0.165355685170    12.000000000000
         C           -1.796040850228    -1.315338417804     0.083983685170    12.000000000000
         C           -2.319231850228    -0.009208417804     0.261493685170    12.000000000000
         H            1.921498149772    -1.493273417804    -1.043407314830     1.007825032230
         H            2.095450149772     0.267834582196    -1.213912314830     1.007825032230
         H            0.016214149772    -2.411111417804    -0.340074314830     1.007825032230
         H            2.454557149772     0.505918582196     1.223540685170     1.007825032230
         H            2.278243149772    -1.252673417804     1.448139685170     1.007825032230
         H            3.661445149772    -0.603793417804     0.544221685170     1.007825032230
         H           -1.904161350228     2.103057682196     0.151030885170     1.007825032230
         H           -2.423203850228    -2.196820417804     0.151842685170     1.007825032230
         H           -3.378104850228     0.125205582196     0.471278685170     1.007825032230

  Basis Set: AUG-CC-PVTZ
    Blend: AUG-CC-PVTZ
  Basis Set: (AUG-CC-PVTZ AUX)
    Blend: AUG-CC-PVTZ-JKFIT
	 Reference Energy          =    -399.7701908453561828 [Eh]
	 Singles Energy            =      -0.0000000000000000 [Eh]
	 Same-Spin Energy          =      -0.4235141103749679 [Eh]
	 Opposite-Spin Energy      =      -1.3399548156506884 [Eh]
	 Correlation Energy        =      -1.7634689260256562 [Eh]
	 Total Energy              =    -401.5336597713818492 [Eh]

	 ================> DF-SCS-MP2 Energies <==================
	-----------------------------------------------------------
	 SCS Same-Spin Scale       =       0.3333333333333333 [-]
	 SCS Opposite-Spin Scale   =       1.2000000000000000 [-]
	 SCS Same-Spin Energy      =      -0.1411713701249893 [Eh]
	 SCS Opposite-Spin Energy  =      -1.6079457787808260 [Eh]
	 SCS Correlation Energy    =      -1.7491171489058153 [Eh]
	 SCS Total Energy          =    -401.5193079942620216 [Eh]
	-----------------------------------------------------------

  Dipole Moment: [D]
     X:    -0.7668      Y:    -3.8159      Z:    -0.0613     Total:     3.8927

*** Psi4 exiting successfully. Buy a developer a beer!
