                               Psi4 1.3.2 release

  ==> Input File <==

--------------------------------------------------------------------------
#psi4
#
memory 32 gb

molecule  {
0 1
  O        0.6831730     1.9514370    -0.1851230
  N        0.3221270    -0.3206750    -0.2979720
  C        1.7580560    -0.4955670    -0.5492050
  C       -0.1211040     1.0090560    -0.1118080
  C       -0.4973450    -1.4105120    -0.1972350
  C        2.5603930    -0.4317450     0.7423750
  C       -1.5550530     1.1300267     0.0545556
  C       -1.8319680    -1.2780450     0.0712850
  C       -2.3551590     0.0280850     0.2487950
  H        1.8855710    -1.4559800    -1.0561060
  H        2.0595230     0.3051280    -1.2266110
  H       -0.0197130    -2.3738180    -0.3527730
  H        2.4186300     0.5432120     1.2108420
  H        2.2423160    -1.2153800     1.4354410
  H        3.6255180    -0.5665000     0.5315230
  H       -1.9126600     2.1320090     0.2855670
  H       -2.4591310    -2.1595270     0.1391440
  H       -3.4140320     0.1624990     0.4585800
units angstrom
no_reorient  #important for SAPT in psi4, default
symmetry c1  #important for SAPT in psi4, default
}

set PROPERTIES_ORIGIN ["COM"]
properties('MP2/aug-cc-pvtz', properties = ['dipole'])
--------------------------------------------------------------------------

    Molecular point group: c1
  Charge       = 0
  Multiplicity = 1
  Basis Set: AUG-CC-PVTZ
    Blend: AUG-CC-PVTZ
  Basis Set: (AUG-CC-PVTZ AUX)
    Blend: AUG-CC-PVTZ-JKFIT

    Orbital Energies [Eh]
    ---------------------

    Doubly Occupied:

       1A    -20.506371     2A    -15.625696     3A    -11.350139
       4A    -11.309506     5A    -11.273971     6A    -11.271928
       7A    -11.240294     8A    -11.237712     9A    -11.221200
      10A     -1.369033    11A     -1.278458    12A     -1.118510
      13A     -1.030875    14A     -1.017995    15A     -0.895313
      16A     -0.870225    17A     -0.824682    18A     -0.714339
      19A     -0.699414    20A     -0.667547    21A     -0.638512
      22A     -0.615303    23A     -0.607189    24A     -0.604127
      25A     -0.560514    26A     -0.538964    27A     -0.528744
      28A     -0.525961    29A     -0.505174    30A     -0.474914
      31A     -0.420679    32A     -0.407200    33A     -0.308990

  @DF-RHF Final Energy:  -399.76859003733733

   => Energetics <=

    Nuclear Repulsion Energy =            437.2408890324052209
    One-Electron Energy =               -1409.4999989120469763
    Two-Electron Energy =                 572.4905198423043657
    Total Energy =                       -399.7685900373373897
  Basis Set: (AUG-CC-PVTZ AUX)
    Blend: AUG-CC-PVTZ-RI
    Molecular point group: c1

    Geometry (in Angstrom), charge = 0, multiplicity = 1:

       Center              X                  Y                   Z               Mass
    ------------   -----------------  -----------------  -----------------  -----------------
         O            0.720611056309     1.913461026696    -0.164064494058    15.994914619570
         N            0.359565056309    -0.358650973304    -0.276913494058    14.003074004430
         C            1.795494056309    -0.533542973304    -0.528146494058    12.000000000000
         C           -0.083665943691     0.971080026696    -0.090749494058    12.000000000000
         C           -0.459906943691    -1.448487973304    -0.176176494058    12.000000000000
         C            2.597831056309    -0.469720973304     0.763433505942    12.000000000000
         C           -1.517614943691     1.092050726696     0.075614105942    12.000000000000
         C           -1.794529943691    -1.316020973304     0.092343505942    12.000000000000
         C           -2.317720943691    -0.009890973304     0.269853505942    12.000000000000
         H            1.923009056309    -1.493955973304    -1.035047494058     1.007825032230
         H            2.096961056309     0.267152026696    -1.205552494058     1.007825032230
         H            0.017725056309    -2.411793973304    -0.331714494058     1.007825032230
         H            2.456068056309     0.505236026696     1.231900505942     1.007825032230
         H            2.279754056309    -1.253355973304     1.456499505942     1.007825032230
         H            3.662956056309    -0.604475973304     0.552581505942     1.007825032230
         H           -1.875221943691     2.094033026696     0.306625505942     1.007825032230
         H           -2.421692943691    -2.197502973304     0.160202505942     1.007825032230
         H           -3.376593943691     0.124523026696     0.479638505942     1.007825032230

  Basis Set: AUG-CC-PVTZ
    Blend: AUG-CC-PVTZ
  Basis Set: (AUG-CC-PVTZ AUX)
    Blend: AUG-CC-PVTZ-JKFIT
	 Reference Energy          =    -399.7685900373373329 [Eh]
	 Singles Energy            =      -0.0000000000000000 [Eh]
	 Same-Spin Energy          =      -0.4235778138784826 [Eh]
	 Opposite-Spin Energy      =      -1.3401599019439461 [Eh]
	 Correlation Energy        =      -1.7637377158224288 [Eh]
	 Total Energy              =    -401.5323277531597341 [Eh]

	 ================> DF-SCS-MP2 Energies <==================
	-----------------------------------------------------------
	 SCS Same-Spin Scale       =       0.3333333333333333 [-]
	 SCS Opposite-Spin Scale   =       1.2000000000000000 [-]
	 SCS Same-Spin Energy      =      -0.1411926046261609 [Eh]
	 SCS Opposite-Spin Energy  =      -1.6081918823327352 [Eh]
	 SCS Correlation Energy    =      -1.7493844869588961 [Eh]
	 SCS Total Energy          =    -401.5179745242962213 [Eh]
	-----------------------------------------------------------

  Dipole Moment: [D]
     X:    -0.7309      Y:    -3.8325      Z:     0.0848     Total:     3.9025

*** Psi4 exiting successfully. Buy a developer a beer!
