                               Psi4 1.3.2 release

  ==> Input File <==

--------------------------------------------------------------------------
#psi4
#
memory 32 gb

molecule  {
0 1
  O        0.6831730     1.9514370    -0.1851230
  N        0.3221270    -0.3206750    -0.2979720
  C        1.7580560    -0.4955670    -0.5492050
  C       -0.1211040     1.0090560    -0.1118080
  C       -0.4973450    -1.4105120    -0.1972350
  C        2.5603930    -0.4317450     0.7423750
  C       -1.5906511     1.1454282    -0.1416473
  C       -1.8319680    -1.2780450     0.0712850
  C       -2.3551590     0.0280850     0.2487950
  H        1.8855710    -1.4559800    -1.0561060
  H        2.0595230     0.3051280    -1.2266110
  H       -0.0197130    -2.3738180    -0.3527730
  H        2.4186300     0.5432120     1.2108420
  H        2.2423160    -1.2153800     1.4354410
  H        3.6255180    -0.5665000     0.5315230
  H       -1.9126600     2.1320090     0.2855670
  H       -2.4591310    -2.1595270     0.1391440
  H       -3.4140320     0.1624990     0.4585800
units angstrom
no_reorient  #important for SAPT in psi4, default
symmetry c1  #important for SAPT in psi4, default
}

set PROPERTIES_ORIGIN ["COM"]
properties('MP2/aug-cc-pvtz', properties = ['dipole'])
--------------------------------------------------------------------------

    Molecular point group: c1
  Charge       = 0
  Multiplicity = 1
  Basis Set: AUG-CC-PVTZ
    Blend: AUG-CC-PVTZ
  Basis Set: (AUG-CC-PVTZ AUX)
    Blend: AUG-CC-PVTZ-JKFIT

    Orbital Energies [Eh]
    ---------------------

    Doubly Occupied:

       1A    -20.508062     2A    -15.626784     3A    -11.352556
       4A    -11.314292     5A    -11.279784     6A    -11.274962
       7A    -11.242106     8A    -11.241223     9A    -11.221887
      10A     -1.369446    11A     -1.279714    12A     -1.115741
      13A     -1.028223    14A     -1.017141    15A     -0.893887
      16A     -0.869127    17A     -0.822834    18A     -0.714035
      19A     -0.693707    20A     -0.666963    21A     -0.635274
      22A     -0.615798    23A     -0.607083    24A     -0.599845
      25A     -0.559926    26A     -0.536526    27A     -0.528902
      28A     -0.521326    29A     -0.503476    30A     -0.474833
      31A     -0.418311    32A     -0.404286    33A     -0.310741

  @DF-RHF Final Energy:  -399.74596239272734

   => Energetics <=

    Nuclear Repulsion Energy =            436.1954663690953566
    One-Electron Energy =               -1407.3852636516978691
    Two-Electron Energy =                 571.4438348898752338
    Total Energy =                       -399.7459623927272787
  Basis Set: (AUG-CC-PVTZ AUX)
    Blend: AUG-CC-PVTZ-RI
    Molecular point group: c1

    Geometry (in Angstrom), charge = 0, multiplicity = 1:

       Center              X                  Y                   Z               Mass
    ------------   -----------------  -----------------  -----------------  -----------------
         O            0.724082111037     1.911959276619    -0.144933388642    15.994914619570
         N            0.363036111037    -0.360152723381    -0.257782388642    14.003074004430
         C            1.798965111037    -0.535044723381    -0.509015388642    12.000000000000
         C           -0.080194888963     0.969578276619    -0.071618388642    12.000000000000
         C           -0.456435888963    -1.449989723381    -0.157045388642    12.000000000000
         C            2.601302111037    -0.471222723381     0.782564611358    12.000000000000
         C           -1.549741988963     1.105950476619    -0.101457688642    12.000000000000
         C           -1.791058888963    -1.317522723381     0.111474611358    12.000000000000
         C           -2.314249888963    -0.011392723381     0.288984611358    12.000000000000
         H            1.926480111037    -1.495457723381    -1.015916388642     1.007825032230
         H            2.100432111037     0.265650276619    -1.186421388642     1.007825032230
         H            0.021196111037    -2.413295723381    -0.312583388642     1.007825032230
         H            2.459539111037     0.503734276619     1.251031611358     1.007825032230
         H            2.283225111037    -1.254857723381     1.475630611358     1.007825032230
         H            3.666427111037    -0.605977723381     0.571712611358     1.007825032230
         H           -1.871750888963     2.092531276619     0.325756611358     1.007825032230
         H           -2.418221888963    -2.199004723381     0.179333611358     1.007825032230
         H           -3.373122888963     0.123021276619     0.498769611358     1.007825032230

  Basis Set: AUG-CC-PVTZ
    Blend: AUG-CC-PVTZ
  Basis Set: (AUG-CC-PVTZ AUX)
    Blend: AUG-CC-PVTZ-JKFIT
	 Reference Energy          =    -399.7459623927273356 [Eh]
	 Singles Energy            =      -0.0000000000000000 [Eh]
	 Same-Spin Energy          =      -0.4243926914510495 [Eh]
	 Opposite-Spin Energy      =      -1.3429151393829666 [Eh]
	 Correlation Energy        =      -1.7673078308340160 [Eh]
	 Total Energy              =    -401.5132702235613351 [Eh]

	 ================> DF-SCS-MP2 Energies <==================
	-----------------------------------------------------------
	 SCS Same-Spin Scale       =       0.3333333333333333 [-]
	 SCS Opposite-Spin Scale   =       1.2000000000000000 [-]
	 SCS Same-Spin Energy      =      -0.1414642304836832 [Eh]
	 SCS Opposite-Spin Energy  =      -1.6114981672595599 [Eh]
	 SCS Correlation Energy    =      -1.7529623977432429 [Eh]
	 SCS Total Energy          =    -401.4989247904705962 [Eh]
	-----------------------------------------------------------

  Dipole Moment: [D]
     X:    -0.5797      Y:    -3.9493      Z:     0.1877     Total:     3.9960

*** Psi4 exiting successfully. Buy a developer a beer!
