                               Psi4 1.3.2 release

  ==> Input File <==

--------------------------------------------------------------------------
#psi4
#
memory 32 gb

molecule  {
0 1
  O        0.6831730     1.9514370    -0.1851230
  N        0.3221270    -0.3206750    -0.2979720
  C        1.7580560    -0.4955670    -0.5492050
  C       -0.1211040     1.0090560    -0.1118080
  C       -0.4973450    -1.4105120    -0.1972350
  C        2.5603930    -0.4317450     0.7423750
  C       -1.5372540     1.1223260     0.1526570
  C       -1.8319680    -1.2780450     0.0712850
  C       -2.3551590     0.0280850     0.2487950
  H        1.8855710    -1.4559800    -1.0561060
  H        2.0595230     0.3051280    -1.2266110
  H       -0.0197130    -2.3738180    -0.3527730
  H        2.4186300     0.5432120     1.2108420
  H        2.2423160    -1.2153800     1.4354410
  H        3.6255180    -0.5665000     0.5315230
  H       -1.9126600     2.1320090     0.2855670
  H       -2.4591310    -2.1595270     0.1391440
  H       -3.4328977     0.1681389     0.3605378
units angstrom
no_reorient  #important for SAPT in psi4, default
symmetry c1  #important for SAPT in psi4, default
}

set PROPERTIES_ORIGIN ["COM"]
properties('MP2/aug-cc-pvtz', properties = ['dipole'])
--------------------------------------------------------------------------

    Molecular point group: c1
  Charge       = 0
  Multiplicity = 1
  Basis Set: AUG-CC-PVTZ
    Blend: AUG-CC-PVTZ
  Basis Set: (AUG-CC-PVTZ AUX)
    Blend: AUG-CC-PVTZ-JKFIT

    Orbital Energies [Eh]
    ---------------------

    Doubly Occupied:

       1A    -20.506269     2A    -15.625502     3A    -11.349901
       4A    -11.308828     5A    -11.273819     6A    -11.271028
       7A    -11.240168     8A    -11.237179     9A    -11.221146
      10A     -1.369061    11A     -1.278321    12A     -1.119060
      13A     -1.031335    14A     -1.018007    15A     -0.895441
      16A     -0.870377    17A     -0.824616    18A     -0.714138
      19A     -0.700469    20A     -0.667266    21A     -0.640239
      22A     -0.612692    23A     -0.607406    24A     -0.605311
      25A     -0.561118    26A     -0.538778    27A     -0.528905
      28A     -0.525903    29A     -0.505557    30A     -0.474815
      31A     -0.421811    32A     -0.407059    33A     -0.308799

  @DF-RHF Final Energy:  -399.77084935359647

   => Energetics <=

    Nuclear Repulsion Energy =            437.4138296732995173
    One-Electron Energy =               -1409.8487101250652813
    Two-Electron Energy =                 572.6640310981694029
    Total Energy =                       -399.7708493535964180
  Basis Set: (AUG-CC-PVTZ AUX)
    Blend: AUG-CC-PVTZ-RI
    Molecular point group: c1

    Geometry (in Angstrom), charge = 0, multiplicity = 1:

       Center              X                  Y                   Z               Mass
    ------------   -----------------  -----------------  -----------------  -----------------
         O            0.719030027765     1.914165710902    -0.172827160142    15.994914619570
         N            0.357984027765    -0.357946289098    -0.285676160142    14.003074004430
         C            1.793913027765    -0.532838289098    -0.536909160142    12.000000000000
         C           -0.085246972235     0.971784710902    -0.099512160142    12.000000000000
         C           -0.461487972235    -1.447783289098    -0.184939160142    12.000000000000
         C            2.596250027765    -0.469016289098     0.754670839858    12.000000000000
         C           -1.501396972235     1.085054710902     0.164952839858    12.000000000000
         C           -1.796110972235    -1.315316289098     0.083580839858    12.000000000000
         C           -2.319301972235    -0.009186289098     0.261090839858    12.000000000000
         H            1.921428027765    -1.493251289098    -1.043810160142     1.007825032230
         H            2.095380027765     0.267856710902    -1.214315160142     1.007825032230
         H            0.016144027765    -2.411089289098    -0.340477160142     1.007825032230
         H            2.454487027765     0.505940710902     1.223137839858     1.007825032230
         H            2.278173027765    -1.252651289098     1.447736839858     1.007825032230
         H            3.661375027765    -0.603771289098     0.543818839858     1.007825032230
         H           -1.876802972235     2.094737710902     0.297862839858     1.007825032230
         H           -2.423273972235    -2.196798289098     0.151439839858     1.007825032230
         H           -3.397040672235     0.130867610902     0.372833639858     1.007825032230

  Basis Set: AUG-CC-PVTZ
    Blend: AUG-CC-PVTZ
  Basis Set: (AUG-CC-PVTZ AUX)
    Blend: AUG-CC-PVTZ-JKFIT
	 Reference Energy          =    -399.7708493535964749 [Eh]
	 Singles Energy            =      -0.0000000000000000 [Eh]
	 Same-Spin Energy          =      -0.4234937093022816 [Eh]
	 Opposite-Spin Energy      =      -1.3399331704075292 [Eh]
	 Correlation Energy        =      -1.7634268797098109 [Eh]
	 Total Energy              =    -401.5342762333062865 [Eh]

	 ================> DF-SCS-MP2 Energies <==================
	-----------------------------------------------------------
	 SCS Same-Spin Scale       =       0.3333333333333333 [-]
	 SCS Opposite-Spin Scale   =       1.2000000000000000 [-]
	 SCS Same-Spin Energy      =      -0.1411645697674272 [Eh]
	 SCS Opposite-Spin Energy  =      -1.6079198044890350 [Eh]
	 SCS Correlation Energy    =      -1.7490843742564621 [Eh]
	 SCS Total Energy          =    -401.5199337278529583 [Eh]
	-----------------------------------------------------------

  Dipole Moment: [D]
     X:    -0.7614      Y:    -3.8090      Z:    -0.0285     Total:     3.8844

*** Psi4 exiting successfully. Buy a developer a beer!
