                               Psi4 1.3.2 release

  ==> Input File <==

--------------------------------------------------------------------------
#psi4
#
memory 32 gb

molecule  {
0 1
  O        0.6831730     1.9514370    -0.1851230
  N        0.3221270    -0.3206750    -0.2979720
  C        1.7580560    -0.4955670    -0.5492050
  C       -0.1211040     1.0090560    -0.1118080
  C       -0.4973450    -1.4105120    -0.1972350
  C        2.5603930    -0.4317450     0.7423750
  C       -1.5372540     1.1223260     0.1526570
  C       -1.8319680    -1.2780450     0.0712850
  C       -2.3551590     0.0280850     0.2487950
  H        1.8855710    -1.4559800    -1.0561060
  H        2.0595230     0.3051280    -1.2266110
  H       -0.0197130    -2.3738180    -0.3527730
  H        2.4186300     0.5432120     1.2108420
  H        2.2423160    -1.2153800     1.4354410
  H        3.6255180    -0.5665000     0.5315230
  H       -1.9309456     2.1375704     0.1874105
  H       -2.4591310    -2.1595270     0.1391440
  H       -3.4140320     0.1624990     0.4585800
units angstrom
no_reorient  #important for SAPT in psi4, default
symmetry c1  #important for SAPT in psi4, default
}

set PROPERTIES_ORIGIN ["COM"]
properties('MP2/aug-cc-pvtz', properties = ['dipole'])
--------------------------------------------------------------------------

    Molecular point group: c1
  Charge       = 0
  Multiplicity = 1
  Basis Set: AUG-CC-PVTZ
    Blend: AUG-CC-PVTZ
  Basis Set: (AUG-CC-PVTZ AUX)
    Blend: AUG-CC-PVTZ-JKFIT

    Orbital Energies [Eh]
    ---------------------

    Doubly Occupied:

       1A    -20.506273     2A    -15.625501     3A    -11.349898
       4A    -11.308878     5A    -11.273820     6A    -11.270632
       7A    -11.240167     8A    -11.237425     9A    -11.221118
      10A     -1.369049    11A     -1.278323    12A     -1.119098
      13A     -1.031298    14A     -1.017992    15A     -0.895590
      16A     -0.870188    17A     -0.824864    18A     -0.714156
      19A     -0.700459    20A     -0.666943    21A     -0.640606
      22A     -0.613087    23A     -0.607392    24A     -0.605527
      25A     -0.560533    26A     -0.537303    27A     -0.530846
      28A     -0.525194    29A     -0.505851    30A     -0.474939
      31A     -0.420948    32A     -0.407725    33A     -0.308738

  @DF-RHF Final Energy:  -399.77094688877054

   => Energetics <=

    Nuclear Repulsion Energy =            437.4131852545684183
    One-Electron Energy =               -1409.8475386644277023
    Two-Electron Energy =                 572.6634065210887456
    Total Energy =                       -399.7709468887705953
  Basis Set: (AUG-CC-PVTZ AUX)
    Blend: AUG-CC-PVTZ-RI
    Molecular point group: c1

    Geometry (in Angstrom), charge = 0, multiplicity = 1:

       Center              X                  Y                   Z               Mass
    ------------   -----------------  -----------------  -----------------  -----------------
         O            0.719025277242     1.914166353750    -0.172826224123    15.994914619570
         N            0.357979277242    -0.357945646250    -0.285675224123    14.003074004430
         C            1.793908277242    -0.532837646250    -0.536908224123    12.000000000000
         C           -0.085251722758     0.971785353750    -0.099511224123    12.000000000000
         C           -0.461492722758    -1.447782646250    -0.184938224123    12.000000000000
         C            2.596245277242    -0.469015646250     0.754671775877    12.000000000000
         C           -1.501401722758     1.085055353750     0.164953775877    12.000000000000
         C           -1.796115722758    -1.315315646250     0.083581775877    12.000000000000
         C           -2.319306722758    -0.009185646250     0.261091775877    12.000000000000
         H            1.921423277242    -1.493250646250    -1.043809224123     1.007825032230
         H            2.095375277242     0.267857353750    -1.214314224123     1.007825032230
         H            0.016139277242    -2.411088646250    -0.340476224123     1.007825032230
         H            2.454482277242     0.505941353750     1.223138775877     1.007825032230
         H            2.278168277242    -1.252650646250     1.447737775877     1.007825032230
         H            3.661370277242    -0.603770646250     0.543819775877     1.007825032230
         H           -1.895093322758     2.100299753750     0.199707275877     1.007825032230
         H           -2.423278722758    -2.196797646250     0.151440775877     1.007825032230
         H           -3.378179722758     0.125228353750     0.470876775877     1.007825032230

  Basis Set: AUG-CC-PVTZ
    Blend: AUG-CC-PVTZ
  Basis Set: (AUG-CC-PVTZ AUX)
    Blend: AUG-CC-PVTZ-JKFIT
	 Reference Energy          =    -399.7709468887705384 [Eh]
	 Singles Energy            =      -0.0000000000000000 [Eh]
	 Same-Spin Energy          =      -0.4234812042749329 [Eh]
	 Opposite-Spin Energy      =      -1.3398860364452498 [Eh]
	 Correlation Energy        =      -1.7633672407201828 [Eh]
	 Total Energy              =    -401.5343141294907241 [Eh]

	 ================> DF-SCS-MP2 Energies <==================
	-----------------------------------------------------------
	 SCS Same-Spin Scale       =       0.3333333333333333 [-]
	 SCS Opposite-Spin Scale   =       1.2000000000000000 [-]
	 SCS Same-Spin Energy      =      -0.1411604014249776 [Eh]
	 SCS Opposite-Spin Energy  =      -1.6078632437342997 [Eh]
	 SCS Correlation Energy    =      -1.7490236451592773 [Eh]
	 SCS Total Energy          =    -401.5199705339298362 [Eh]
	-----------------------------------------------------------

  Dipole Moment: [D]
     X:    -0.7658      Y:    -3.8122      Z:    -0.0299     Total:     3.8884

*** Psi4 exiting successfully. Buy a developer a beer!
