                               Psi4 1.3.2 release

  ==> Input File <==

--------------------------------------------------------------------------
#psi4
#
memory 32 gb

molecule  {
0 1
  O        0.6831730     1.9514370    -0.1851230
  N        0.3221270    -0.3206750    -0.2979720
  C        1.7580560    -0.4955670    -0.5492050
  C       -0.1211040     1.0090560    -0.1118080
  C       -0.4973450    -1.4105120    -0.1972350
  C        2.5603930    -0.4317450     0.7423750
  C       -1.5372540     1.1223260     0.1526570
  C       -1.8319680    -1.2780450     0.0712850
  C       -2.3551590     0.0280850     0.2487950
  H        1.8855710    -1.4559800    -1.0561060
  H        2.0595230     0.3051280    -1.2266110
  H       -0.0197130    -2.3738180    -0.3527730
  H        2.4186300     0.5432120     1.2108420
  H        2.2423160    -1.2153800     1.4354410
  H        3.6255180    -0.5665000     0.5315230
  H       -1.9126600     2.1320090     0.2855670
  H       -2.4020574    -2.1769761     0.4331476
  H       -3.4140320     0.1624990     0.4585800
units angstrom
no_reorient  #important for SAPT in psi4, default
symmetry c1  #important for SAPT in psi4, default
}

set PROPERTIES_ORIGIN ["COM"]
properties('MP2/aug-cc-pvtz', properties = ['dipole'])
--------------------------------------------------------------------------

    Molecular point group: c1
  Charge       = 0
  Multiplicity = 1
  Basis Set: AUG-CC-PVTZ
    Blend: AUG-CC-PVTZ
  Basis Set: (AUG-CC-PVTZ AUX)
    Blend: AUG-CC-PVTZ-JKFIT

    Orbital Energies [Eh]
    ---------------------

    Doubly Occupied:

       1A    -20.507086     2A    -15.626288     3A    -11.350526
       4A    -11.310122     5A    -11.274312     6A    -11.270692
       7A    -11.243186     8A    -11.237212     9A    -11.221734
      10A     -1.369763    11A     -1.279059    12A     -1.118963
      13A     -1.031700    14A     -1.017599    15A     -0.895921
      16A     -0.869979    17A     -0.824195    18A     -0.713147
      19A     -0.698616    20A     -0.667768    21A     -0.637633
      22A     -0.614252    23A     -0.607669    24A     -0.604435
      25A     -0.561396    26A     -0.534850    27A     -0.529047
      28A     -0.526349    29A     -0.507050    30A     -0.473421
      31A     -0.421854    32A     -0.407582    33A     -0.309100

  @DF-RHF Final Energy:  -399.76587088198079

   => Energetics <=

    Nuclear Repulsion Energy =            437.2975518398889108
    One-Electron Energy =               -1409.6018352737937676
    Two-Electron Energy =                 572.5384125519241252
    Total Energy =                       -399.7658708819807316
  Basis Set: (AUG-CC-PVTZ AUX)
    Blend: AUG-CC-PVTZ-RI
    Molecular point group: c1

    Geometry (in Angstrom), charge = 0, multiplicity = 1:

       Center              X                  Y                   Z               Mass
    ------------   -----------------  -----------------  -----------------  -----------------
         O            0.718408149859     1.914354790061    -0.176037679872    15.994914619570
         N            0.357362149859    -0.357757209939    -0.288886679872    14.003074004430
         C            1.793291149859    -0.532649209939    -0.540119679872    12.000000000000
         C           -0.085868850141     0.971973790061    -0.102722679872    12.000000000000
         C           -0.462109850141    -1.447594209939    -0.188149679872    12.000000000000
         C            2.595628149859    -0.468827209939     0.751460320128    12.000000000000
         C           -1.502018850141     1.085243790061     0.161742320128    12.000000000000
         C           -1.796732850141    -1.315127209939     0.080370320128    12.000000000000
         C           -2.319923850141    -0.008997209939     0.257880320128    12.000000000000
         H            1.920806149859    -1.493062209939    -1.047020679872     1.007825032230
         H            2.094758149859     0.268045790061    -1.217525679872     1.007825032230
         H            0.015522149859    -2.410900209939    -0.343687679872     1.007825032230
         H            2.453865149859     0.506129790061     1.219927320128     1.007825032230
         H            2.277551149859    -1.252462209939     1.444526320128     1.007825032230
         H            3.660753149859    -0.603582209939     0.540608320128     1.007825032230
         H           -1.877424850141     2.094926790061     0.294652320128     1.007825032230
         H           -2.366822250141    -2.214058309939     0.442232920128     1.007825032230
         H           -3.378796850141     0.125416790061     0.467665320128     1.007825032230

  Basis Set: AUG-CC-PVTZ
    Blend: AUG-CC-PVTZ
  Basis Set: (AUG-CC-PVTZ AUX)
    Blend: AUG-CC-PVTZ-JKFIT
	 Reference Energy          =    -399.7658708819807885 [Eh]
	 Singles Energy            =      -0.0000000000000000 [Eh]
	 Same-Spin Energy          =      -0.4236150708137135 [Eh]
	 Opposite-Spin Energy      =      -1.3403810221129495 [Eh]
	 Correlation Energy        =      -1.7639960929266629 [Eh]
	 Total Energy              =    -401.5298669749074634 [Eh]

	 ================> DF-SCS-MP2 Energies <==================
	-----------------------------------------------------------
	 SCS Same-Spin Scale       =       0.3333333333333333 [-]
	 SCS Opposite-Spin Scale   =       1.2000000000000000 [-]
	 SCS Same-Spin Energy      =      -0.1412050236045712 [Eh]
	 SCS Opposite-Spin Energy  =      -1.6084572265355395 [Eh]
	 SCS Correlation Energy    =      -1.7496622501401107 [Eh]
	 SCS Total Energy          =    -401.5155331321208791 [Eh]
	-----------------------------------------------------------

  Dipole Moment: [D]
     X:    -0.6536      Y:    -3.7593      Z:     0.2349     Total:     3.8229

*** Psi4 exiting successfully. Buy a developer a beer!
