                               Psi4 1.3.2 release

  ==> Input File <==

--------------------------------------------------------------------------
#psi4
#
memory 32 gb

molecule  {
0 1
  O        0.6831730     1.9514370    -0.1851230
  N        0.3221270    -0.3206750    -0.2979720
  C        1.7580560    -0.4955670    -0.5492050
  C       -0.1211040     1.0090560    -0.1118080
  C       -0.4973450    -1.4105120    -0.1972350
  C        2.5603930    -0.4317450     0.7423750
  C       -1.5728521     1.1377275    -0.0435459
  C       -1.8319680    -1.2780450     0.0712850
  C       -2.3551590     0.0280850     0.2487950
  H        1.8855710    -1.4559800    -1.0561060
  H        2.0595230     0.3051280    -1.2266110
  H       -0.0197130    -2.3738180    -0.3527730
  H        2.4186300     0.5432120     1.2108420
  H        2.2423160    -1.2153800     1.4354410
  H        3.6255180    -0.5665000     0.5315230
  H       -1.9126600     2.1320090     0.2855670
  H       -2.4591310    -2.1595270     0.1391440
  H       -3.4140320     0.1624990     0.4585800
units angstrom
no_reorient  #important for SAPT in psi4, default
symmetry c1  #important for SAPT in psi4, default
}

set PROPERTIES_ORIGIN ["COM"]
properties('MP2/aug-cc-pvtz', properties = ['dipole'])
--------------------------------------------------------------------------

    Molecular point group: c1
  Charge       = 0
  Multiplicity = 1
  Basis Set: AUG-CC-PVTZ
    Blend: AUG-CC-PVTZ
  Basis Set: (AUG-CC-PVTZ AUX)
    Blend: AUG-CC-PVTZ-JKFIT

    Orbital Energies [Eh]
    ---------------------

    Doubly Occupied:

       1A    -20.506960     2A    -15.626116     3A    -11.351076
       4A    -11.311320     5A    -11.275065     6A    -11.274352
       7A    -11.240641     8A    -11.239444     9A    -11.221443
      10A     -1.369158    11A     -1.278918    12A     -1.117325
      13A     -1.029780    14A     -1.017782    15A     -0.894690
      16A     -0.869806    17A     -0.823947    18A     -0.714115
      19A     -0.697082    20A     -0.667359    21A     -0.636681
      22A     -0.616033    23A     -0.607080    24A     -0.602266
      25A     -0.560355    26A     -0.538213    27A     -0.528491
      28A     -0.524513    29A     -0.504610    30A     -0.474875
      31A     -0.419759    32A     -0.406009    33A     -0.309622

  @DF-RHF Final Energy:  -399.76015470969281

   => Energetics <=

    Nuclear Repulsion Energy =            436.8230972560457417
    One-Electron Energy =               -1408.6567267346340486
    Two-Electron Energy =                 572.0734747688954940
    Total Energy =                       -399.7601547096928698
  Basis Set: (AUG-CC-PVTZ AUX)
    Blend: AUG-CC-PVTZ-RI
    Molecular point group: c1

    Geometry (in Angstrom), charge = 0, multiplicity = 1:

       Center              X                  Y                   Z               Mass
    ------------   -----------------  -----------------  -----------------  -----------------
         O            0.722346588548     1.912710146782    -0.154498936475    15.994914619570
         N            0.361300588548    -0.359401853218    -0.267347936475    14.003074004430
         C            1.797229588548    -0.534293853218    -0.518580936475    12.000000000000
         C           -0.081930411452     0.970329146782    -0.081183936475    12.000000000000
         C           -0.458171411452    -1.449238853218    -0.166610936475    12.000000000000
         C            2.599566588548    -0.470471853218     0.772999063525    12.000000000000
         C           -1.533678511452     1.099000646782    -0.012921836475    12.000000000000
         C           -1.792794411452    -1.316771853218     0.101909063525    12.000000000000
         C           -2.315985411452    -0.010641853218     0.279419063525    12.000000000000
         H            1.924744588548    -1.494706853218    -1.025481936475     1.007825032230
         H            2.098696588548     0.266401146782    -1.195986936475     1.007825032230
         H            0.019460588548    -2.412544853218    -0.322148936475     1.007825032230
         H            2.457803588548     0.504485146782     1.241466063525     1.007825032230
         H            2.281489588548    -1.254106853218     1.466065063525     1.007825032230
         H            3.664691588548    -0.605226853218     0.562147063525     1.007825032230
         H           -1.873486411452     2.093282146782     0.316191063525     1.007825032230
         H           -2.419957411452    -2.198253853218     0.169768063525     1.007825032230
         H           -3.374858411452     0.123772146782     0.489204063525     1.007825032230

  Basis Set: AUG-CC-PVTZ
    Blend: AUG-CC-PVTZ
  Basis Set: (AUG-CC-PVTZ AUX)
    Blend: AUG-CC-PVTZ-JKFIT
	 Reference Energy          =    -399.7601547096928130 [Eh]
	 Singles Energy            =      -0.0000000000000000 [Eh]
	 Same-Spin Energy          =      -0.4238944480301650 [Eh]
	 Opposite-Spin Energy      =      -1.3411842722046456 [Eh]
	 Correlation Energy        =      -1.7650787202348106 [Eh]
	 Total Energy              =    -401.5252334299275958 [Eh]

	 ================> DF-SCS-MP2 Energies <==================
	-----------------------------------------------------------
	 SCS Same-Spin Scale       =       0.3333333333333333 [-]
	 SCS Opposite-Spin Scale   =       1.2000000000000000 [-]
	 SCS Same-Spin Energy      =      -0.1412981493433883 [Eh]
	 SCS Opposite-Spin Energy  =      -1.6094211266455747 [Eh]
	 SCS Correlation Energy    =      -1.7507192759889629 [Eh]
	 SCS Total Energy          =    -401.5108739856817692 [Eh]
	-----------------------------------------------------------

  Dipole Moment: [D]
     X:    -0.6719      Y:    -3.8785      Z:     0.1356     Total:     3.9386

*** Psi4 exiting successfully. Buy a developer a beer!
