                               Psi4 1.3.2 release

  ==> Input File <==

--------------------------------------------------------------------------
#psi4
#
memory 32 gb

molecule  {
0 1
  O        0.6831730     1.9514370    -0.1851230
  N        0.3221270    -0.3206750    -0.2979720
  C        1.7580560    -0.4955670    -0.5492050
  C       -0.1211040     1.0090560    -0.1118080
  C       -0.4973450    -1.4105120    -0.1972350
  C        2.5603930    -0.4317450     0.7423750
  C       -1.5372540     1.1223260     0.1526570
  C       -1.8319680    -1.2780450     0.0712850
  C       -2.3551590     0.0280850     0.2487950
  H        1.8855710    -1.4559800    -1.0561060
  H        2.0595230     0.3051280    -1.2266110
  H       -0.0197130    -2.3738180    -0.3527730
  H        2.4186300     0.5432120     1.2108420
  H        2.2423160    -1.2153800     1.4354410
  H        3.6255180    -0.5665000     0.5315230
  H       -1.9126600     2.1320090     0.2855670
  H       -2.4496187    -2.1624352     0.1881446
  H       -3.4140320     0.1624990     0.4585800
units angstrom
no_reorient  #important for SAPT in psi4, default
symmetry c1  #important for SAPT in psi4, default
}

set PROPERTIES_ORIGIN ["COM"]
properties('MP2/aug-cc-pvtz', properties = ['dipole'])
--------------------------------------------------------------------------

    Molecular point group: c1
  Charge       = 0
  Multiplicity = 1
  Basis Set: AUG-CC-PVTZ
    Blend: AUG-CC-PVTZ
  Basis Set: (AUG-CC-PVTZ AUX)
    Blend: AUG-CC-PVTZ-JKFIT

    Orbital Energies [Eh]
    ---------------------

    Doubly Occupied:

       1A    -20.506231     2A    -15.625492     3A    -11.349859
       4A    -11.308869     5A    -11.273816     6A    -11.270588
       7A    -11.240217     8A    -11.237059     9A    -11.221171
      10A     -1.369029    11A     -1.278308    12A     -1.119094
      13A     -1.031368    14A     -1.017982    15A     -0.895624
      16A     -0.870337    17A     -0.824834    18A     -0.714329
      19A     -0.700439    20A     -0.667470    21A     -0.639638
      22A     -0.613831    23A     -0.607392    24A     -0.605482
      25A     -0.560817    26A     -0.538033    27A     -0.529696
      28A     -0.525863    29A     -0.505815    30A     -0.474825
      31A     -0.421153    32A     -0.407708    33A     -0.308768

  @DF-RHF Final Energy:  -399.77138363197759

   => Energetics <=

    Nuclear Repulsion Energy =            437.4329562480583036
    One-Electron Energy =               -1409.8864030703846311
    Two-Electron Energy =                 572.6820631903486856
    Total Energy =                       -399.7713836319776419
  Basis Set: (AUG-CC-PVTZ AUX)
    Blend: AUG-CC-PVTZ-RI
    Molecular point group: c1

    Geometry (in Angstrom), charge = 0, multiplicity = 1:

       Center              X                  Y                   Z               Mass
    ------------   -----------------  -----------------  -----------------  -----------------
         O            0.718797636221     1.914235712529    -0.174031314888    15.994914619570
         N            0.357751636221    -0.357876287471    -0.286880314888    14.003074004430
         C            1.793680636221    -0.532768287471    -0.538113314888    12.000000000000
         C           -0.085479363779     0.971854712529    -0.100716314888    12.000000000000
         C           -0.461720363779    -1.447713287471    -0.186143314888    12.000000000000
         C            2.596017636221    -0.468946287471     0.753466685112    12.000000000000
         C           -1.501629363779     1.085124712529     0.163748685112    12.000000000000
         C           -1.796343363779    -1.315246287471     0.082376685112    12.000000000000
         C           -2.319534363779    -0.009116287471     0.259886685112    12.000000000000
         H            1.921195636221    -1.493181287471    -1.045014314888     1.007825032230
         H            2.095147636221     0.267926712529    -1.215519314888     1.007825032230
         H            0.015911636221    -2.411019287471    -0.341681314888     1.007825032230
         H            2.454254636221     0.506010712529     1.221933685112     1.007825032230
         H            2.277940636221    -1.252581287471     1.446532685112     1.007825032230
         H            3.661142636221    -0.603701287471     0.542614685112     1.007825032230
         H           -1.877035363779     2.094807712529     0.296658685112     1.007825032230
         H           -2.413994063779    -2.199636487471     0.199236285112     1.007825032230
         H           -3.378407363779     0.125297712529     0.469671685112     1.007825032230

  Basis Set: AUG-CC-PVTZ
    Blend: AUG-CC-PVTZ
  Basis Set: (AUG-CC-PVTZ AUX)
    Blend: AUG-CC-PVTZ-JKFIT
	 Reference Energy          =    -399.7713836319775851 [Eh]
	 Singles Energy            =      -0.0000000000000000 [Eh]
	 Same-Spin Energy          =      -0.4234597143487653 [Eh]
	 Opposite-Spin Energy      =      -1.3398539581683435 [Eh]
	 Correlation Energy        =      -1.7633136725171088 [Eh]
	 Total Energy              =    -401.5346973044946708 [Eh]

	 ================> DF-SCS-MP2 Energies <==================
	-----------------------------------------------------------
	 SCS Same-Spin Scale       =       0.3333333333333333 [-]
	 SCS Opposite-Spin Scale   =       1.2000000000000000 [-]
	 SCS Same-Spin Energy      =      -0.1411532381162551 [Eh]
	 SCS Opposite-Spin Energy  =      -1.6078247498020122 [Eh]
	 SCS Correlation Energy    =      -1.7489779879182672 [Eh]
	 SCS Total Energy          =    -401.5203616198958798 [Eh]
	-----------------------------------------------------------

  Dipole Moment: [D]
     X:    -0.7495      Y:    -3.8140      Z:     0.0675     Total:     3.8876

*** Psi4 exiting successfully. Buy a developer a beer!
