                               Psi4 1.3.2 release

  ==> Input File <==

--------------------------------------------------------------------------
#psi4
#
memory 32 gb

molecule  {
0 1
  O        0.6831730     1.9514370    -0.1851230
  N        0.3221270    -0.3206750    -0.2979720
  C        1.7580560    -0.4955670    -0.5492050
  C       -0.1211040     1.0090560    -0.1118080
  C       -0.4973450    -1.4105120    -0.1972350
  C        2.5603930    -0.4317450     0.7423750
  C       -1.5372540     1.1223260     0.1526570
  C       -1.8319680    -1.2780450     0.0712850
  C       -2.3551590     0.0280850     0.2487950
  H        1.8855710    -1.4559800    -1.0561060
  H        2.0595230     0.3051280    -1.2266110
  H        0.0287449    -2.3884207    -0.1079494
  H        2.4186300     0.5432120     1.2108420
  H        2.2423160    -1.2153800     1.4354410
  H        3.6255180    -0.5665000     0.5315230
  H       -1.9126600     2.1320090     0.2855670
  H       -2.4591310    -2.1595270     0.1391440
  H       -3.4140320     0.1624990     0.4585800
units angstrom
no_reorient  #important for SAPT in psi4, default
symmetry c1  #important for SAPT in psi4, default
}

set PROPERTIES_ORIGIN ["COM"]
properties('MP2/aug-cc-pvtz', properties = ['dipole'])
--------------------------------------------------------------------------

    Molecular point group: c1
  Charge       = 0
  Multiplicity = 1
  Basis Set: AUG-CC-PVTZ
    Blend: AUG-CC-PVTZ
  Basis Set: (AUG-CC-PVTZ AUX)
    Blend: AUG-CC-PVTZ-JKFIT

    Orbital Energies [Eh]
    ---------------------

    Doubly Occupied:

       1A    -20.506460     2A    -15.625160     3A    -11.350052
       4A    -11.310959     5A    -11.273405     6A    -11.270902
       7A    -11.241003     8A    -11.237776     9A    -11.221319
      10A     -1.369115    11A     -1.278076    12A     -1.119412
      13A     -1.030825    14A     -1.017851    15A     -0.895671
      16A     -0.868501    17A     -0.824805    18A     -0.712969
      19A     -0.700386    20A     -0.663125    21A     -0.642579
      22A     -0.611537    23A     -0.606500    24A     -0.604544
      25A     -0.560879    26A     -0.539870    27A     -0.529348
      28A     -0.525724    29A     -0.505056    30A     -0.473667
      31A     -0.420973    32A     -0.407896    33A     -0.309023

  @DF-RHF Final Energy:  -399.76736970633073

   => Energetics <=

    Nuclear Repulsion Energy =            437.3627773157895149
    One-Electron Energy =               -1409.7495548889864949
    Two-Electron Energy =                 572.6194078668662542
    Total Energy =                       -399.7673697063306690
  Basis Set: (AUG-CC-PVTZ AUX)
    Blend: AUG-CC-PVTZ-RI
    Molecular point group: c1

    Geometry (in Angstrom), charge = 0, multiplicity = 1:

       Center              X                  Y                   Z               Mass
    ------------   -----------------  -----------------  -----------------  -----------------
         O            0.718478705072     1.914331480480    -0.175634937743    15.994914619570
         N            0.357432705072    -0.357780519520    -0.288483937743    14.003074004430
         C            1.793361705072    -0.532672519520    -0.539716937743    12.000000000000
         C           -0.085798294928     0.971950480480    -0.102319937743    12.000000000000
         C           -0.462039294928    -1.447617519520    -0.187746937743    12.000000000000
         C            2.595698705072    -0.468850519520     0.751863062257    12.000000000000
         C           -1.501948294928     1.085220480480     0.162145062257    12.000000000000
         C           -1.796662294928    -1.315150519520     0.080773062257    12.000000000000
         C           -2.319853294928    -0.009020519520     0.258283062257    12.000000000000
         H            1.920876705072    -1.493085519520    -1.046617937743     1.007825032230
         H            2.094828705072     0.268022480480    -1.217122937743     1.007825032230
         H            0.064050605072    -2.425526219520    -0.098461337743     1.007825032230
         H            2.453935705072     0.506106480480     1.220330062257     1.007825032230
         H            2.277621705072    -1.252485519520     1.444929062257     1.007825032230
         H            3.660823705072    -0.603605519520     0.541011062257     1.007825032230
         H           -1.877354294928     2.094903480480     0.295055062257     1.007825032230
         H           -2.423825294928    -2.196632519520     0.148632062257     1.007825032230
         H           -3.378726294928     0.125393480480     0.468068062257     1.007825032230

  Basis Set: AUG-CC-PVTZ
    Blend: AUG-CC-PVTZ
  Basis Set: (AUG-CC-PVTZ AUX)
    Blend: AUG-CC-PVTZ-JKFIT
	 Reference Energy          =    -399.7673697063307259 [Eh]
	 Singles Energy            =      -0.0000000000000000 [Eh]
	 Same-Spin Energy          =      -0.4237619771915272 [Eh]
	 Opposite-Spin Energy      =      -1.3405164768711186 [Eh]
	 Correlation Energy        =      -1.7642784540626457 [Eh]
	 Total Energy              =    -401.5316481603933880 [Eh]

	 ================> DF-SCS-MP2 Energies <==================
	-----------------------------------------------------------
	 SCS Same-Spin Scale       =       0.3333333333333333 [-]
	 SCS Opposite-Spin Scale   =       1.2000000000000000 [-]
	 SCS Same-Spin Energy      =      -0.1412539923971757 [Eh]
	 SCS Opposite-Spin Energy  =      -1.6086197722453424 [Eh]
	 SCS Correlation Energy    =      -1.7498737646425182 [Eh]
	 SCS Total Energy          =    -401.5172434709732556 [Eh]
	-----------------------------------------------------------

  Dipole Moment: [D]
     X:    -0.7568      Y:    -3.7767      Z:     0.1921     Total:     3.8566

*** Psi4 exiting successfully. Buy a developer a beer!
