                               Psi4 1.3.2 release

  ==> Input File <==

--------------------------------------------------------------------------
#psi4
#
memory 32 gb

molecule  {
0 1
  O        0.6831730     1.9514370    -0.1851230
  N        0.3221270    -0.3206750    -0.2979720
  C        1.7580560    -0.4955670    -0.5492050
  C       -0.1211040     1.0090560    -0.1118080
  C       -0.4973450    -1.4105120    -0.1972350
  C        2.5603930    -0.4317450     0.7423750
  C       -1.5372540     1.1223260     0.1526570
  C       -1.8319680    -1.2780450     0.0712850
  C       -2.3551590     0.0280850     0.2487950
  H        1.8855710    -1.4559800    -1.0561060
  H        2.0595230     0.3051280    -1.2266110
  H       -0.0197130    -2.3738180    -0.3527730
  H        2.4186300     0.5432120     1.2108420
  H        2.2423160    -1.2153800     1.4354410
  H        3.6255180    -0.5665000     0.5315230
  H       -1.9583741     2.1459125     0.0401757
  H       -2.4591310    -2.1595270     0.1391440
  H       -3.4140320     0.1624990     0.4585800
units angstrom
no_reorient  #important for SAPT in psi4, default
symmetry c1  #important for SAPT in psi4, default
}

set PROPERTIES_ORIGIN ["COM"]
properties('MP2/aug-cc-pvtz', properties = ['dipole'])
--------------------------------------------------------------------------

    Molecular point group: c1
  Charge       = 0
  Multiplicity = 1
  Basis Set: AUG-CC-PVTZ
    Blend: AUG-CC-PVTZ
  Basis Set: (AUG-CC-PVTZ AUX)
    Blend: AUG-CC-PVTZ-JKFIT

    Orbital Energies [Eh]
    ---------------------

    Doubly Occupied:

       1A    -20.506461     2A    -15.625702     3A    -11.350068
       4A    -11.309325     5A    -11.273953     6A    -11.271020
       7A    -11.240387     8A    -11.239315     9A    -11.221190
      10A     -1.369175    11A     -1.278529    12A     -1.119146
      13A     -1.031072    14A     -1.018055    15A     -0.895587
      16A     -0.869374    17A     -0.824872    18A     -0.713465
      19A     -0.700540    20A     -0.665511    21A     -0.640575
      22A     -0.611796    23A     -0.607334    24A     -0.605576
      25A     -0.560813    26A     -0.535395    27A     -0.531895
      28A     -0.523081    29A     -0.506259    30A     -0.475067
      31A     -0.420871    32A     -0.407245    33A     -0.308739

  @DF-RHF Final Energy:  -399.76758627180743

   => Energetics <=

    Nuclear Repulsion Energy =            437.3142011126851685
    One-Electron Energy =               -1409.6487937367035101
    Two-Electron Energy =                 572.5670063522109103
    Total Energy =                       -399.7675862718074313
  Basis Set: (AUG-CC-PVTZ AUX)
    Blend: AUG-CC-PVTZ-RI
    Molecular point group: c1

    Geometry (in Angstrom), charge = 0, multiplicity = 1:

       Center              X                  Y                   Z               Mass
    ------------   -----------------  -----------------  -----------------  -----------------
         O            0.719249893194     1.914098039087    -0.171620497062    15.994914619570
         N            0.358203893194    -0.358013960913    -0.284469497062    14.003074004430
         C            1.794132893194    -0.532905960913    -0.535702497062    12.000000000000
         C           -0.085027106806     0.971717039087    -0.098305497062    12.000000000000
         C           -0.461268106806    -1.447850960913    -0.183732497062    12.000000000000
         C            2.596469893194    -0.469083960913     0.755877502938    12.000000000000
         C           -1.501177106806     1.084987039087     0.166159502938    12.000000000000
         C           -1.795891106806    -1.315383960913     0.084787502938    12.000000000000
         C           -2.319082106806    -0.009253960913     0.262297502938    12.000000000000
         H            1.921647893194    -1.493318960913    -1.042603497062     1.007825032230
         H            2.095599893194     0.267789039087    -1.213108497062     1.007825032230
         H            0.016363893194    -2.411156960913    -0.339270497062     1.007825032230
         H            2.454706893194     0.505873039087     1.224344502938     1.007825032230
         H            2.278392893194    -1.252718960913     1.448943502938     1.007825032230
         H            3.661594893194    -0.603838960913     0.545025502938     1.007825032230
         H           -1.922297206806     2.108573539087     0.053678202938     1.007825032230
         H           -2.423054106806    -2.196865960913     0.152646502938     1.007825032230
         H           -3.377955106806     0.125160039087     0.472082502938     1.007825032230

  Basis Set: AUG-CC-PVTZ
    Blend: AUG-CC-PVTZ
  Basis Set: (AUG-CC-PVTZ AUX)
    Blend: AUG-CC-PVTZ-JKFIT
	 Reference Energy          =    -399.7675862718074313 [Eh]
	 Singles Energy            =      -0.0000000000000000 [Eh]
	 Same-Spin Energy          =      -0.4236195981290235 [Eh]
	 Opposite-Spin Energy      =      -1.3402084662378071 [Eh]
	 Correlation Energy        =      -1.7638280643668307 [Eh]
	 Total Energy              =    -401.5314143361742367 [Eh]

	 ================> DF-SCS-MP2 Energies <==================
	-----------------------------------------------------------
	 SCS Same-Spin Scale       =       0.3333333333333333 [-]
	 SCS Opposite-Spin Scale   =       1.2000000000000000 [-]
	 SCS Same-Spin Energy      =      -0.1412065327096745 [Eh]
	 SCS Opposite-Spin Energy  =      -1.6082501594853684 [Eh]
	 SCS Correlation Energy    =      -1.7494566921950430 [Eh]
	 SCS Total Energy          =    -401.5170429640024850 [Eh]
	-----------------------------------------------------------

  Dipole Moment: [D]
     X:    -0.7636      Y:    -3.8315      Z:    -0.1245     Total:     3.9089

*** Psi4 exiting successfully. Buy a developer a beer!
