                               Psi4 1.3.2 release

  ==> Input File <==

--------------------------------------------------------------------------
#psi4
#
memory 32 gb

molecule  {
0 1
  O        0.6831730     1.9514370    -0.1851230
  N        0.3221270    -0.3206750    -0.2979720
  C        1.7580560    -0.4955670    -0.5492050
  C       -0.1211040     1.0090560    -0.1118080
  C       -0.4973450    -1.4105120    -0.1972350
  C        2.5603930    -0.4317450     0.7423750
  C       -1.5372540     1.1223260     0.1526570
  C       -1.8319680    -1.2780450     0.0712850
  C       -2.3551590     0.0280850     0.2487950
  H        1.8855710    -1.4559800    -1.0561060
  H        2.0595230     0.3051280    -1.2266110
  H       -0.0003298    -2.3796591    -0.2548436
  H        2.4186300     0.5432120     1.2108420
  H        2.2423160    -1.2153800     1.4354410
  H        3.6255180    -0.5665000     0.5315230
  H       -1.9126600     2.1320090     0.2855670
  H       -2.4591310    -2.1595270     0.1391440
  H       -3.4140320     0.1624990     0.4585800
units angstrom
no_reorient  #important for SAPT in psi4, default
symmetry c1  #important for SAPT in psi4, default
}

set PROPERTIES_ORIGIN ["COM"]
properties('MP2/aug-cc-pvtz', properties = ['dipole'])
--------------------------------------------------------------------------

    Molecular point group: c1
  Charge       = 0
  Multiplicity = 1
  Basis Set: AUG-CC-PVTZ
    Blend: AUG-CC-PVTZ
  Basis Set: (AUG-CC-PVTZ AUX)
    Blend: AUG-CC-PVTZ-JKFIT

    Orbital Energies [Eh]
    ---------------------

    Doubly Occupied:

       1A    -20.506272     2A    -15.625400     3A    -11.349882
       4A    -11.309178     5A    -11.273716     6A    -11.270635
       7A    -11.240263     8A    -11.237165     9A    -11.221242
      10A     -1.369035    11A     -1.278254    12A     -1.119145
      13A     -1.031262    14A     -1.018003    15A     -0.895693
      16A     -0.869982    17A     -0.824834    18A     -0.714360
      19A     -0.700414    20A     -0.666209    21A     -0.641129
      22A     -0.612593    23A     -0.607167    24A     -0.605809
      25A     -0.560596    26A     -0.539136    27A     -0.529622
      28A     -0.525805    29A     -0.505469    30A     -0.474555
      31A     -0.421096    32A     -0.407780    33A     -0.308819

  @DF-RHF Final Energy:  -399.77092282147817

   => Energetics <=

    Nuclear Repulsion Energy =            437.4333482952484928
    One-Electron Energy =               -1409.8875012696939848
    Two-Electron Energy =                 572.6832301529673259
    Total Energy =                       -399.7709228214781660
  Basis Set: (AUG-CC-PVTZ AUX)
    Blend: AUG-CC-PVTZ-RI
    Molecular point group: c1

    Geometry (in Angstrom), charge = 0, multiplicity = 1:

       Center              X                  Y                   Z               Mass
    ------------   -----------------  -----------------  -----------------  -----------------
         O            0.718716801993     1.914259730471    -0.174431999904    15.994914619570
         N            0.357670801993    -0.357852269529    -0.287280999904    14.003074004430
         C            1.793599801993    -0.532744269529    -0.538513999904    12.000000000000
         C           -0.085560198007     0.971878730471    -0.101116999904    12.000000000000
         C           -0.461801198007    -1.447689269529    -0.186543999904    12.000000000000
         C            2.595936801993    -0.468922269529     0.753066000096    12.000000000000
         C           -1.501710198007     1.085148730471     0.163348000096    12.000000000000
         C           -1.796424198007    -1.315222269529     0.081976000096    12.000000000000
         C           -2.319615198007    -0.009092269529     0.259486000096    12.000000000000
         H            1.921114801993    -1.493157269529    -1.045414999904     1.007825032230
         H            2.095066801993     0.267950730471    -1.215919999904     1.007825032230
         H            0.035214001993    -2.416836369529    -0.244152599904     1.007825032230
         H            2.454173801993     0.506034730471     1.221533000096     1.007825032230
         H            2.277859801993    -1.252557269529     1.446132000096     1.007825032230
         H            3.661061801993    -0.603677269529     0.542214000096     1.007825032230
         H           -1.877116198007     2.094831730471     0.296258000096     1.007825032230
         H           -2.423587198007    -2.196704269529     0.149835000096     1.007825032230
         H           -3.378488198007     0.125321730471     0.469271000096     1.007825032230

  Basis Set: AUG-CC-PVTZ
    Blend: AUG-CC-PVTZ
  Basis Set: (AUG-CC-PVTZ AUX)
    Blend: AUG-CC-PVTZ-JKFIT
	 Reference Energy          =    -399.7709228214781660 [Eh]
	 Singles Energy            =      -0.0000000000000000 [Eh]
	 Same-Spin Energy          =      -0.4234995901026000 [Eh]
	 Opposite-Spin Energy      =      -1.3399363449994679 [Eh]
	 Correlation Energy        =      -1.7634359351020679 [Eh]
	 Total Energy              =    -401.5343587565802181 [Eh]

	 ================> DF-SCS-MP2 Energies <==================
	-----------------------------------------------------------
	 SCS Same-Spin Scale       =       0.3333333333333333 [-]
	 SCS Opposite-Spin Scale   =       1.2000000000000000 [-]
	 SCS Same-Spin Energy      =      -0.1411665300342000 [Eh]
	 SCS Opposite-Spin Energy  =      -1.6079236139993613 [Eh]
	 SCS Correlation Energy    =      -1.7490901440335613 [Eh]
	 SCS Total Energy          =    -401.5200129655117394 [Eh]
	-----------------------------------------------------------

  Dipole Moment: [D]
     X:    -0.7493      Y:    -3.8090      Z:     0.0949     Total:     3.8832

*** Psi4 exiting successfully. Buy a developer a beer!
