                               Psi4 1.3.2 release

  ==> Input File <==

--------------------------------------------------------------------------
#psi4
#
memory 32 gb

molecule  {
0 1
  O        0.6831730     1.9514370    -0.1851230
  N        0.3221270    -0.3206750    -0.2979720
  C        1.7580560    -0.4955670    -0.5492050
  C       -0.1211040     1.0090560    -0.1118080
  C       -0.4973450    -1.4105120    -0.1972350
  C        2.5603930    -0.4317450     0.7423750
  C       -1.5372540     1.1223260     0.1526570
  C       -1.8319680    -1.2780450     0.0712850
  C       -2.3551590     0.0280850     0.2487950
  H        1.8855710    -1.4559800    -1.0561060
  H        2.0595230     0.3051280    -1.2266110
  H       -0.0197130    -2.3738180    -0.3527730
  H        2.4186300     0.5432120     1.2108420
  H        2.2423160    -1.2153800     1.4354410
  H        3.6255180    -0.5665000     0.5315230
  H       -1.9675169     2.1486932    -0.0089026
  H       -2.4591310    -2.1595270     0.1391440
  H       -3.4140320     0.1624990     0.4585800
units angstrom
no_reorient  #important for SAPT in psi4, default
symmetry c1  #important for SAPT in psi4, default
}

set PROPERTIES_ORIGIN ["COM"]
properties('MP2/aug-cc-pvtz', properties = ['dipole'])
--------------------------------------------------------------------------

    Molecular point group: c1
  Charge       = 0
  Multiplicity = 1
  Basis Set: AUG-CC-PVTZ
    Blend: AUG-CC-PVTZ
  Basis Set: (AUG-CC-PVTZ AUX)
    Blend: AUG-CC-PVTZ-JKFIT

    Orbital Energies [Eh]
    ---------------------

    Doubly Occupied:

       1A    -20.506549     2A    -15.625813     3A    -11.350154
       4A    -11.309571     5A    -11.274025     6A    -11.271237
       7A    -11.240506     8A    -11.240279     9A    -11.221237
      10A     -1.369237    11A     -1.278639    12A     -1.119182
      13A     -1.030973    14A     -1.018093    15A     -0.895602
      16A     -0.868985    17A     -0.824877    18A     -0.713188
      19A     -0.700595    20A     -0.664918    21A     -0.640299
      22A     -0.611430    23A     -0.607297    24A     -0.605434
      25A     -0.560948    26A     -0.534928    27A     -0.532012
      28A     -0.521908    29A     -0.506397    30A     -0.475133
      31A     -0.420899    32A     -0.406966    33A     -0.308755

  @DF-RHF Final Energy:  -399.76565344517837

   => Energetics <=

    Nuclear Repulsion Energy =            437.2649756472893046
    One-Electron Energy =               -1409.5491243239982850
    Two-Electron Energy =                 572.5184952315306646
    Total Energy =                       -399.7656534451783727
  Basis Set: (AUG-CC-PVTZ AUX)
    Blend: AUG-CC-PVTZ-RI
    Molecular point group: c1

    Geometry (in Angstrom), charge = 0, multiplicity = 1:

       Center              X                  Y                   Z               Mass
    ------------   -----------------  -----------------  -----------------  -----------------
         O            0.719324764904     1.914075267533    -0.171218587768    15.994914619570
         N            0.358278764904    -0.358036732467    -0.284067587768    14.003074004430
         C            1.794207764904    -0.532928732467    -0.535300587768    12.000000000000
         C           -0.084952235096     0.971694267533    -0.097903587768    12.000000000000
         C           -0.461193235096    -1.447873732467    -0.183330587768    12.000000000000
         C            2.596544764904    -0.469106732467     0.756279412232    12.000000000000
         C           -1.501102235096     1.084964267533     0.166561412232    12.000000000000
         C           -1.795816235096    -1.315406732467     0.085189412232    12.000000000000
         C           -2.319007235096    -0.009276732467     0.262699412232    12.000000000000
         H            1.921722764904    -1.493341732467    -1.042201587768     1.007825032230
         H            2.095674764904     0.267766267533    -1.212706587768     1.007825032230
         H            0.016438764904    -2.411179732467    -0.338868587768     1.007825032230
         H            2.454781764904     0.505850267533     1.224746412232     1.007825032230
         H            2.278467764904    -1.252741732467     1.449345412232     1.007825032230
         H            3.661669764904    -0.603861732467     0.545427412232     1.007825032230
         H           -1.931365135096     2.111331467533     0.005001812232     1.007825032230
         H           -2.422979235096    -2.196888732467     0.153048412232     1.007825032230
         H           -3.377880235096     0.125137267533     0.472484412232     1.007825032230

  Basis Set: AUG-CC-PVTZ
    Blend: AUG-CC-PVTZ
  Basis Set: (AUG-CC-PVTZ AUX)
    Blend: AUG-CC-PVTZ-JKFIT
	 Reference Energy          =    -399.7656534451783727 [Eh]
	 Singles Energy            =      -0.0000000000000000 [Eh]
	 Same-Spin Energy          =      -0.4236913269830276 [Eh]
	 Opposite-Spin Energy      =      -1.3403991274546971 [Eh]
	 Correlation Energy        =      -1.7640904544377247 [Eh]
	 Total Energy              =    -401.5297438996161077 [Eh]

	 ================> DF-SCS-MP2 Energies <==================
	-----------------------------------------------------------
	 SCS Same-Spin Scale       =       0.3333333333333333 [-]
	 SCS Opposite-Spin Scale   =       1.2000000000000000 [-]
	 SCS Same-Spin Energy      =      -0.1412304423276759 [Eh]
	 SCS Opposite-Spin Energy  =      -1.6084789529456365 [Eh]
	 SCS Correlation Energy    =      -1.7497093952733123 [Eh]
	 SCS Total Energy          =    -401.5153628404517008 [Eh]
	-----------------------------------------------------------

  Dipole Moment: [D]
     X:    -0.7594      Y:    -3.8432      Z:    -0.1561     Total:     3.9206

*** Psi4 exiting successfully. Buy a developer a beer!
