                               Psi4 1.3.2 release

  ==> Input File <==

--------------------------------------------------------------------------
#psi4
#
memory 32 gb

molecule  {
0 1
  O        0.6831730     1.9514370    -0.1851230
  N        0.3221270    -0.3206750    -0.2979720
  C        1.7580560    -0.4955670    -0.5492050
  C       -0.1211040     1.0090560    -0.1118080
  C       -0.4973450    -1.4105120    -0.1972350
  C        2.5603930    -0.4317450     0.7423750
  C       -1.5372540     1.1223260     0.1526570
  C       -1.8319680    -1.2780450     0.0712850
  C       -2.3551590     0.0280850     0.2487950
  H        1.8855710    -1.4559800    -1.0561060
  H        2.0595230     0.3051280    -1.2266110
  H       -0.0197130    -2.3738180    -0.3527730
  H        2.4186300     0.5432120     1.2108420
  H        2.2423160    -1.2153800     1.4354410
  H        3.6255180    -0.5665000     0.5315230
  H       -1.9218028     2.1347897     0.2364887
  H       -2.4591310    -2.1595270     0.1391440
  H       -3.4140320     0.1624990     0.4585800
units angstrom
no_reorient  #important for SAPT in psi4, default
symmetry c1  #important for SAPT in psi4, default
}

set PROPERTIES_ORIGIN ["COM"]
properties('MP2/aug-cc-pvtz', properties = ['dipole'])
--------------------------------------------------------------------------

    Molecular point group: c1
  Charge       = 0
  Multiplicity = 1
  Basis Set: AUG-CC-PVTZ
    Blend: AUG-CC-PVTZ
  Basis Set: (AUG-CC-PVTZ AUX)
    Blend: AUG-CC-PVTZ-JKFIT

    Orbital Energies [Eh]
    ---------------------

    Doubly Occupied:

       1A    -20.506239     2A    -15.625477     3A    -11.349869
       4A    -11.308827     5A    -11.273802     6A    -11.270590
       7A    -11.240139     8A    -11.237150     9A    -11.221117
      10A     -1.369027    11A     -1.278296    12A     -1.119096
      13A     -1.031338    14A     -1.017987    15A     -0.895599
      16A     -0.870311    17A     -0.824862    18A     -0.714287
      19A     -0.700456    20A     -0.667235    21A     -0.640346
      22A     -0.613509    23A     -0.607390    24A     -0.605426
      25A     -0.560488    26A     -0.537936    27A     -0.530325
      28A     -0.525575    29A     -0.505712    30A     -0.474921
      31A     -0.421028    32A     -0.407758    33A     -0.308751

  @DF-RHF Final Energy:  -399.77138375547048

   => Energetics <=

    Nuclear Repulsion Energy =            437.4286299435700585
    One-Electron Energy =               -1409.8782890553986817
    Two-Electron Energy =                 572.6782753563580854
    Total Energy =                       -399.7713837554705378
  Basis Set: (AUG-CC-PVTZ AUX)
    Blend: AUG-CC-PVTZ-RI
    Molecular point group: c1

    Geometry (in Angstrom), charge = 0, multiplicity = 1:

       Center              X                  Y                   Z               Mass
    ------------   -----------------  -----------------  -----------------  -----------------
         O            0.718950405531     1.914189125304    -0.173228132598    15.994914619570
         N            0.357904405531    -0.357922874696    -0.286077132598    14.003074004430
         C            1.793833405531    -0.532814874696    -0.537310132598    12.000000000000
         C           -0.085326594469     0.971808125304    -0.099913132598    12.000000000000
         C           -0.461567594469    -1.447759874696    -0.185340132598    12.000000000000
         C            2.596170405531    -0.468992874696     0.754269867402    12.000000000000
         C           -1.501476594469     1.085078125304     0.164551867402    12.000000000000
         C           -1.796190594469    -1.315292874696     0.083179867402    12.000000000000
         C           -2.319381594469    -0.009162874696     0.260689867402    12.000000000000
         H            1.921348405531    -1.493227874696    -1.044211132598     1.007825032230
         H            2.095300405531     0.267880125304    -1.214716132598     1.007825032230
         H            0.016064405531    -2.411065874696    -0.340878132598     1.007825032230
         H            2.454407405531     0.505964125304     1.222736867402     1.007825032230
         H            2.278093405531    -1.252627874696     1.447335867402     1.007825032230
         H            3.661295405531    -0.603747874696     0.543417867402     1.007825032230
         H           -1.886025394469     2.097541825304     0.248383567402     1.007825032230
         H           -2.423353594469    -2.196774874696     0.151038867402     1.007825032230
         H           -3.378254594469     0.125251125304     0.470474867402     1.007825032230

  Basis Set: AUG-CC-PVTZ
    Blend: AUG-CC-PVTZ
  Basis Set: (AUG-CC-PVTZ AUX)
    Blend: AUG-CC-PVTZ-JKFIT
	 Reference Energy          =    -399.7713837554704810 [Eh]
	 Singles Energy            =      -0.0000000000000000 [Eh]
	 Same-Spin Energy          =      -0.4234616455066124 [Eh]
	 Opposite-Spin Energy      =      -1.3398496635879860 [Eh]
	 Correlation Energy        =      -1.7633113090945982 [Eh]
	 Total Energy              =    -401.5346950645650850 [Eh]

	 ================> DF-SCS-MP2 Energies <==================
	-----------------------------------------------------------
	 SCS Same-Spin Scale       =       0.3333333333333333 [-]
	 SCS Opposite-Spin Scale   =       1.2000000000000000 [-]
	 SCS Same-Spin Energy      =      -0.1411538818355375 [Eh]
	 SCS Opposite-Spin Energy  =      -1.6078195963055830 [Eh]
	 SCS Correlation Energy    =      -1.7489734781411204 [Eh]
	 SCS Total Energy          =    -401.5203572336116054 [Eh]
	-----------------------------------------------------------

  Dipole Moment: [D]
     X:    -0.7630      Y:    -3.8111      Z:     0.0013     Total:     3.8867

*** Psi4 exiting successfully. Buy a developer a beer!
