                               Psi4 1.3.2 release

  ==> Input File <==

--------------------------------------------------------------------------
#psi4
#
memory 32 gb

molecule  {
0 1
  O        0.6831730     1.9514370    -0.1851230
  N        0.3221270    -0.3206750    -0.2979720
  C        1.7580560    -0.4955670    -0.5492050
  C       -0.1211040     1.0090560    -0.1118080
  C       -0.4973450    -1.4105120    -0.1972350
  C        2.5603930    -0.4317450     0.7423750
  C       -1.5372540     1.1223260     0.1526570
  C       -1.8319680    -1.2780450     0.0712850
  C       -2.3551590     0.0280850     0.2487950
  H        1.8855710    -1.4559800    -1.0561060
  H        2.0595230     0.3051280    -1.2266110
  H        0.0093618    -2.3825796    -0.2058788
  H        2.4186300     0.5432120     1.2108420
  H        2.2423160    -1.2153800     1.4354410
  H        3.6255180    -0.5665000     0.5315230
  H       -1.9126600     2.1320090     0.2855670
  H       -2.4591310    -2.1595270     0.1391440
  H       -3.4140320     0.1624990     0.4585800
units angstrom
no_reorient  #important for SAPT in psi4, default
symmetry c1  #important for SAPT in psi4, default
}

set PROPERTIES_ORIGIN ["COM"]
properties('MP2/aug-cc-pvtz', properties = ['dipole'])
--------------------------------------------------------------------------

    Molecular point group: c1
  Charge       = 0
  Multiplicity = 1
  Basis Set: AUG-CC-PVTZ
    Blend: AUG-CC-PVTZ
  Basis Set: (AUG-CC-PVTZ AUX)
    Blend: AUG-CC-PVTZ-JKFIT

    Orbital Energies [Eh]
    ---------------------

    Doubly Occupied:

       1A    -20.506320     2A    -15.625335     3A    -11.349922
       4A    -11.309610     5A    -11.273635     6A    -11.270697
       7A    -11.240439     8A    -11.237309     9A    -11.221280
      10A     -1.369054    11A     -1.278210    12A     -1.119207
      13A     -1.031151    14A     -1.017973    15A     -0.895703
      16A     -0.869601    17A     -0.824822    18A     -0.714058
      19A     -0.700400    20A     -0.665347    21A     -0.641655
      22A     -0.612077    23A     -0.606802    24A     -0.605895
      25A     -0.560678    26A     -0.539411    27A     -0.529543
      28A     -0.525783    29A     -0.505366    30A     -0.474303
      31A     -0.421064    32A     -0.407814    33A     -0.308870

  @DF-RHF Final Energy:  -399.77012255799360

   => Energetics <=

    Nuclear Repulsion Energy =            437.4186319640774627
    One-Electron Energy =               -1409.8588440691755750
    Two-Electron Energy =                 572.6700895471044532
    Total Energy =                       -399.7701225579936590
  Basis Set: (AUG-CC-PVTZ AUX)
    Blend: AUG-CC-PVTZ-RI
    Molecular point group: c1

    Geometry (in Angstrom), charge = 0, multiplicity = 1:

       Center              X                  Y                   Z               Mass
    ------------   -----------------  -----------------  -----------------  -----------------
         O            0.718637436080     1.914283646868    -0.174832979730    15.994914619570
         N            0.357591436080    -0.357828353132    -0.287681979730    14.003074004430
         C            1.793520436080    -0.532720353132    -0.538914979730    12.000000000000
         C           -0.085639563920     0.971902646868    -0.101517979730    12.000000000000
         C           -0.461880563920    -1.447665353132    -0.186944979730    12.000000000000
         C            2.595857436080    -0.468898353132     0.752665020270    12.000000000000
         C           -1.501789563920     1.085172646868     0.162947020270    12.000000000000
         C           -1.796503563920    -1.315198353132     0.081575020270    12.000000000000
         C           -2.319694563920    -0.009068353132     0.259085020270    12.000000000000
         H            1.921035436080    -1.493133353132    -1.045815979730     1.007825032230
         H            2.094987436080     0.267974646868    -1.216320979730     1.007825032230
         H            0.044826236080    -2.419732953132    -0.195588779730     1.007825032230
         H            2.454094436080     0.506058646868     1.221132020270     1.007825032230
         H            2.277780436080    -1.252533353132     1.445731020270     1.007825032230
         H            3.660982436080    -0.603653353132     0.541813020270     1.007825032230
         H           -1.877195563920     2.094855646868     0.295857020270     1.007825032230
         H           -2.423666563920    -2.196680353132     0.149434020270     1.007825032230
         H           -3.378567563920     0.125345646868     0.468870020270     1.007825032230

  Basis Set: AUG-CC-PVTZ
    Blend: AUG-CC-PVTZ
  Basis Set: (AUG-CC-PVTZ AUX)
    Blend: AUG-CC-PVTZ-JKFIT
	 Reference Energy          =    -399.7701225579936022 [Eh]
	 Singles Energy            =      -0.0000000000000000 [Eh]
	 Same-Spin Energy          =      -0.4235614684617492 [Eh]
	 Opposite-Spin Energy      =      -1.3400695024695650 [Eh]
	 Correlation Energy        =      -1.7636309709313143 [Eh]
	 Total Energy              =    -401.5337535289249331 [Eh]

	 ================> DF-SCS-MP2 Energies <==================
	-----------------------------------------------------------
	 SCS Same-Spin Scale       =       0.3333333333333333 [-]
	 SCS Opposite-Spin Scale   =       1.2000000000000000 [-]
	 SCS Same-Spin Energy      =      -0.1411871561539164 [Eh]
	 SCS Opposite-Spin Energy  =      -1.6080834029634781 [Eh]
	 SCS Correlation Energy    =      -1.7492705591173945 [Eh]
	 SCS Total Energy          =    -401.5193931171110080 [Eh]
	-----------------------------------------------------------

  Dipole Moment: [D]
     X:    -0.7491      Y:    -3.8017      Z:     0.1271     Total:     3.8769

*** Psi4 exiting successfully. Buy a developer a beer!
