                               Psi4 1.3.2 release

  ==> Input File <==

--------------------------------------------------------------------------
#psi4
#
memory 32 gb

molecule  {
0 1
  O        0.6831730     1.9514370    -0.1851230
  N        0.3221270    -0.3206750    -0.2979720
  C        1.7580560    -0.4955670    -0.5492050
  C       -0.1211040     1.0090560    -0.1118080
  C       -0.4973450    -1.4105120    -0.1972350
  C        2.5603930    -0.4317450     0.7423750
  C       -1.5372540     1.1223260     0.1526570
  C       -1.8319680    -1.2780450     0.0712850
  C       -2.3551590     0.0280850     0.2487950
  H        1.8855710    -1.4559800    -1.0561060
  H        2.0595230     0.3051280    -1.2266110
  H       -0.0197130    -2.3738180    -0.3527730
  H        2.4186300     0.5432120     1.2108420
  H        2.2423160    -1.2153800     1.4354410
  H        3.6255180    -0.5665000     0.5315230
  H       -1.9126600     2.1320090     0.2855670
  H       -2.4305942    -2.1682515     0.2861458
  H       -3.4140320     0.1624990     0.4585800
units angstrom
no_reorient  #important for SAPT in psi4, default
symmetry c1  #important for SAPT in psi4, default
}

set PROPERTIES_ORIGIN ["COM"]
properties('MP2/aug-cc-pvtz', properties = ['dipole'])
--------------------------------------------------------------------------

    Molecular point group: c1
  Charge       = 0
  Multiplicity = 1
  Basis Set: AUG-CC-PVTZ
    Blend: AUG-CC-PVTZ
  Basis Set: (AUG-CC-PVTZ AUX)
    Blend: AUG-CC-PVTZ-JKFIT

    Orbital Energies [Eh]
    ---------------------

    Doubly Occupied:

       1A    -20.506417     2A    -15.625671     3A    -11.350002
       4A    -11.309164     5A    -11.273935     6A    -11.270600
       7A    -11.240906     8A    -11.237086     9A    -11.221328
      10A     -1.369191    11A     -1.278478    12A     -1.119056
      13A     -1.031442    14A     -1.017891    15A     -0.895695
      16A     -0.870242    17A     -0.824667    18A     -0.713999
      19A     -0.700052    20A     -0.667586    21A     -0.638895
      22A     -0.613839    23A     -0.607418    24A     -0.605507
      25A     -0.561283    26A     -0.536887    27A     -0.529570
      28A     -0.525992    29A     -0.506310    30A     -0.474454
      31A     -0.421313    32A     -0.407665    33A     -0.308833

  @DF-RHF Final Energy:  -399.77023873258071

   => Energetics <=

    Nuclear Repulsion Energy =            437.4030459101606993
    One-Electron Energy =               -1409.8238219252741601
    Two-Electron Energy =                 572.6505372825326958
    Total Energy =                       -399.7702387325807649
  Basis Set: (AUG-CC-PVTZ AUX)
    Blend: AUG-CC-PVTZ-RI
    Molecular point group: c1

    Geometry (in Angstrom), charge = 0, multiplicity = 1:

       Center              X                  Y                   Z               Mass
    ------------   -----------------  -----------------  -----------------  -----------------
         O            0.718641841840     1.914283343050    -0.174833860882    15.994914619570
         N            0.357595841840    -0.357828656950    -0.287682860882    14.003074004430
         C            1.793524841840    -0.532720656950    -0.538915860882    12.000000000000
         C           -0.085635158160     0.971902343050    -0.101518860882    12.000000000000
         C           -0.461876158160    -1.447665656950    -0.186945860882    12.000000000000
         C            2.595861841840    -0.468898656950     0.752664139118    12.000000000000
         C           -1.501785158160     1.085172343050     0.162946139118    12.000000000000
         C           -1.796499158160    -1.315198656950     0.081574139118    12.000000000000
         C           -2.319690158160    -0.009068656950     0.259084139118    12.000000000000
         H            1.921039841840    -1.493133656950    -1.045816860882     1.007825032230
         H            2.094991841840     0.267974343050    -1.216321860882     1.007825032230
         H            0.015755841840    -2.410971656950    -0.342483860882     1.007825032230
         H            2.454098841840     0.506058343050     1.221131139118     1.007825032230
         H            2.277784841840    -1.252533656950     1.445730139118     1.007825032230
         H            3.660986841840    -0.603653656950     0.541812139118     1.007825032230
         H           -1.877191158160     2.094855343050     0.295856139118     1.007825032230
         H           -2.395125358160    -2.205405156950     0.296434939118     1.007825032230
         H           -3.378563158160     0.125345343050     0.468869139118     1.007825032230

  Basis Set: AUG-CC-PVTZ
    Blend: AUG-CC-PVTZ
  Basis Set: (AUG-CC-PVTZ AUX)
    Blend: AUG-CC-PVTZ-JKFIT
	 Reference Energy          =    -399.7702387325807081 [Eh]
	 Singles Energy            =      -0.0000000000000000 [Eh]
	 Same-Spin Energy          =      -0.4234953449076803 [Eh]
	 Opposite-Spin Energy      =      -1.3399602403169795 [Eh]
	 Correlation Energy        =      -1.7634555852246598 [Eh]
	 Total Energy              =    -401.5336943178053843 [Eh]

	 ================> DF-SCS-MP2 Energies <==================
	-----------------------------------------------------------
	 SCS Same-Spin Scale       =       0.3333333333333333 [-]
	 SCS Opposite-Spin Scale   =       1.2000000000000000 [-]
	 SCS Same-Spin Energy      =      -0.1411651149692267 [Eh]
	 SCS Opposite-Spin Energy  =      -1.6079522883803754 [Eh]
	 SCS Correlation Energy    =      -1.7491174033496022 [Eh]
	 SCS Total Energy          =    -401.5193561359303089 [Eh]
	-----------------------------------------------------------

  Dipole Moment: [D]
     X:    -0.7211      Y:    -3.8041      Z:     0.1369     Total:     3.8742

*** Psi4 exiting successfully. Buy a developer a beer!
