                               Psi4 1.3.2 release

  ==> Input File <==

--------------------------------------------------------------------------
#psi4
#
memory 32 gb

molecule  {
0 1
  O        0.6831730     1.9514370    -0.1851230
  N        0.3221270    -0.3206750    -0.2979720
  C        1.7580560    -0.4955670    -0.5492050
  C       -0.1211040     1.0090560    -0.1118080
  C       -0.4973450    -1.4105120    -0.1972350
  C        2.5603930    -0.4317450     0.7423750
  C       -1.5372540     1.1223260     0.1526570
  C       -1.8319680    -1.2780450     0.0712850
  C       -2.3551590     0.0280850     0.2487950
  H        1.8855710    -1.4559800    -1.0561060
  H        2.0595230     0.3051280    -1.2266110
  H       -0.0197130    -2.3738180    -0.3527730
  H        2.4186300     0.5432120     1.2108420
  H        2.2423160    -1.2153800     1.4354410
  H        3.6255180    -0.5665000     0.5315230
  H       -1.9126600     2.1320090     0.2855670
  H       -2.4591310    -2.1595270     0.1391440
  H       -3.4611962     0.1765988     0.2134744
units angstrom
no_reorient  #important for SAPT in psi4, default
symmetry c1  #important for SAPT in psi4, default
}

set PROPERTIES_ORIGIN ["COM"]
properties('MP2/aug-cc-pvtz', properties = ['dipole'])
--------------------------------------------------------------------------

    Molecular point group: c1
  Charge       = 0
  Multiplicity = 1
  Basis Set: AUG-CC-PVTZ
    Blend: AUG-CC-PVTZ
  Basis Set: (AUG-CC-PVTZ AUX)
    Blend: AUG-CC-PVTZ-JKFIT

    Orbital Energies [Eh]
    ---------------------

    Doubly Occupied:

       1A    -20.506570     2A    -15.625641     3A    -11.350190
       4A    -11.308850     5A    -11.273937     6A    -11.273262
       7A    -11.240334     8A    -11.237820     9A    -11.221246
      10A     -1.369311    11A     -1.278494    12A     -1.118890
      13A     -1.031267    14A     -1.018113    15A     -0.894647
      16A     -0.870533    17A     -0.823509    18A     -0.713324
      19A     -0.700537    20A     -0.665959    21A     -0.640399
      22A     -0.610150    23A     -0.607466    24A     -0.605408
      25A     -0.561261    26A     -0.539246    27A     -0.527879
      28A     -0.525581    29A     -0.505508    30A     -0.474570
      31A     -0.423233    32A     -0.405188    33A     -0.308978

  @DF-RHF Final Energy:  -399.76706573197703

   => Energetics <=

    Nuclear Repulsion Energy =            437.3197756308062480
    One-Electron Energy =               -1409.6590826635160738
    Two-Electron Energy =                 572.5722413007327987
    Total Energy =                       -399.7670657319770271
  Basis Set: (AUG-CC-PVTZ AUX)
    Blend: AUG-CC-PVTZ-RI
    Molecular point group: c1

    Geometry (in Angstrom), charge = 0, multiplicity = 1:

       Center              X                  Y                   Z               Mass
    ------------   -----------------  -----------------  -----------------  -----------------
         O            0.719261768272     1.914096431558    -0.171622836700    15.994914619570
         N            0.358215768272    -0.358015568442    -0.284471836700    14.003074004430
         C            1.794144768272    -0.532907568442    -0.535704836700    12.000000000000
         C           -0.085015231728     0.971715431558    -0.098307836700    12.000000000000
         C           -0.461256231728    -1.447852568442    -0.183734836700    12.000000000000
         C            2.596481768272    -0.469085568442     0.755875163300    12.000000000000
         C           -1.501165231728     1.084985431558     0.166157163300    12.000000000000
         C           -1.795879231728    -1.315385568442     0.084785163300    12.000000000000
         C           -2.319070231728    -0.009255568442     0.262295163300    12.000000000000
         H            1.921659768272    -1.493320568442    -1.042605836700     1.007825032230
         H            2.095611768272     0.267787431558    -1.213110836700     1.007825032230
         H            0.016375768272    -2.411158568442    -0.339272836700     1.007825032230
         H            2.454718768272     0.505871431558     1.224342163300     1.007825032230
         H            2.278404768272    -1.252720568442     1.448941163300     1.007825032230
         H            3.661606768272    -0.603840568442     0.545023163300     1.007825032230
         H           -1.876571231728     2.094668431558     0.299067163300     1.007825032230
         H           -2.423042231728    -2.196867568442     0.152644163300     1.007825032230
         H           -3.425107431728     0.139258231558     0.226974563300     1.007825032230

  Basis Set: AUG-CC-PVTZ
    Blend: AUG-CC-PVTZ
  Basis Set: (AUG-CC-PVTZ AUX)
    Blend: AUG-CC-PVTZ-JKFIT
	 Reference Energy          =    -399.7670657319770271 [Eh]
	 Singles Energy            =      -0.0000000000000000 [Eh]
	 Same-Spin Energy          =      -0.4236978223568909 [Eh]
	 Opposite-Spin Energy      =      -1.3404444735218790 [Eh]
	 Correlation Energy        =      -1.7641422958787700 [Eh]
	 Total Energy              =    -401.5312080278557687 [Eh]

	 ================> DF-SCS-MP2 Energies <==================
	-----------------------------------------------------------
	 SCS Same-Spin Scale       =       0.3333333333333333 [-]
	 SCS Opposite-Spin Scale   =       1.2000000000000000 [-]
	 SCS Same-Spin Energy      =      -0.1412326074522970 [Eh]
	 SCS Opposite-Spin Energy  =      -1.6085333682262548 [Eh]
	 SCS Correlation Energy    =      -1.7497659756785517 [Eh]
	 SCS Total Energy          =    -401.5168317076555695 [Eh]
	-----------------------------------------------------------

  Dipole Moment: [D]
     X:    -0.7365      Y:    -3.8019      Z:    -0.1223     Total:     3.8745

*** Psi4 exiting successfully. Buy a developer a beer!
