                               Psi4 1.3.2 release

  ==> Input File <==

--------------------------------------------------------------------------
#psi4
#
memory 32 gb

molecule  {
0 1
  O        0.6831730     1.9514370    -0.1851230
  N        0.3221270    -0.3206750    -0.2979720
  C        1.7580560    -0.4955670    -0.5492050
  C       -0.1211040     1.0090560    -0.1118080
  C       -0.4973450    -1.4105120    -0.1972350
  C        2.5603930    -0.4317450     0.7423750
  C       -1.5817516     1.1415778    -0.0925966
  C       -1.8319680    -1.2780450     0.0712850
  C       -2.3551590     0.0280850     0.2487950
  H        1.8855710    -1.4559800    -1.0561060
  H        2.0595230     0.3051280    -1.2266110
  H       -0.0197130    -2.3738180    -0.3527730
  H        2.4186300     0.5432120     1.2108420
  H        2.2423160    -1.2153800     1.4354410
  H        3.6255180    -0.5665000     0.5315230
  H       -1.9126600     2.1320090     0.2855670
  H       -2.4591310    -2.1595270     0.1391440
  H       -3.4140320     0.1624990     0.4585800
units angstrom
no_reorient  #important for SAPT in psi4, default
symmetry c1  #important for SAPT in psi4, default
}

set PROPERTIES_ORIGIN ["COM"]
properties('MP2/aug-cc-pvtz', properties = ['dipole'])
--------------------------------------------------------------------------

    Molecular point group: c1
  Charge       = 0
  Multiplicity = 1
  Basis Set: AUG-CC-PVTZ
    Blend: AUG-CC-PVTZ
  Basis Set: (AUG-CC-PVTZ AUX)
    Blend: AUG-CC-PVTZ-JKFIT

    Orbital Energies [Eh]
    ---------------------

    Doubly Occupied:

       1A    -20.507441     2A    -15.626415     3A    -11.351758
       4A    -11.312661     5A    -11.277246     6A    -11.274627
       7A    -11.240900     8A    -11.240670     9A    -11.221638
      10A     -1.369278    11A     -1.279271    12A     -1.116567
      13A     -1.029039    14A     -1.017540    15A     -0.894302
      16A     -0.869497    17A     -0.823424    18A     -0.714032
      19A     -0.695503    20A     -0.667178    21A     -0.635871
      22A     -0.616038    23A     -0.607073    24A     -0.601109
      25A     -0.560183    26A     -0.537455    27A     -0.528655
      28A     -0.523110    29A     -0.504162    30A     -0.474853
      31A     -0.419109    32A     -0.405203    33A     -0.310115

  @DF-RHF Final Energy:  -399.75379518781637

   => Energetics <=

    Nuclear Repulsion Energy =            436.5343608819209749
    One-Electron Energy =               -1408.0724702899929071
    Two-Electron Energy =                 571.7843142202555100
    Total Energy =                       -399.7537951878164222
  Basis Set: (AUG-CC-PVTZ AUX)
    Blend: AUG-CC-PVTZ-RI
    Molecular point group: c1

    Geometry (in Angstrom), charge = 0, multiplicity = 1:

       Center              X                  Y                   Z               Mass
    ------------   -----------------  -----------------  -----------------  -----------------
         O            0.723214349793     1.912334716576    -0.149716162558    15.994914619570
         N            0.362168349793    -0.359777283424    -0.262565162558    14.003074004430
         C            1.798097349793    -0.534669283424    -0.513798162558    12.000000000000
         C           -0.081062650207     0.969953716576    -0.076401162558    12.000000000000
         C           -0.457303650207    -1.449614283424    -0.161828162558    12.000000000000
         C            2.600434349793    -0.470847283424     0.777781837442    12.000000000000
         C           -1.541710250207     1.102475516576    -0.057189762558    12.000000000000
         C           -1.791926650207    -1.317147283424     0.106691837442    12.000000000000
         C           -2.315117650207    -0.011017283424     0.284201837442    12.000000000000
         H            1.925612349793    -1.495082283424    -1.020699162558     1.007825032230
         H            2.099564349793     0.266025716576    -1.191204162558     1.007825032230
         H            0.020328349793    -2.412920283424    -0.317366162558     1.007825032230
         H            2.458671349793     0.504109716576     1.246248837442     1.007825032230
         H            2.282357349793    -1.254482283424     1.470847837442     1.007825032230
         H            3.665559349793    -0.605602283424     0.566929837442     1.007825032230
         H           -1.872618650207     2.092906716576     0.320973837442     1.007825032230
         H           -2.419089650207    -2.198629283424     0.174550837442     1.007825032230
         H           -3.373990650207     0.123396716576     0.493986837442     1.007825032230

  Basis Set: AUG-CC-PVTZ
    Blend: AUG-CC-PVTZ
  Basis Set: (AUG-CC-PVTZ AUX)
    Blend: AUG-CC-PVTZ-JKFIT
	 Reference Energy          =    -399.7537951878163653 [Eh]
	 Singles Energy            =      -0.0000000000000000 [Eh]
	 Same-Spin Energy          =      -0.4241226673628569 [Eh]
	 Opposite-Spin Energy      =      -1.3419674756667557 [Eh]
	 Correlation Energy        =      -1.7660901430296125 [Eh]
	 Total Energy              =    -401.5198853308459661 [Eh]

	 ================> DF-SCS-MP2 Energies <==================
	-----------------------------------------------------------
	 SCS Same-Spin Scale       =       0.3333333333333333 [-]
	 SCS Opposite-Spin Scale   =       1.2000000000000000 [-]
	 SCS Same-Spin Energy      =      -0.1413742224542856 [Eh]
	 SCS Opposite-Spin Energy  =      -1.6103609708001068 [Eh]
	 SCS Correlation Energy    =      -1.7517351932543923 [Eh]
	 SCS Total Energy          =    -401.5055303810707414 [Eh]
	-----------------------------------------------------------

  Dipole Moment: [D]
     X:    -0.6300      Y:    -3.9109      Z:     0.1614     Total:     3.9646

*** Psi4 exiting successfully. Buy a developer a beer!
