                               Psi4 1.3.2 release

  ==> Input File <==

--------------------------------------------------------------------------
#psi4
#
memory 32 gb

molecule  {
0 1
  O        0.6831730     1.9514370    -0.1851230
  N        0.3221270    -0.3206750    -0.2979720
  C        1.7580560    -0.4955670    -0.5492050
  C       -0.1211040     1.0090560    -0.1118080
  C       -0.4973450    -1.4105120    -0.1972350
  C        2.5603930    -0.4317450     0.7423750
  C       -1.5372540     1.1223260     0.1526570
  C       -1.8319680    -1.2780450     0.0712850
  C       -2.3551590     0.0280850     0.2487950
  H        1.8855710    -1.4559800    -1.0561060
  H        2.0595230     0.3051280    -1.2266110
  H       -0.0197130    -2.3738180    -0.3527730
  H        2.4186300     0.5432120     1.2108420
  H        2.2423160    -1.2153800     1.4354410
  H        3.6255180    -0.5665000     0.5315230
  H       -1.9126600     2.1320090     0.2855670
  H       -2.4591310    -2.1595270     0.1391440
  H       -3.4517634     0.1737788     0.2624956
units angstrom
no_reorient  #important for SAPT in psi4, default
symmetry c1  #important for SAPT in psi4, default
}

set PROPERTIES_ORIGIN ["COM"]
properties('MP2/aug-cc-pvtz', properties = ['dipole'])
--------------------------------------------------------------------------

    Molecular point group: c1
  Charge       = 0
  Multiplicity = 1
  Basis Set: AUG-CC-PVTZ
    Blend: AUG-CC-PVTZ
  Basis Set: (AUG-CC-PVTZ AUX)
    Blend: AUG-CC-PVTZ-JKFIT

    Orbital Energies [Eh]
    ---------------------

    Doubly Occupied:

       1A    -20.506439     2A    -15.625580     3A    -11.350065
       4A    -11.308838     5A    -11.273886     6A    -11.272315
       7A    -11.240262     8A    -11.237546     9A    -11.221203
      10A     -1.369203    11A     -1.278419    12A     -1.118958
      13A     -1.031291    14A     -1.018066    15A     -0.894971
      16A     -0.870465    17A     -0.823964    18A     -0.713644
      19A     -0.700504    20A     -0.666524    21A     -0.640380
      22A     -0.611069    23A     -0.607450    24A     -0.605374
      25A     -0.561335    26A     -0.539079    27A     -0.528152
      28A     -0.525788    29A     -0.505529    30A     -0.474664
      31A     -0.422723    32A     -0.405906    33A     -0.308900

  @DF-RHF Final Energy:  -399.76874032716569

   => Energetics <=

    Nuclear Repulsion Energy =            437.3590171667966047
    One-Electron Energy =               -1409.7385273106526711
    Two-Electron Energy =                 572.6107698166904356
    Total Energy =                       -399.7687403271656876
  Basis Set: (AUG-CC-PVTZ AUX)
    Blend: AUG-CC-PVTZ-RI
    Molecular point group: c1

    Geometry (in Angstrom), charge = 0, multiplicity = 1:

       Center              X                  Y                   Z               Mass
    ------------   -----------------  -----------------  -----------------  -----------------
         O            0.719184521709     1.914119524946    -0.172024278394    15.994914619570
         N            0.358138521709    -0.357992475054    -0.284873278394    14.003074004430
         C            1.794067521709    -0.532884475054    -0.536106278394    12.000000000000
         C           -0.085092478291     0.971738524946    -0.098709278394    12.000000000000
         C           -0.461333478291    -1.447829475054    -0.184136278394    12.000000000000
         C            2.596404521709    -0.469062475054     0.755473721606    12.000000000000
         C           -1.501242478291     1.085008524946     0.165755721606    12.000000000000
         C           -1.795956478291    -1.315362475054     0.084383721606    12.000000000000
         C           -2.319147478291    -0.009232475054     0.261893721606    12.000000000000
         H            1.921582521709    -1.493297475054    -1.043007278394     1.007825032230
         H            2.095534521709     0.267810524946    -1.213512278394     1.007825032230
         H            0.016298521709    -2.411135475054    -0.339674278394     1.007825032230
         H            2.454641521709     0.505894524946     1.223940721606     1.007825032230
         H            2.278327521709    -1.252697475054     1.448539721606     1.007825032230
         H            3.661529521709    -0.603817475054     0.544621721606     1.007825032230
         H           -1.876648478291     2.094691524946     0.298665721606     1.007825032230
         H           -2.423119478291    -2.196844475054     0.152242721606     1.007825032230
         H           -3.415751878291     0.136461324946     0.275594321606     1.007825032230

  Basis Set: AUG-CC-PVTZ
    Blend: AUG-CC-PVTZ
  Basis Set: (AUG-CC-PVTZ AUX)
    Blend: AUG-CC-PVTZ-JKFIT
	 Reference Energy          =    -399.7687403271656876 [Eh]
	 Singles Energy            =      -0.0000000000000000 [Eh]
	 Same-Spin Energy          =      -0.4236106347145724 [Eh]
	 Opposite-Spin Energy      =      -1.3402201159275000 [Eh]
	 Correlation Energy        =      -1.7638307506420725 [Eh]
	 Total Energy              =    -401.5325710778077450 [Eh]

	 ================> DF-SCS-MP2 Energies <==================
	-----------------------------------------------------------
	 SCS Same-Spin Scale       =       0.3333333333333333 [-]
	 SCS Opposite-Spin Scale   =       1.2000000000000000 [-]
	 SCS Same-Spin Energy      =      -0.1412035449048575 [Eh]
	 SCS Opposite-Spin Energy  =      -1.6082641391129999 [Eh]
	 SCS Correlation Energy    =      -1.7494676840178573 [Eh]
	 SCS Total Energy          =    -401.5182080111835603 [Eh]
	-----------------------------------------------------------

  Dipole Moment: [D]
     X:    -0.7487      Y:    -3.8044      Z:    -0.0908     Total:     3.8784

*** Psi4 exiting successfully. Buy a developer a beer!
