                               Psi4 1.3.2 release

  ==> Input File <==

--------------------------------------------------------------------------
#psi4
#
memory 32 gb

molecule  {
0 1
  O        0.6831730     1.9514370    -0.1851230
  N        0.3221270    -0.3206750    -0.2979720
  C        1.7580560    -0.4955670    -0.5492050
  C       -0.1211040     1.0090560    -0.1118080
  C       -0.4973450    -1.4105120    -0.1972350
  C        2.5603930    -0.4317450     0.7423750
  C       -1.5372540     1.1223260     0.1526570
  C       -1.8319680    -1.2780450     0.0712850
  C       -2.3551590     0.0280850     0.2487950
  H        1.8855710    -1.4559800    -1.0561060
  H        2.0595230     0.3051280    -1.2266110
  H       -0.0197130    -2.3738180    -0.3527730
  H        2.4186300     0.5432120     1.2108420
  H        2.2423160    -1.2153800     1.4354410
  H        3.6255180    -0.5665000     0.5315230
  H       -1.9492313     2.1431318     0.0892539
  H       -2.4591310    -2.1595270     0.1391440
  H       -3.4140320     0.1624990     0.4585800
units angstrom
no_reorient  #important for SAPT in psi4, default
symmetry c1  #important for SAPT in psi4, default
}

set PROPERTIES_ORIGIN ["COM"]
properties('MP2/aug-cc-pvtz', properties = ['dipole'])
--------------------------------------------------------------------------

    Molecular point group: c1
  Charge       = 0
  Multiplicity = 1
  Basis Set: AUG-CC-PVTZ
    Blend: AUG-CC-PVTZ
  Basis Set: (AUG-CC-PVTZ AUX)
    Blend: AUG-CC-PVTZ-JKFIT

    Orbital Energies [Eh]
    ---------------------

    Doubly Occupied:

       1A    -20.506385     2A    -15.625613     3A    -11.349997
       4A    -11.309127     5A    -11.273895     6A    -11.270846
       7A    -11.240291     8A    -11.238512     9A    -11.221155
      10A     -1.369122    11A     -1.278439    12A     -1.119121
      13A     -1.031162    14A     -1.018026    15A     -0.895582
      16A     -0.869711    17A     -0.824868    18A     -0.713731
      19A     -0.700500    20A     -0.666063    21A     -0.640720
      22A     -0.612211    23A     -0.607367    24A     -0.605618
      25A     -0.560697    26A     -0.535986    27A     -0.531647
      28A     -0.523987    29A     -0.506123    30A     -0.475012
      31A     -0.420869    32A     -0.407467    33A     -0.308731

  @DF-RHF Final Energy:  -399.76908399731889

   => Energetics <=

    Nuclear Repulsion Energy =            437.3556217322629323
    One-Electron Energy =               -1409.7322467076173780
    Two-Electron Energy =                 572.6075409780355585
    Total Energy =                       -399.7690839973188304
  Basis Set: (AUG-CC-PVTZ AUX)
    Blend: AUG-CC-PVTZ-RI
    Molecular point group: c1

    Geometry (in Angstrom), charge = 0, multiplicity = 1:

       Center              X                  Y                   Z               Mass
    ------------   -----------------  -----------------  -----------------  -----------------
         O            0.719175021483     1.914120810641    -0.172022405536    15.994914619570
         N            0.358129021483    -0.357991189359    -0.284871405536    14.003074004430
         C            1.794058021483    -0.532883189359    -0.536104405536    12.000000000000
         C           -0.085101978517     0.971739810641    -0.098707405536    12.000000000000
         C           -0.461342978517    -1.447828189359    -0.184134405536    12.000000000000
         C            2.596395021483    -0.469061189359     0.755475594464    12.000000000000
         C           -1.501251978517     1.085009810641     0.165757594464    12.000000000000
         C           -1.795965978517    -1.315361189359     0.084385594464    12.000000000000
         C           -2.319156978517    -0.009231189359     0.261895594464    12.000000000000
         H            1.921573021483    -1.493296189359    -1.043005405536     1.007825032230
         H            2.095525021483     0.267811810641    -1.213510405536     1.007825032230
         H            0.016289021483    -2.411134189359    -0.339672405536     1.007825032230
         H            2.454632021483     0.505895810641     1.223942594464     1.007825032230
         H            2.278318021483    -1.252696189359     1.448541594464     1.007825032230
         H            3.661520021483    -0.603816189359     0.544623594464     1.007825032230
         H           -1.913229278517     2.105815610641     0.102354494464     1.007825032230
         H           -2.423128978517    -2.196843189359     0.152244594464     1.007825032230
         H           -3.378029978517     0.125182810641     0.471680594464     1.007825032230

  Basis Set: AUG-CC-PVTZ
    Blend: AUG-CC-PVTZ
  Basis Set: (AUG-CC-PVTZ AUX)
    Blend: AUG-CC-PVTZ-JKFIT
	 Reference Energy          =    -399.7690839973188872 [Eh]
	 Singles Energy            =      -0.0000000000000000 [Eh]
	 Same-Spin Energy          =      -0.4235603431839409 [Eh]
	 Opposite-Spin Energy      =      -1.3400610644506266 [Eh]
	 Correlation Energy        =      -1.7636214076345675 [Eh]
	 Total Energy              =    -401.5327054049534468 [Eh]

	 ================> DF-SCS-MP2 Energies <==================
	-----------------------------------------------------------
	 SCS Same-Spin Scale       =       0.3333333333333333 [-]
	 SCS Opposite-Spin Scale   =       1.2000000000000000 [-]
	 SCS Same-Spin Energy      =      -0.1411867810613136 [Eh]
	 SCS Opposite-Spin Energy  =      -1.6080732773407518 [Eh]
	 SCS Correlation Energy    =      -1.7492600584020654 [Eh]
	 SCS Total Energy          =    -401.5183440557209451 [Eh]
	-----------------------------------------------------------

  Dipole Moment: [D]
     X:    -0.7661      Y:    -3.8224      Z:    -0.0929     Total:     3.8995

*** Psi4 exiting successfully. Buy a developer a beer!
