                               Psi4 1.3.2 release

  ==> Input File <==

--------------------------------------------------------------------------
#psi4
#
memory 32 gb

molecule  {
0 1
  O        0.6831730     1.9514370    -0.1851230
  N        0.3221270    -0.3206750    -0.2979720
  C        1.7580560    -0.4955670    -0.5492050
  C       -0.1211040     1.0090560    -0.1118080
  C       -0.4973450    -1.4105120    -0.1972350
  C        2.5603930    -0.4317450     0.7423750
  C       -1.5372540     1.1223260     0.1526570
  C       -1.8319680    -1.2780450     0.0712850
  C       -2.3551590     0.0280850     0.2487950
  H        1.8855710    -1.4559800    -1.0561060
  H        2.0595230     0.3051280    -1.2266110
  H       -0.0197130    -2.3738180    -0.3527730
  H        2.4186300     0.5432120     1.2108420
  H        2.2423160    -1.2153800     1.4354410
  H        3.6255180    -0.5665000     0.5315230
  H       -1.9126600     2.1320090     0.2855670
  H       -2.4401065    -2.1653434     0.2371452
  H       -3.4140320     0.1624990     0.4585800
units angstrom
no_reorient  #important for SAPT in psi4, default
symmetry c1  #important for SAPT in psi4, default
}

set PROPERTIES_ORIGIN ["COM"]
properties('MP2/aug-cc-pvtz', properties = ['dipole'])
--------------------------------------------------------------------------

    Molecular point group: c1
  Charge       = 0
  Multiplicity = 1
  Basis Set: AUG-CC-PVTZ
    Blend: AUG-CC-PVTZ
  Basis Set: (AUG-CC-PVTZ AUX)
    Blend: AUG-CC-PVTZ-JKFIT

    Orbital Energies [Eh]
    ---------------------

    Doubly Occupied:

       1A    -20.506297     2A    -15.625558     3A    -11.349909
       4A    -11.308981     5A    -11.273862     6A    -11.270590
       7A    -11.240475     8A    -11.237068     9A    -11.221238
      10A     -1.369087    11A     -1.278371    12A     -1.119079
      13A     -1.031396    14A     -1.017949    15A     -0.895652
      16A     -0.870301    17A     -0.824769    18A     -0.714207
      19A     -0.700302    20A     -0.667528    21A     -0.639283
      22A     -0.613807    23A     -0.607401    24A     -0.605558
      25A     -0.561089    26A     -0.537489    27A     -0.529641
      28A     -0.525916    29A     -0.506063    30A     -0.474671
      31A     -0.421212    32A     -0.407688    33A     -0.308790

  @DF-RHF Final Energy:  -399.77096328031371

   => Energetics <=

    Nuclear Repulsion Energy =            437.4222749846152283
    One-Electron Energy =               -1409.8640219780434109
    Two-Electron Energy =                 572.6707837131144743
    Total Energy =                       -399.7709632803137083
  Basis Set: (AUG-CC-PVTZ AUX)
    Blend: AUG-CC-PVTZ-RI
    Molecular point group: c1

    Geometry (in Angstrom), charge = 0, multiplicity = 1:

       Center              X                  Y                   Z               Mass
    ------------   -----------------  -----------------  -----------------  -----------------
         O            0.718719739440     1.914259528199    -0.174432587885    15.994914619570
         N            0.357673739440    -0.357852471801    -0.287281587885    14.003074004430
         C            1.793602739440    -0.532744471801    -0.538514587885    12.000000000000
         C           -0.085557260560     0.971878528199    -0.101117587885    12.000000000000
         C           -0.461798260560    -1.447689471801    -0.186544587885    12.000000000000
         C            2.595939739440    -0.468922471801     0.753065412115    12.000000000000
         C           -1.501707260560     1.085148528199     0.163347412115    12.000000000000
         C           -1.796421260560    -1.315222471801     0.081975412115    12.000000000000
         C           -2.319612260560    -0.009092471801     0.259485412115    12.000000000000
         H            1.921117739440    -1.493157471801    -1.045415587885     1.007825032230
         H            2.095069739440     0.267950528199    -1.215920587885     1.007825032230
         H            0.015833739440    -2.410995471801    -0.342082587885     1.007825032230
         H            2.454176739440     0.506034528199     1.221532412115     1.007825032230
         H            2.277862739440    -1.252557471801     1.446131412115     1.007825032230
         H            3.661064739440    -0.603677471801     0.542213412115     1.007825032230
         H           -1.877113260560     2.094831528199     0.296257412115     1.007825032230
         H           -2.404559760560    -2.202520871801     0.247835612115     1.007825032230
         H           -3.378485260560     0.125321528199     0.469270412115     1.007825032230

  Basis Set: AUG-CC-PVTZ
    Blend: AUG-CC-PVTZ
  Basis Set: (AUG-CC-PVTZ AUX)
    Blend: AUG-CC-PVTZ-JKFIT
	 Reference Energy          =    -399.7709632803137083 [Eh]
	 Singles Energy            =      -0.0000000000000000 [Eh]
	 Same-Spin Energy          =      -0.4234730171437184 [Eh]
	 Opposite-Spin Energy      =      -1.3398923384622092 [Eh]
	 Correlation Energy        =      -1.7633653556059277 [Eh]
	 Total Energy              =    -401.5343286359196213 [Eh]

	 ================> DF-SCS-MP2 Energies <==================
	-----------------------------------------------------------
	 SCS Same-Spin Scale       =       0.3333333333333333 [-]
	 SCS Opposite-Spin Scale   =       1.2000000000000000 [-]
	 SCS Same-Spin Energy      =      -0.1411576723812395 [Eh]
	 SCS Opposite-Spin Energy  =      -1.6078708061546509 [Eh]
	 SCS Correlation Energy    =      -1.7490284785358905 [Eh]
	 SCS Total Energy          =    -401.5199917588495850 [Eh]
	-----------------------------------------------------------

  Dipole Moment: [D]
     X:    -0.7370      Y:    -3.8111      Z:     0.1025     Total:     3.8831

*** Psi4 exiting successfully. Buy a developer a beer!
