                               Psi4 1.3.2 release

  ==> Input File <==

--------------------------------------------------------------------------
#psi4
#
memory 32 gb

molecule  {
0 1
  O        0.6831730     1.9514370    -0.1851230
  N        0.3221270    -0.3206750    -0.2979720
  C        1.7580560    -0.4955670    -0.5492050
  C       -0.1211040     1.0090560    -0.1118080
  C       -0.4973450    -1.4105120    -0.1972350
  C        2.5603930    -0.4317450     0.7423750
  C       -1.5372540     1.1223260     0.1526570
  C       -1.8319680    -1.2780450     0.0712850
  C       -2.3551590     0.0280850     0.2487950
  H        1.8855710    -1.4559800    -1.0561060
  H        2.0595230     0.3051280    -1.2266110
  H       -0.0197130    -2.3738180    -0.3527730
  H        2.4186300     0.5432120     1.2108420
  H        2.2423160    -1.2153800     1.4354410
  H        3.6255180    -0.5665000     0.5315230
  H       -1.9126600     2.1320090     0.2855670
  H       -2.4115696    -2.1740679     0.3841470
  H       -3.4140320     0.1624990     0.4585800
units angstrom
no_reorient  #important for SAPT in psi4, default
symmetry c1  #important for SAPT in psi4, default
}

set PROPERTIES_ORIGIN ["COM"]
properties('MP2/aug-cc-pvtz', properties = ['dipole'])
--------------------------------------------------------------------------

    Molecular point group: c1
  Charge       = 0
  Multiplicity = 1
  Basis Set: AUG-CC-PVTZ
    Blend: AUG-CC-PVTZ
  Basis Set: (AUG-CC-PVTZ AUX)
    Blend: AUG-CC-PVTZ-JKFIT

    Orbital Energies [Eh]
    ---------------------

    Doubly Occupied:

       1A    -20.506813     2A    -15.626037     3A    -11.350311
       4A    -11.309736     5A    -11.274160     6A    -11.270649
       7A    -11.242267     8A    -11.237158     9A    -11.221577
      10A     -1.369530    11A     -1.278823    12A     -1.118995
      13A     -1.031593    14A     -1.017712    15A     -0.895828
      16A     -0.870075    17A     -0.824372    18A     -0.713438
      19A     -0.699206    20A     -0.667707    21A     -0.638058
      22A     -0.614067    23A     -0.607544    24A     -0.604946
      25A     -0.561437    26A     -0.535545    27A     -0.529307
      28A     -0.526212    29A     -0.506804    30A     -0.473829
      31A     -0.421635    32A     -0.407612    33A     -0.308988

  @DF-RHF Final Energy:  -399.76773590631160

   => Energetics <=

    Nuclear Repulsion Energy =            437.3402411133423584
    One-Electron Energy =               -1409.6920100563654614
    Two-Electron Energy =                 572.5840330367115030
    Total Energy =                       -399.7677359063116000
  Basis Set: (AUG-CC-PVTZ AUX)
    Blend: AUG-CC-PVTZ-RI
    Molecular point group: c1

    Geometry (in Angstrom), charge = 0, multiplicity = 1:

       Center              X                  Y                   Z               Mass
    ------------   -----------------  -----------------  -----------------  -----------------
         O            0.718486046640     1.914330974391    -0.175636406876    15.994914619570
         N            0.357440046640    -0.357781025609    -0.288485406876    14.003074004430
         C            1.793369046640    -0.532673025609    -0.539718406876    12.000000000000
         C           -0.085790953360     0.971949974391    -0.102321406876    12.000000000000
         C           -0.462031953360    -1.447618025609    -0.187748406876    12.000000000000
         C            2.595706046640    -0.468851025609     0.751861593124    12.000000000000
         C           -1.501940953360     1.085219974391     0.162143593124    12.000000000000
         C           -1.796654953360    -1.315151025609     0.080771593124    12.000000000000
         C           -2.319845953360    -0.009021025609     0.258281593124    12.000000000000
         H            1.920884046640    -1.493086025609    -1.046619406876     1.007825032230
         H            2.094836046640     0.268021974391    -1.217124406876     1.007825032230
         H            0.015600046640    -2.410924025609    -0.343286406876     1.007825032230
         H            2.453943046640     0.506105974391     1.220328593124     1.007825032230
         H            2.277629046640    -1.252486025609     1.444927593124     1.007825032230
         H            3.660831046640    -0.603606025609     0.541009593124     1.007825032230
         H           -1.877346953360     2.094902974391     0.295053593124     1.007825032230
         H           -2.376256553360    -2.211173925609     0.393633593124     1.007825032230
         H           -3.378718953360     0.125392974391     0.468066593124     1.007825032230

  Basis Set: AUG-CC-PVTZ
    Blend: AUG-CC-PVTZ
  Basis Set: (AUG-CC-PVTZ AUX)
    Blend: AUG-CC-PVTZ-JKFIT
	 Reference Energy          =    -399.7677359063116000 [Eh]
	 Singles Energy            =      -0.0000000000000000 [Eh]
	 Same-Spin Energy          =      -0.4235667314092557 [Eh]
	 Opposite-Spin Energy      =      -1.3402018320970295 [Eh]
	 Correlation Energy        =      -1.7637685635062852 [Eh]
	 Total Energy              =    -401.5315044698178895 [Eh]

	 ================> DF-SCS-MP2 Energies <==================
	-----------------------------------------------------------
	 SCS Same-Spin Scale       =       0.3333333333333333 [-]
	 SCS Opposite-Spin Scale   =       1.2000000000000000 [-]
	 SCS Same-Spin Energy      =      -0.1411889104697519 [Eh]
	 SCS Opposite-Spin Energy  =      -1.6082421985164352 [Eh]
	 SCS Correlation Energy    =      -1.7494311089861871 [Eh]
	 SCS Total Energy          =    -401.5171670152977867 [Eh]
	-----------------------------------------------------------

  Dipole Moment: [D]
     X:    -0.6792      Y:    -3.7780      Z:     0.2032     Total:     3.8440

*** Psi4 exiting successfully. Buy a developer a beer!
