                               Psi4 1.3.2 release

  ==> Input File <==

--------------------------------------------------------------------------
#psi4
#
memory 32 gb

molecule  {
0 1
  O        0.6831730     1.9514370    -0.1851230
  N        0.3221270    -0.3206750    -0.2979720
  C        1.7580560    -0.4955670    -0.5492050
  C       -0.1211040     1.0090560    -0.1118080
  C       -0.4973450    -1.4105120    -0.1972350
  C        2.5603930    -0.4317450     0.7423750
  C       -1.5372540     1.1223260     0.1526570
  C       -1.8319680    -1.2780450     0.0712850
  C       -2.3551590     0.0280850     0.2487950
  H        1.8855710    -1.4559800    -1.0561060
  H        2.0595230     0.3051280    -1.2266110
  H        0.0190534    -2.3855002    -0.1569141
  H        2.4186300     0.5432120     1.2108420
  H        2.2423160    -1.2153800     1.4354410
  H        3.6255180    -0.5665000     0.5315230
  H       -1.9126600     2.1320090     0.2855670
  H       -2.4591310    -2.1595270     0.1391440
  H       -3.4140320     0.1624990     0.4585800
units angstrom
no_reorient  #important for SAPT in psi4, default
symmetry c1  #important for SAPT in psi4, default
}

set PROPERTIES_ORIGIN ["COM"]
properties('MP2/aug-cc-pvtz', properties = ['dipole'])
--------------------------------------------------------------------------

    Molecular point group: c1
  Charge       = 0
  Multiplicity = 1
  Basis Set: AUG-CC-PVTZ
    Blend: AUG-CC-PVTZ
  Basis Set: (AUG-CC-PVTZ AUX)
    Blend: AUG-CC-PVTZ-JKFIT

    Orbital Energies [Eh]
    ---------------------

    Doubly Occupied:

       1A    -20.506382     2A    -15.625254     3A    -11.349979
       4A    -11.310205     5A    -11.273531     6A    -11.270786
       7A    -11.240686     8A    -11.237514     9A    -11.221305
      10A     -1.369081    11A     -1.278150    12A     -1.119296
      13A     -1.031003    14A     -1.017922    15A     -0.895694
      16A     -0.869102    17A     -0.824812    18A     -0.713582
      19A     -0.700392    20A     -0.664317    21A     -0.642139
      22A     -0.611726    23A     -0.606502    24A     -0.605552
      25A     -0.560772    26A     -0.539657    27A     -0.529451
      28A     -0.525755    29A     -0.505227    30A     -0.474006
      31A     -0.421023    32A     -0.407853    33A     -0.308938

  @DF-RHF Final Energy:  -399.76895103057109

   => Energetics <=

    Nuclear Repulsion Energy =            437.3949753415924420
    One-Electron Energy =               -1409.8126621694902951
    Two-Electron Energy =                 572.6487357973267081
    Total Energy =                       -399.7689510305710883
  Basis Set: (AUG-CC-PVTZ AUX)
    Blend: AUG-CC-PVTZ-RI
    Molecular point group: c1

    Geometry (in Angstrom), charge = 0, multiplicity = 1:

       Center              X                  Y                   Z               Mass
    ------------   -----------------  -----------------  -----------------  -----------------
         O            0.718558070167     1.914307564083    -0.175233958736    15.994914619570
         N            0.357512070167    -0.357804435917    -0.288082958736    14.003074004430
         C            1.793441070167    -0.532696435917    -0.539315958736    12.000000000000
         C           -0.085718929833     0.971926564083    -0.101918958736    12.000000000000
         C           -0.461959929833    -1.447641435917    -0.187345958736    12.000000000000
         C            2.595778070167    -0.468874435917     0.752264041264    12.000000000000
         C           -1.501868929833     1.085196564083     0.162546041264    12.000000000000
         C           -1.796582929833    -1.315174435917     0.081174041264    12.000000000000
         C           -2.319773929833    -0.009044435917     0.258684041264    12.000000000000
         H            1.920956070167    -1.493109435917    -1.046216958736     1.007825032230
         H            2.094908070167     0.267998564083    -1.216721958736     1.007825032230
         H            0.054438470167    -2.422629635917    -0.147025058736     1.007825032230
         H            2.454015070167     0.506082564083     1.220731041264     1.007825032230
         H            2.277701070167    -1.252509435917     1.445330041264     1.007825032230
         H            3.660903070167    -0.603629435917     0.541412041264     1.007825032230
         H           -1.877274929833     2.094879564083     0.295456041264     1.007825032230
         H           -2.423745929833    -2.196656435917     0.149033041264     1.007825032230
         H           -3.378646929833     0.125369564083     0.468469041264     1.007825032230

  Basis Set: AUG-CC-PVTZ
    Blend: AUG-CC-PVTZ
  Basis Set: (AUG-CC-PVTZ AUX)
    Blend: AUG-CC-PVTZ-JKFIT
	 Reference Energy          =    -399.7689510305710883 [Eh]
	 Singles Energy            =      -0.0000000000000000 [Eh]
	 Same-Spin Energy          =      -0.4236491993860519 [Eh]
	 Opposite-Spin Energy      =      -1.3402624134392389 [Eh]
	 Correlation Energy        =      -1.7639116128252907 [Eh]
	 Total Energy              =    -401.5328626433963564 [Eh]

	 ================> DF-SCS-MP2 Energies <==================
	-----------------------------------------------------------
	 SCS Same-Spin Scale       =       0.3333333333333333 [-]
	 SCS Opposite-Spin Scale   =       1.2000000000000000 [-]
	 SCS Same-Spin Energy      =      -0.1412163997953506 [Eh]
	 SCS Opposite-Spin Energy  =      -1.6083148961270866 [Eh]
	 SCS Correlation Energy    =      -1.7495312959224372 [Eh]
	 SCS Total Energy          =    -401.5184823264935403 [Eh]
	-----------------------------------------------------------

  Dipole Moment: [D]
     X:    -0.7516      Y:    -3.7909      Z:     0.1596     Total:     3.8680

*** Psi4 exiting successfully. Buy a developer a beer!
