                               Psi4 1.3.2 release

  ==> Input File <==

--------------------------------------------------------------------------
#psi4
#
memory 32 gb

molecule  {
0 1
  O        0.6831730     1.9514370    -0.1851230
  N        0.3221270    -0.3206750    -0.2979720
  C        1.7580560    -0.4955670    -0.5492050
  C       -0.1211040     1.0090560    -0.1118080
  C       -0.4973450    -1.4105120    -0.1972350
  C        2.5603930    -0.4317450     0.7423750
  C       -1.5461535     1.1261764     0.1036063
  C       -1.8319680    -1.2780450     0.0712850
  C       -2.3551590     0.0280850     0.2487950
  H        1.8855710    -1.4559800    -1.0561060
  H        2.0595230     0.3051280    -1.2266110
  H       -0.0197130    -2.3738180    -0.3527730
  H        2.4186300     0.5432120     1.2108420
  H        2.2423160    -1.2153800     1.4354410
  H        3.6255180    -0.5665000     0.5315230
  H       -1.9126600     2.1320090     0.2855670
  H       -2.4591310    -2.1595270     0.1391440
  H       -3.4140320     0.1624990     0.4585800
units angstrom
no_reorient  #important for SAPT in psi4, default
symmetry c1  #important for SAPT in psi4, default
}

set PROPERTIES_ORIGIN ["COM"]
properties('MP2/aug-cc-pvtz', properties = ['dipole'])
--------------------------------------------------------------------------

    Molecular point group: c1
  Charge       = 0
  Multiplicity = 1
  Basis Set: AUG-CC-PVTZ
    Blend: AUG-CC-PVTZ
  Basis Set: (AUG-CC-PVTZ AUX)
    Blend: AUG-CC-PVTZ-JKFIT

    Orbital Energies [Eh]
    ---------------------

    Doubly Occupied:

       1A    -20.506244     2A    -15.625562     3A    -11.349910
       4A    -11.309027     5A    -11.273860     6A    -11.271027
       7A    -11.240193     8A    -11.237245     9A    -11.221145
      10A     -1.369014    11A     -1.278340    12A     -1.118888
      13A     -1.031195    14A     -1.018015    15A     -0.895510
      16A     -0.870326    17A     -0.824848    18A     -0.714386
      19A     -0.700109    20A     -0.667524    21A     -0.639323
      22A     -0.614659    23A     -0.607289    24A     -0.604797
      25A     -0.560518    26A     -0.538894    27A     -0.529210
      28A     -0.526026    29A     -0.505381    30A     -0.474921
      31A     -0.420964    32A     -0.407551    33A     -0.308831

  @DF-RHF Final Energy:  -399.77073227232637

   => Energetics <=

    Nuclear Repulsion Energy =            437.3664306657479983
    One-Electron Energy =               -1409.7528635473045142
    Two-Electron Energy =                 572.6157006092300890
    Total Energy =                       -399.7707322723264269
  Basis Set: (AUG-CC-PVTZ AUX)
    Blend: AUG-CC-PVTZ-RI
    Molecular point group: c1

    Geometry (in Angstrom), charge = 0, multiplicity = 1:

       Center              X                  Y                   Z               Mass
    ------------   -----------------  -----------------  -----------------  -----------------
         O            0.719743295065     1.913836456902    -0.168847267975    15.994914619570
         N            0.358697295065    -0.358275543098    -0.281696267975    14.003074004430
         C            1.794626295065    -0.533167543098    -0.532929267975    12.000000000000
         C           -0.084533704935     0.971455456902    -0.095532267975    12.000000000000
         C           -0.460774704935    -1.448112543098    -0.180959267975    12.000000000000
         C            2.596963295065    -0.469345543098     0.758650732025    12.000000000000
         C           -1.509583204935     1.088575856902     0.119882032025    12.000000000000
         C           -1.795397704935    -1.315645543098     0.087560732025    12.000000000000
         C           -2.318588704935    -0.009515543098     0.265070732025    12.000000000000
         H            1.922141295065    -1.493580543098    -1.039830267975     1.007825032230
         H            2.096093295065     0.267527456902    -1.210335267975     1.007825032230
         H            0.016857295065    -2.411418543098    -0.336497267975     1.007825032230
         H            2.455200295065     0.505611456902     1.227117732025     1.007825032230
         H            2.278886295065    -1.252980543098     1.451716732025     1.007825032230
         H            3.662088295065    -0.604100543098     0.547798732025     1.007825032230
         H           -1.876089704935     2.094408456902     0.301842732025     1.007825032230
         H           -2.422560704935    -2.197127543098     0.155419732025     1.007825032230
         H           -3.377461704935     0.124898456902     0.474855732025     1.007825032230

  Basis Set: AUG-CC-PVTZ
    Blend: AUG-CC-PVTZ
  Basis Set: (AUG-CC-PVTZ AUX)
    Blend: AUG-CC-PVTZ-JKFIT
	 Reference Energy          =    -399.7707322723263701 [Eh]
	 Singles Energy            =      -0.0000000000000000 [Eh]
	 Same-Spin Energy          =      -0.4234930185965062 [Eh]
	 Opposite-Spin Energy      =      -1.3399260296800406 [Eh]
	 Correlation Energy        =      -1.7634190482765468 [Eh]
	 Total Energy              =    -401.5341513206029163 [Eh]

	 ================> DF-SCS-MP2 Energies <==================
	-----------------------------------------------------------
	 SCS Same-Spin Scale       =       0.3333333333333333 [-]
	 SCS Opposite-Spin Scale   =       1.2000000000000000 [-]
	 SCS Same-Spin Energy      =      -0.1411643395321687 [Eh]
	 SCS Opposite-Spin Energy  =      -1.6079112356160488 [Eh]
	 SCS Correlation Energy    =      -1.7490755751482174 [Eh]
	 SCS Total Energy          =    -401.5198078474745671 [Eh]
	-----------------------------------------------------------

  Dipole Moment: [D]
     X:    -0.7485      Y:    -3.8193      Z:     0.0589     Total:     3.8924

*** Psi4 exiting successfully. Buy a developer a beer!
