                               Psi4 1.3.2 release

  ==> Input File <==

--------------------------------------------------------------------------
#psi4
#
memory 32 gb

molecule  {
0 1
  O        0.6831730     1.9514370    -0.1851230
  N        0.3221270    -0.3206750    -0.2979720
  C        1.7580560    -0.4955670    -0.5492050
  C       -0.1211040     1.0090560    -0.1118080
  C       -0.4973450    -1.4105120    -0.1972350
  C        2.5603930    -0.4317450     0.7423750
  C       -1.5372540     1.1223260     0.1526570
  C       -1.8319680    -1.2780450     0.0712850
  C       -2.3551590     0.0280850     0.2487950
  H        1.8855710    -1.4559800    -1.0561060
  H        2.0595230     0.3051280    -1.2266110
  H       -0.0197130    -2.3738180    -0.3527730
  H        2.4186300     0.5432120     1.2108420
  H        2.2423160    -1.2153800     1.4354410
  H        3.6255180    -0.5665000     0.5315230
  H       -1.9126600     2.1320090     0.2855670
  H       -2.4591310    -2.1595270     0.1391440
  H       -3.4706291     0.1794187     0.1644533
units angstrom
no_reorient  #important for SAPT in psi4, default
symmetry c1  #important for SAPT in psi4, default
}

set PROPERTIES_ORIGIN ["COM"]
properties('MP2/aug-cc-pvtz', properties = ['dipole'])
--------------------------------------------------------------------------

    Molecular point group: c1
  Charge       = 0
  Multiplicity = 1
  Basis Set: AUG-CC-PVTZ
    Blend: AUG-CC-PVTZ
  Basis Set: (AUG-CC-PVTZ AUX)
    Blend: AUG-CC-PVTZ-JKFIT

    Orbital Energies [Eh]
    ---------------------

    Doubly Occupied:

       1A    -20.506731     2A    -15.625715     3A    -11.350345
       4A    -11.308867     5A    -11.274398     6A    -11.274001
       7A    -11.240425     8A    -11.238153     9A    -11.221300
      10A     -1.369443    11A     -1.278588    12A     -1.118816
      13A     -1.031246    14A     -1.018171    15A     -0.894281
      16A     -0.870617    17A     -0.822987    18A     -0.712978
      19A     -0.700580    20A     -0.665292    21A     -0.640385
      22A     -0.609236    23A     -0.607441    24A     -0.605414
      25A     -0.561050    26A     -0.539425    27A     -0.527712
      28A     -0.525227    29A     -0.505481    30A     -0.474464
      31A     -0.423764    32A     -0.404397    33A     -0.309074

  @DF-RHF Final Energy:  -399.76492401319933

   => Energetics <=

    Nuclear Repulsion Energy =            437.2732622787712558
    One-Electron Energy =               -1409.5643702561640112
    Two-Electron Energy =                 572.5261839641934785
    Total Energy =                       -399.7649240131993338
  Basis Set: (AUG-CC-PVTZ AUX)
    Blend: AUG-CC-PVTZ-RI
    Molecular point group: c1

    Geometry (in Angstrom), charge = 0, multiplicity = 1:

       Center              X                  Y                   Z               Mass
    ------------   -----------------  -----------------  -----------------  -----------------
         O            0.719339015654     1.914073338989    -0.171221395826    15.994914619570
         N            0.358293015654    -0.358038661011    -0.284070395826    14.003074004430
         C            1.794222015654    -0.532930661011    -0.535303395826    12.000000000000
         C           -0.084937984346     0.971692338989    -0.097906395826    12.000000000000
         C           -0.461178984346    -1.447875661011    -0.183333395826    12.000000000000
         C            2.596559015654    -0.469108661011     0.756276604174    12.000000000000
         C           -1.501087984346     1.084962338989     0.166558604174    12.000000000000
         C           -1.795801984346    -1.315408661011     0.085186604174    12.000000000000
         C           -2.318992984346    -0.009278661011     0.262696604174    12.000000000000
         H            1.921737015654    -1.493343661011    -1.042204395826     1.007825032230
         H            2.095689015654     0.267764338989    -1.212709395826     1.007825032230
         H            0.016453015654    -2.411181661011    -0.338871395826     1.007825032230
         H            2.454796015654     0.505848338989     1.224743604174     1.007825032230
         H            2.278482015654    -1.252743661011     1.449342604174     1.007825032230
         H            3.661684015654    -0.603863661011     0.545424604174     1.007825032230
         H           -1.876493984346     2.094645338989     0.299468604174     1.007825032230
         H           -2.422964984346    -2.196890661011     0.153045604174     1.007825032230
         H           -3.434463084346     0.142055038989     0.178354904174     1.007825032230

  Basis Set: AUG-CC-PVTZ
    Blend: AUG-CC-PVTZ
  Basis Set: (AUG-CC-PVTZ AUX)
    Blend: AUG-CC-PVTZ-JKFIT
	 Reference Energy          =    -399.7649240131993338 [Eh]
	 Singles Energy            =      -0.0000000000000000 [Eh]
	 Same-Spin Energy          =      -0.4238032467511431 [Eh]
	 Opposite-Spin Energy      =      -1.3407246085588604 [Eh]
	 Correlation Energy        =      -1.7645278553100034 [Eh]
	 Total Energy              =    -401.5294518685093408 [Eh]

	 ================> DF-SCS-MP2 Energies <==================
	-----------------------------------------------------------
	 SCS Same-Spin Scale       =       0.3333333333333333 [-]
	 SCS Opposite-Spin Scale   =       1.2000000000000000 [-]
	 SCS Same-Spin Energy      =      -0.1412677489170477 [Eh]
	 SCS Opposite-Spin Energy  =      -1.6088695302706324 [Eh]
	 SCS Correlation Energy    =      -1.7501372791876801 [Eh]
	 SCS Total Energy          =    -401.5150612923870312 [Eh]
	-----------------------------------------------------------

  Dipole Moment: [D]
     X:    -0.7206      Y:    -3.7994      Z:    -0.1539     Total:     3.8702

*** Psi4 exiting successfully. Buy a developer a beer!
