                               Psi4 1.3.2 release

  ==> Input File <==

--------------------------------------------------------------------------
#psi4
#
memory 32 gb

molecule  {
0 1
  O        0.6831730     1.9514370    -0.1851230
  N        0.3221270    -0.3206750    -0.2979720
  C        1.7580560    -0.4955670    -0.5492050
  C       -0.1211040     1.0090560    -0.1118080
  C       -0.4973450    -1.4105120    -0.1972350
  C        2.5603930    -0.4317450     0.7423750
  C       -1.5372540     1.1223260     0.1526570
  C       -1.8319680    -1.2780450     0.0712850
  C       -2.3551590     0.0280850     0.2487950
  H        1.8855710    -1.4559800    -1.0561060
  H        2.0595230     0.3051280    -1.2266110
  H       -0.0197130    -2.3738180    -0.3527730
  H        2.4186300     0.5432120     1.2108420
  H        2.2423160    -1.2153800     1.4354410
  H        3.6255180    -0.5665000     0.5315230
  H       -1.9126600     2.1320090     0.2855670
  H       -2.4591310    -2.1595270     0.1391440
  H       -3.4234648     0.1653190     0.4095589
units angstrom
no_reorient  #important for SAPT in psi4, default
symmetry c1  #important for SAPT in psi4, default
}

set PROPERTIES_ORIGIN ["COM"]
properties('MP2/aug-cc-pvtz', properties = ['dipole'])
--------------------------------------------------------------------------

    Molecular point group: c1
  Charge       = 0
  Multiplicity = 1
  Basis Set: AUG-CC-PVTZ
    Blend: AUG-CC-PVTZ
  Basis Set: (AUG-CC-PVTZ AUX)
    Blend: AUG-CC-PVTZ-JKFIT

    Orbital Energies [Eh]
    ---------------------

    Doubly Occupied:

       1A    -20.506229     2A    -15.625482     3A    -11.349862
       4A    -11.308827     5A    -11.273803     6A    -11.270702
       7A    -11.240144     8A    -11.237089     9A    -11.221132
      10A     -1.369027    11A     -1.278297    12A     -1.119089
      13A     -1.031349    14A     -1.017993    15A     -0.895567
      16A     -0.870355    17A     -0.824792    18A     -0.714284
      19A     -0.700463    20A     -0.667417    21A     -0.640114
      22A     -0.613355    23A     -0.607391    24A     -0.605296
      25A     -0.560844    26A     -0.538642    27A     -0.529323
      28A     -0.525882    29A     -0.505564    30A     -0.474872
      31A     -0.421436    32A     -0.407462    33A     -0.308775

  @DF-RHF Final Energy:  -399.77135324410472

   => Energetics <=

    Nuclear Repulsion Energy =            437.4286940027663491
    One-Electron Energy =               -1409.8783806705187089
    Two-Electron Energy =                 572.6783334236475866
    Total Energy =                       -399.7713532441047164
  Basis Set: (AUG-CC-PVTZ AUX)
    Blend: AUG-CC-PVTZ-RI
    Molecular point group: c1

    Geometry (in Angstrom), charge = 0, multiplicity = 1:

       Center              X                  Y                   Z               Mass
    ------------   -----------------  -----------------  -----------------  -----------------
         O            0.718952780383     1.914188803471    -0.173228601017    15.994914619570
         N            0.357906780383    -0.357923196529    -0.286077601017    14.003074004430
         C            1.793835780383    -0.532815196529    -0.537310601017    12.000000000000
         C           -0.085324219617     0.971807803471    -0.099913601017    12.000000000000
         C           -0.461565219617    -1.447760196529    -0.185340601017    12.000000000000
         C            2.596172780383    -0.468993196529     0.754269398983    12.000000000000
         C           -1.501474219617     1.085077803471     0.164551398983    12.000000000000
         C           -1.796188219617    -1.315293196529     0.083179398983    12.000000000000
         C           -2.319379219617    -0.009163196529     0.260689398983    12.000000000000
         H            1.921350780383    -1.493228196529    -1.044211601017     1.007825032230
         H            2.095302780383     0.267879803471    -1.214716601017     1.007825032230
         H            0.016066780383    -2.411066196529    -0.340878601017     1.007825032230
         H            2.454409780383     0.505963803471     1.222736398983     1.007825032230
         H            2.278095780383    -1.252628196529     1.447335398983     1.007825032230
         H            3.661297780383    -0.603748196529     0.543417398983     1.007825032230
         H           -1.876880219617     2.094760803471     0.297461398983     1.007825032230
         H           -2.423351219617    -2.196775196529     0.151038398983     1.007825032230
         H           -3.387685019617     0.128070803471     0.421453298983     1.007825032230

  Basis Set: AUG-CC-PVTZ
    Blend: AUG-CC-PVTZ
  Basis Set: (AUG-CC-PVTZ AUX)
    Blend: AUG-CC-PVTZ-JKFIT
	 Reference Energy          =    -399.7713532441047164 [Eh]
	 Singles Energy            =      -0.0000000000000000 [Eh]
	 Same-Spin Energy          =      -0.4234646757174055 [Eh]
	 Opposite-Spin Energy      =      -1.3398645840467744 [Eh]
	 Correlation Energy        =      -1.7633292597641801 [Eh]
	 Total Energy              =    -401.5346825038689076 [Eh]

	 ================> DF-SCS-MP2 Energies <==================
	-----------------------------------------------------------
	 SCS Same-Spin Scale       =       0.3333333333333333 [-]
	 SCS Opposite-Spin Scale   =       1.2000000000000000 [-]
	 SCS Same-Spin Energy      =      -0.1411548919058018 [Eh]
	 SCS Opposite-Spin Energy  =      -1.6078375008561292 [Eh]
	 SCS Correlation Energy    =      -1.7489923927619311 [Eh]
	 SCS Total Energy          =    -401.5203456368666366 [Eh]
	-----------------------------------------------------------

  Dipole Moment: [D]
     X:    -0.7618      Y:    -3.8110      Z:     0.0021     Total:     3.8864

*** Psi4 exiting successfully. Buy a developer a beer!
