                               Psi4 1.3.2 release

  ==> Input File <==

--------------------------------------------------------------------------
#psi4
#
memory 32 gb

molecule  {
0 1
  O        0.6831730     1.9514370    -0.1851230
  N        0.3221270    -0.3206750    -0.2979720
  C        1.7580560    -0.4955670    -0.5492050
  C       -0.1211040     1.0090560    -0.1118080
  C       -0.4973450    -1.4105120    -0.1972350
  C        2.5603930    -0.4317450     0.7423750
  C       -1.5372540     1.1223260     0.1526570
  C       -1.8319680    -1.2780450     0.0712850
  C       -2.3551590     0.0280850     0.2487950
  H        1.8855710    -1.4559800    -1.0561060
  H        2.0595230     0.3051280    -1.2266110
  H       -0.0197130    -2.3738180    -0.3527730
  H        2.4186300     0.5432120     1.2108420
  H        2.2423160    -1.2153800     1.4354410
  H        3.6255180    -0.5665000     0.5315230
  H       -1.9126600     2.1320090     0.2855670
  H       -2.4210819    -2.1711597     0.3351464
  H       -3.4140320     0.1624990     0.4585800
units angstrom
no_reorient  #important for SAPT in psi4, default
symmetry c1  #important for SAPT in psi4, default
}

set PROPERTIES_ORIGIN ["COM"]
properties('MP2/aug-cc-pvtz', properties = ['dipole'])
--------------------------------------------------------------------------

    Molecular point group: c1
  Charge       = 0
  Multiplicity = 1
  Basis Set: AUG-CC-PVTZ
    Blend: AUG-CC-PVTZ
  Basis Set: (AUG-CC-PVTZ AUX)
    Blend: AUG-CC-PVTZ-JKFIT

    Orbital Energies [Eh]
    ---------------------

    Doubly Occupied:

       1A    -20.506589     2A    -15.625831     3A    -11.350136
       4A    -11.309416     5A    -11.274034     6A    -11.270619
       7A    -11.241505     8A    -11.237116     9A    -11.221442
      10A     -1.369339    11A     -1.278629    12A     -1.119027
      13A     -1.031508    14A     -1.017810    15A     -0.895753
      16A     -0.870165    17A     -0.824532    18A     -0.713732
      19A     -0.699687    20A     -0.667646    21A     -0.638483
      22A     -0.613927    23A     -0.607461    24A     -0.605306
      25A     -0.561400    26A     -0.536233    27A     -0.529468
      28A     -0.526092    29A     -0.506557    30A     -0.474173
      31A     -0.421454    32A     -0.407639    33A     -0.308899

  @DF-RHF Final Energy:  -399.76917675697126

   => Energetics <=

    Nuclear Repulsion Energy =            437.3755674032893808
    One-Electron Energy =               -1409.7662698075146182
    Two-Electron Energy =                 572.6215256472539750
    Total Energy =                       -399.7691767569713193
  Basis Set: (AUG-CC-PVTZ AUX)
    Blend: AUG-CC-PVTZ-RI
    Molecular point group: c1

    Geometry (in Angstrom), charge = 0, multiplicity = 1:

       Center              X                  Y                   Z               Mass
    ------------   -----------------  -----------------  -----------------  -----------------
         O            0.718563944240     1.914307158720    -0.175235133879    15.994914619570
         N            0.357517944240    -0.357804841280    -0.288084133879    14.003074004430
         C            1.793446944240    -0.532696841280    -0.539317133879    12.000000000000
         C           -0.085713055760     0.971926158720    -0.101920133879    12.000000000000
         C           -0.461954055760    -1.447641841280    -0.187347133879    12.000000000000
         C            2.595783944240    -0.468874841280     0.752262866121    12.000000000000
         C           -1.501863055760     1.085196158720     0.162544866121    12.000000000000
         C           -1.796577055760    -1.315174841280     0.081172866121    12.000000000000
         C           -2.319768055760    -0.009044841280     0.258682866121    12.000000000000
         H            1.920961944240    -1.493109841280    -1.046218133879     1.007825032230
         H            2.094913944240     0.267998158720    -1.216723133879     1.007825032230
         H            0.015677944240    -2.410947841280    -0.342885133879     1.007825032230
         H            2.454020944240     0.506082158720     1.220729866121     1.007825032230
         H            2.277706944240    -1.252509841280     1.445328866121     1.007825032230
         H            3.660908944240    -0.603629841280     0.541410866121     1.007825032230
         H           -1.877269055760     2.094879158720     0.295454866121     1.007825032230
         H           -2.385690955760    -2.208289541280     0.345034266121     1.007825032230
         H           -3.378641055760     0.125369158720     0.468467866121     1.007825032230

  Basis Set: AUG-CC-PVTZ
    Blend: AUG-CC-PVTZ
  Basis Set: (AUG-CC-PVTZ AUX)
    Blend: AUG-CC-PVTZ-JKFIT
	 Reference Energy          =    -399.7691767569712624 [Eh]
	 Singles Energy            =      -0.0000000000000000 [Eh]
	 Same-Spin Energy          =      -0.4235266721730946 [Eh]
	 Opposite-Spin Energy      =      -1.3400622499623345 [Eh]
	 Correlation Energy        =      -1.7635889221354291 [Eh]
	 Total Energy              =    -401.5327656791067170 [Eh]

	 ================> DF-SCS-MP2 Energies <==================
	-----------------------------------------------------------
	 SCS Same-Spin Scale       =       0.3333333333333333 [-]
	 SCS Opposite-Spin Scale   =       1.2000000000000000 [-]
	 SCS Same-Spin Energy      =      -0.1411755573910315 [Eh]
	 SCS Opposite-Spin Energy  =      -1.6080746999548012 [Eh]
	 SCS Correlation Energy    =      -1.7492502573458328 [Eh]
	 SCS Total Energy          =    -401.5184270143170693 [Eh]
	-----------------------------------------------------------

  Dipole Moment: [D]
     X:    -0.7018      Y:    -3.7930      Z:     0.1705     Total:     3.8611

*** Psi4 exiting successfully. Buy a developer a beer!
