                               Psi4 1.3.2 release

  ==> Input File <==

--------------------------------------------------------------------------
#psi4
#
memory 32 gb

molecule  {
0 1
  O        0.6831730     1.9514370    -0.1851230
  N        0.3221270    -0.3206750    -0.2979720
  C        1.7580560    -0.4955670    -0.5492050
  C       -0.1211040     1.0090560    -0.1118080
  C       -0.4973450    -1.4105120    -0.1972350
  C        2.5603930    -0.4317450     0.7423750
  C       -1.5372540     1.1223260     0.1526570
  C       -1.8319680    -1.2780450     0.0712850
  C       -2.3551590     0.0280850     0.2487950
  H        1.8855710    -1.4559800    -1.0561060
  H        2.0595230     0.3051280    -1.2266110
  H       -0.0100214    -2.3767385    -0.3038083
  H        2.4186300     0.5432120     1.2108420
  H        2.2423160    -1.2153800     1.4354410
  H        3.6255180    -0.5665000     0.5315230
  H       -1.9126600     2.1320090     0.2855670
  H       -2.4591310    -2.1595270     0.1391440
  H       -3.4140320     0.1624990     0.4585800
units angstrom
no_reorient  #important for SAPT in psi4, default
symmetry c1  #important for SAPT in psi4, default
}

set PROPERTIES_ORIGIN ["COM"]
properties('MP2/aug-cc-pvtz', properties = ['dipole'])
--------------------------------------------------------------------------

    Molecular point group: c1
  Charge       = 0
  Multiplicity = 1
  Basis Set: AUG-CC-PVTZ
    Blend: AUG-CC-PVTZ
  Basis Set: (AUG-CC-PVTZ AUX)
    Blend: AUG-CC-PVTZ-JKFIT

    Orbital Energies [Eh]
    ---------------------

    Doubly Occupied:

       1A    -20.506239     2A    -15.625447     3A    -11.349858
       4A    -11.308916     5A    -11.273770     6A    -11.270600
       7A    -11.240161     8A    -11.237081     9A    -11.221192
      10A     -1.369023    11A     -1.278281    12A     -1.119109
      13A     -1.031332    14A     -1.018008    15A     -0.895662
      16A     -0.870233    17A     -0.824846    18A     -0.714462
      19A     -0.700435    20A     -0.666899    21A     -0.640561
      22A     -0.613225    23A     -0.607350    24A     -0.605596
      25A     -0.560526    26A     -0.538836    27A     -0.529689
      28A     -0.525823    29A     -0.505537    30A     -0.474760
      31A     -0.421120    32A     -0.407751    33A     -0.308785

  @DF-RHF Final Energy:  -399.77138254344584

   => Energetics <=

    Nuclear Repulsion Energy =            437.4388316512154802
    One-Electron Energy =               -1409.8982010068141335
    Two-Electron Energy =                 572.6879868121528716
    Total Energy =                       -399.7713825434458386
  Basis Set: (AUG-CC-PVTZ AUX)
    Blend: AUG-CC-PVTZ-RI
    Molecular point group: c1

    Geometry (in Angstrom), charge = 0, multiplicity = 1:

       Center              X                  Y                   Z               Mass
    ------------   -----------------  -----------------  -----------------  -----------------
         O            0.718796167907     1.914235813255    -0.174031020898    15.994914619570
         N            0.357750167907    -0.357876186745    -0.286880020898    14.003074004430
         C            1.793679167907    -0.532768186745    -0.538113020898    12.000000000000
         C           -0.085480832093     0.971854813255    -0.100716020898    12.000000000000
         C           -0.461721832093    -1.447713186745    -0.186143020898    12.000000000000
         C            2.596016167907    -0.468946186745     0.753466979102    12.000000000000
         C           -1.501630832093     1.085124813255     0.163748979102    12.000000000000
         C           -1.796344832093    -1.315246186745     0.082376979102    12.000000000000
         C           -2.319535832093    -0.009116186745     0.259886979102    12.000000000000
         H            1.921194167907    -1.493181186745    -1.045014020898     1.007825032230
         H            2.095146167907     0.267926813255    -1.215519020898     1.007825032230
         H            0.025601767907    -2.413939686745    -0.292716320898     1.007825032230
         H            2.454253167907     0.506010813255     1.221933979102     1.007825032230
         H            2.277939167907    -1.252581186745     1.446532979102     1.007825032230
         H            3.661141167907    -0.603701186745     0.542614979102     1.007825032230
         H           -1.877036832093     2.094807813255     0.296658979102     1.007825032230
         H           -2.423507832093    -2.196728186745     0.150235979102     1.007825032230
         H           -3.378408832093     0.125297813255     0.469671979102     1.007825032230

  Basis Set: AUG-CC-PVTZ
    Blend: AUG-CC-PVTZ
  Basis Set: (AUG-CC-PVTZ AUX)
    Blend: AUG-CC-PVTZ-JKFIT
	 Reference Energy          =    -399.7713825434458386 [Eh]
	 Singles Energy            =      -0.0000000000000000 [Eh]
	 Same-Spin Energy          =      -0.4234641003178519 [Eh]
	 Opposite-Spin Energy      =      -1.3398608164660066 [Eh]
	 Correlation Energy        =      -1.7633249167838585 [Eh]
	 Total Energy              =    -401.5347074602296971 [Eh]

	 ================> DF-SCS-MP2 Energies <==================
	-----------------------------------------------------------
	 SCS Same-Spin Scale       =       0.3333333333333333 [-]
	 SCS Opposite-Spin Scale   =       1.2000000000000000 [-]
	 SCS Same-Spin Energy      =      -0.1411547001059506 [Eh]
	 SCS Opposite-Spin Energy  =      -1.6078329797592079 [Eh]
	 SCS Correlation Energy    =      -1.7489876798651585 [Eh]
	 SCS Total Energy          =    -401.5203702233109766 [Eh]
	-----------------------------------------------------------

  Dipole Moment: [D]
     X:    -0.7524      Y:    -3.8127      Z:     0.0632     Total:     3.8868

*** Psi4 exiting successfully. Buy a developer a beer!
