                               Psi4 1.3.2 release

  ==> Input File <==

--------------------------------------------------------------------------
#psi4
#
memory 32 gb

molecule  {
0 1
  O        0.6831730     1.9514370    -0.1851230
  N        0.3221270    -0.3206750    -0.2979720
  C        1.7580560    -0.4955670    -0.5492050
  C       -0.1211040     1.0090560    -0.1118080
  C       -0.4973450    -1.4105120    -0.1972350
  C        2.5603930    -0.4317450     0.7423750
  C       -1.5372540     1.1223260     0.1526570
  C       -1.8319680    -1.2780450     0.0712850
  C       -2.3551590     0.0280850     0.2487950
  H        1.8855710    -1.4559800    -1.0561060
  H        2.0595230     0.3051280    -1.2266110
  H       -0.0197130    -2.3738180    -0.3527730
  H        2.4186300     0.5432120     1.2108420
  H        2.2423160    -1.2153800     1.4354410
  H        3.6255180    -0.5665000     0.5315230
  H       -1.9126600     2.1320090     0.2855670
  H       -2.4591310    -2.1595270     0.1391440
  H       -3.4423305     0.1709589     0.3115167
units angstrom
no_reorient  #important for SAPT in psi4, default
symmetry c1  #important for SAPT in psi4, default
}

set PROPERTIES_ORIGIN ["COM"]
properties('MP2/aug-cc-pvtz', properties = ['dipole'])
--------------------------------------------------------------------------

    Molecular point group: c1
  Charge       = 0
  Multiplicity = 1
  Basis Set: AUG-CC-PVTZ
    Blend: AUG-CC-PVTZ
  Basis Set: (AUG-CC-PVTZ AUX)
    Blend: AUG-CC-PVTZ-JKFIT

    Orbital Energies [Eh]
    ---------------------

    Doubly Occupied:

       1A    -20.506339     2A    -15.625534     3A    -11.349968
       4A    -11.308832     5A    -11.273847     6A    -11.271567
       7A    -11.240207     8A    -11.237332     9A    -11.221169
      10A     -1.369120    11A     -1.278361    12A     -1.119016
      13A     -1.031315    14A     -1.018031    15A     -0.895240
      16A     -0.870413    17A     -0.824337    18A     -0.713921
      19A     -0.700482    20A     -0.666964    21A     -0.640327
      22A     -0.611925    23A     -0.607427    24A     -0.605339
      25A     -0.561285    26A     -0.538923    27A     -0.528506
      28A     -0.525882    29A     -0.505545    30A     -0.474746
      31A     -0.422245    32A     -0.406534    33A     -0.308841

  @DF-RHF Final Energy:  -399.76998879833940

   => Energetics <=

    Nuclear Repulsion Energy =            437.3905031477730176
    One-Electron Energy =               -1409.8019431024263213
    Two-Electron Energy =                 572.6414511563139058
    Total Energy =                       -399.7699887983394547
  Basis Set: (AUG-CC-PVTZ AUX)
    Blend: AUG-CC-PVTZ-RI
    Molecular point group: c1

    Geometry (in Angstrom), charge = 0, multiplicity = 1:

       Center              X                  Y                   Z               Mass
    ------------   -----------------  -----------------  -----------------  -----------------
         O            0.719107274328     1.914142617515    -0.172425719268    15.994914619570
         N            0.358061274328    -0.357969382485    -0.285274719268    14.003074004430
         C            1.793990274328    -0.532861382485    -0.536507719268    12.000000000000
         C           -0.085169725672     0.971761617515    -0.099110719268    12.000000000000
         C           -0.461410725672    -1.447806382485    -0.184537719268    12.000000000000
         C            2.596327274328    -0.469039382485     0.755072280732    12.000000000000
         C           -1.501319725672     1.085031617515     0.165354280732    12.000000000000
         C           -1.796033725672    -1.315339382485     0.083982280732    12.000000000000
         C           -2.319224725672    -0.009209382485     0.261492280732    12.000000000000
         H            1.921505274328    -1.493274382485    -1.043408719268     1.007825032230
         H            2.095457274328     0.267833617515    -1.213913719268     1.007825032230
         H            0.016221274328    -2.411112382485    -0.340075719268     1.007825032230
         H            2.454564274328     0.505917617515     1.223539280732     1.007825032230
         H            2.278250274328    -1.252674382485     1.448138280732     1.007825032230
         H            3.661452274328    -0.603794382485     0.544220280732     1.007825032230
         H           -1.876725725672     2.094714617515     0.298264280732     1.007825032230
         H           -2.423196725672    -2.196821382485     0.151841280732     1.007825032230
         H           -3.406396225672     0.133664517515     0.324213980732     1.007825032230

  Basis Set: AUG-CC-PVTZ
    Blend: AUG-CC-PVTZ
  Basis Set: (AUG-CC-PVTZ AUX)
    Blend: AUG-CC-PVTZ-JKFIT
	 Reference Energy          =    -399.7699887983393978 [Eh]
	 Singles Energy            =      -0.0000000000000000 [Eh]
	 Same-Spin Energy          =      -0.4235424292791762 [Eh]
	 Opposite-Spin Energy      =      -1.3400504660186709 [Eh]
	 Correlation Energy        =      -1.7635928952978470 [Eh]
	 Total Energy              =    -401.5335816936372453 [Eh]

	 ================> DF-SCS-MP2 Energies <==================
	-----------------------------------------------------------
	 SCS Same-Spin Scale       =       0.3333333333333333 [-]
	 SCS Opposite-Spin Scale   =       1.2000000000000000 [-]
	 SCS Same-Spin Energy      =      -0.1411808097597254 [Eh]
	 SCS Opposite-Spin Energy  =      -1.6080605592224051 [Eh]
	 SCS Correlation Energy    =      -1.7492413689821305 [Eh]
	 SCS Total Energy          =    -401.5192301673215525 [Eh]
	-----------------------------------------------------------

  Dipole Moment: [D]
     X:    -0.7570      Y:    -3.8067      Z:    -0.0594     Total:     3.8817

*** Psi4 exiting successfully. Buy a developer a beer!
