                               Psi4 1.3.2 release

  ==> Input File <==

--------------------------------------------------------------------------
#psi4
#
memory 32 gb

molecule  {
0 1
  O        0.6831730     1.9514370    -0.1851230
  N        0.3221270    -0.3206750    -0.2979720
  C        1.7580560    -0.4955670    -0.5492050
  C       -0.1211040     1.0090560    -0.1118080
  C       -0.4973450    -1.4105120    -0.1972350
  C        2.5603930    -0.4317450     0.7423750
  C       -1.5639526     1.1338771     0.0055048
  C       -1.8319680    -1.2780450     0.0712850
  C       -2.3551590     0.0280850     0.2487950
  H        1.8855710    -1.4559800    -1.0561060
  H        2.0595230     0.3051280    -1.2266110
  H       -0.0197130    -2.3738180    -0.3527730
  H        2.4186300     0.5432120     1.2108420
  H        2.2423160    -1.2153800     1.4354410
  H        3.6255180    -0.5665000     0.5315230
  H       -1.9126600     2.1320090     0.2855670
  H       -2.4591310    -2.1595270     0.1391440
  H       -3.4140320     0.1624990     0.4585800
units angstrom
no_reorient  #important for SAPT in psi4, default
symmetry c1  #important for SAPT in psi4, default
}

set PROPERTIES_ORIGIN ["COM"]
properties('MP2/aug-cc-pvtz', properties = ['dipole'])
--------------------------------------------------------------------------

    Molecular point group: c1
  Charge       = 0
  Multiplicity = 1
  Basis Set: AUG-CC-PVTZ
    Blend: AUG-CC-PVTZ
  Basis Set: (AUG-CC-PVTZ AUX)
    Blend: AUG-CC-PVTZ-JKFIT

    Orbital Energies [Eh]
    ---------------------

    Doubly Occupied:

       1A    -20.506607     2A    -15.625878     3A    -11.350532
       4A    -11.310269     5A    -11.274135     6A    -11.273282
       7A    -11.240442     8A    -11.238450     9A    -11.221298
      10A     -1.369079    11A     -1.278649    12A     -1.117982
      13A     -1.030399    14A     -1.017924    15A     -0.895034
      16A     -0.870051    17A     -0.824375    18A     -0.714234
      19A     -0.698397    20A     -0.667488    21A     -0.637598
      22A     -0.615778    23A     -0.607117    24A     -0.603280
      25A     -0.560462    26A     -0.538731    27A     -0.528490
      28A     -0.525481    29A     -0.504928    30A     -0.474897
      31A     -0.420279    32A     -0.406681    33A     -0.309251

  @DF-RHF Final Energy:  -399.76507445529575

   => Energetics <=

    Nuclear Repulsion Energy =            437.0592708369878778
    One-Electron Energy =               -1409.1337409870047850
    Two-Electron Energy =                 572.3093956947211609
    Total Energy =                       -399.7650744552956894
  Basis Set: (AUG-CC-PVTZ AUX)
    Blend: AUG-CC-PVTZ-RI
    Molecular point group: c1

    Geometry (in Angstrom), charge = 0, multiplicity = 1:

       Center              X                  Y                   Z               Mass
    ------------   -----------------  -----------------  -----------------  -----------------
         O            0.721478827304     1.913085586739    -0.159281710391    15.994914619570
         N            0.360432827304    -0.359026413261    -0.272130710391    14.003074004430
         C            1.796361827304    -0.533918413261    -0.523363710391    12.000000000000
         C           -0.082798172696     0.970704586739    -0.085966710391    12.000000000000
         C           -0.459039172696    -1.448863413261    -0.171393710391    12.000000000000
         C            2.598698827304    -0.470096413261     0.768216289609    12.000000000000
         C           -1.525646772696     1.095525686739     0.031346089609    12.000000000000
         C           -1.793662172696    -1.316396413261     0.097126289609    12.000000000000
         C           -2.316853172696    -0.010266413261     0.274636289609    12.000000000000
         H            1.923876827304    -1.494331413261    -1.030264710391     1.007825032230
         H            2.097828827304     0.266776586739    -1.200769710391     1.007825032230
         H            0.018592827304    -2.412169413261    -0.326931710391     1.007825032230
         H            2.456935827304     0.504860586739     1.236683289609     1.007825032230
         H            2.280621827304    -1.253731413261     1.461282289609     1.007825032230
         H            3.663823827304    -0.604851413261     0.557364289609     1.007825032230
         H           -1.874354172696     2.093657586739     0.311408289609     1.007825032230
         H           -2.420825172696    -2.197878413261     0.164985289609     1.007825032230
         H           -3.375726172696     0.124147586739     0.484421289609     1.007825032230

  Basis Set: AUG-CC-PVTZ
    Blend: AUG-CC-PVTZ
  Basis Set: (AUG-CC-PVTZ AUX)
    Blend: AUG-CC-PVTZ-JKFIT
	 Reference Energy          =    -399.7650744552957462 [Eh]
	 Singles Energy            =      -0.0000000000000000 [Eh]
	 Same-Spin Energy          =      -0.4237119596599901 [Eh]
	 Opposite-Spin Energy      =      -1.3405785175149232 [Eh]
	 Correlation Energy        =      -1.7642904771749133 [Eh]
	 Total Energy              =    -401.5293649324706848 [Eh]

	 ================> DF-SCS-MP2 Energies <==================
	-----------------------------------------------------------
	 SCS Same-Spin Scale       =       0.3333333333333333 [-]
	 SCS Opposite-Spin Scale   =       1.2000000000000000 [-]
	 SCS Same-Spin Energy      =      -0.1412373198866634 [Eh]
	 SCS Opposite-Spin Energy  =      -1.6086942210179078 [Eh]
	 SCS Correlation Energy    =      -1.7499315409045713 [Eh]
	 SCS Total Energy          =    -401.5150059962003297 [Eh]
	-----------------------------------------------------------

  Dipole Moment: [D]
     X:    -0.7055      Y:    -3.8522      Z:     0.1102     Total:     3.9179

*** Psi4 exiting successfully. Buy a developer a beer!
