                               Psi4 1.3.2 release

  ==> Input File <==

--------------------------------------------------------------------------
#psi4
#
memory 32 gb

molecule  {
0 1
  O       -0.6467090    -0.6144430     0.3058120
  C        0.4069483     0.0934675    -0.3496024
  C        0.5644410     1.5011670     0.1737700
  C        1.6750880    -0.7518830    -0.0055480
  C       -1.8974657    -0.1717043    -0.1916738
  H        0.2726320     0.0717710    -1.4127660
  H        1.4331760     1.9888470    -0.2778400
  H       -0.3172630     2.0976310    -0.0716710
  H        0.6895750     1.4983760     1.2598990
  H        2.5618320    -0.3160490    -0.4739570
  H        1.5508300    -1.7754430    -0.3646470
  H        1.8280100    -0.7808700     1.0763770
  H       -2.1698190     0.8207490     0.1407760
  H       -2.6461150    -0.8861890     0.2817560
  H       -1.9832420    -0.2722450    -1.2561780
units angstrom
no_reorient  #important for SAPT in psi4, default
symmetry c1  #important for SAPT in psi4, default
}

set PROPERTIES_ORIGIN ["COM"]
properties('MP2/aug-cc-pvtz', properties = ['dipole'])
--------------------------------------------------------------------------

    Molecular point group: c1
  Charge       = 0
  Multiplicity = 1
  Basis Set: AUG-CC-PVTZ
    Blend: AUG-CC-PVTZ
  Basis Set: (AUG-CC-PVTZ AUX)
    Blend: AUG-CC-PVTZ-JKFIT

    Orbital Energies [Eh]
    ---------------------

    Doubly Occupied:

       1A    -20.553115     2A    -11.274823     3A    -11.266396
       4A    -11.213455     5A    -11.208693     6A     -1.369068
       7A     -1.046287     8A     -0.939540     9A     -0.907380
      10A     -0.797971    11A     -0.671232    12A     -0.637264
      13A     -0.626298    14A     -0.587949    15A     -0.547354
      16A     -0.541040    17A     -0.524643    18A     -0.501281
      19A     -0.478859    20A     -0.458924    21A     -0.421641

  @DF-RHF Final Energy:  -232.22415220821142

   => Energetics <=

    Nuclear Repulsion Energy =            196.7088368628082833
    One-Electron Energy =                -704.7195522879462715
    Two-Electron Energy =                 275.7865632169265382
    Total Energy =                       -232.2241522082114216
  Basis Set: (AUG-CC-PVTZ AUX)
    Blend: AUG-CC-PVTZ-RI
    Molecular point group: c1

    Geometry (in Angstrom), charge = 0, multiplicity = 1:

       Center              X                  Y                   Z               Mass
    ------------   -----------------  -----------------  -----------------  -----------------
         O           -0.644997766191    -0.623762510360     0.315154903336    15.994914619570
         C            0.408659533809     0.084147989640    -0.340259496664    12.000000000000
         C            0.566152233809     1.491847489640     0.183112903336    12.000000000000
         C            1.676799233809    -0.761202510360     0.003794903336    12.000000000000
         C           -1.895754466191    -0.181023810360    -0.182330896664    12.000000000000
         H            0.274343233809     0.062451489640    -1.403423096664     1.007825032230
         H            1.434887233809     1.979527489640    -0.268497096664     1.007825032230
         H           -0.315551766191     2.088311489640    -0.062328096664     1.007825032230
         H            0.691286233809     1.489056489640     1.269241903336     1.007825032230
         H            2.563543233809    -0.325368510360    -0.464614096664     1.007825032230
         H            1.552541233809    -1.784762510360    -0.355304096664     1.007825032230
         H            1.829721233809    -0.790189510360     1.085719903336     1.007825032230
         H           -2.168107766191     0.811429489640     0.150118903336     1.007825032230
         H           -2.644403766191    -0.895508510360     0.291098903336     1.007825032230
         H           -1.981530766191    -0.281564510360    -1.246835096664     1.007825032230

  Basis Set: AUG-CC-PVTZ
    Blend: AUG-CC-PVTZ
  Basis Set: (AUG-CC-PVTZ AUX)
    Blend: AUG-CC-PVTZ-JKFIT
	 Reference Energy          =    -232.2241522082114216 [Eh]
	 Singles Energy            =      -0.0000000000000000 [Eh]
	 Same-Spin Energy          =      -0.2321062121574503 [Eh]
	 Opposite-Spin Energy      =      -0.8262496232017146 [Eh]
	 Correlation Energy        =      -1.0583558353591649 [Eh]
	 Total Energy              =    -233.2825080435705729 [Eh]

	 ================> DF-SCS-MP2 Energies <==================
	-----------------------------------------------------------
	 SCS Same-Spin Scale       =       0.3333333333333333 [-]
	 SCS Opposite-Spin Scale   =       1.2000000000000000 [-]
	 SCS Same-Spin Energy      =      -0.0773687373858168 [Eh]
	 SCS Opposite-Spin Energy  =      -0.9914995478420574 [Eh]
	 SCS Correlation Energy    =      -1.0688682852278741 [Eh]
	 SCS Total Energy          =    -233.2930204934392862 [Eh]
	-----------------------------------------------------------

  Dipole Moment: [D]
     X:    -0.1337      Y:     1.0175      Z:    -0.9751     Total:     1.4156

*** Psi4 exiting successfully. Buy a developer a beer!
