                               Psi4 1.3.2 release

  ==> Input File <==

--------------------------------------------------------------------------
#psi4
#
memory 32 gb

molecule  {
0 1
  O       -0.6411643    -0.5701316     0.3270740
  C        0.4399360     0.0677150    -0.3224890
  C        0.5644410     1.5011670     0.1737700
  C        1.6750880    -0.7518830    -0.0055480
  C       -1.9198900    -0.2034790    -0.1611150
  H        0.2726320     0.0717710    -1.4127660
  H        1.4331760     1.9888470    -0.2778400
  H       -0.3172630     2.0976310    -0.0716710
  H        0.6895750     1.4983760     1.2598990
  H        2.5618320    -0.3160490    -0.4739570
  H        1.5508300    -1.7754430    -0.3646470
  H        1.8280100    -0.7808700     1.0763770
  H       -2.1360456     0.8230065     0.1586506
  H       -2.6461150    -0.8861890     0.2817560
  H       -1.9832420    -0.2722450    -1.2561780
units angstrom
no_reorient  #important for SAPT in psi4, default
symmetry c1  #important for SAPT in psi4, default
}

set PROPERTIES_ORIGIN ["COM"]
properties('MP2/aug-cc-pvtz', properties = ['dipole'])
--------------------------------------------------------------------------

    Molecular point group: c1
  Charge       = 0
  Multiplicity = 1
  Basis Set: AUG-CC-PVTZ
    Blend: AUG-CC-PVTZ
  Basis Set: (AUG-CC-PVTZ AUX)
    Blend: AUG-CC-PVTZ-JKFIT

    Orbital Energies [Eh]
    ---------------------

    Doubly Occupied:

       1A    -20.547667     2A    -11.275108     3A    -11.267625
       4A    -11.210955     5A    -11.208477     6A     -1.369617
       7A     -1.050294     8A     -0.939507     9A     -0.912197
      10A     -0.789795    11A     -0.668483    12A     -0.636643
      13A     -0.634877    14A     -0.585848    15A     -0.547008
      16A     -0.539306    17A     -0.527571    18A     -0.499281
      19A     -0.489548    20A     -0.458954    21A     -0.412986

  @DF-RHF Final Energy:  -232.23035787002388

   => Energetics <=

    Nuclear Repulsion Energy =            197.0750188038357464
    One-Electron Energy =                -705.4672547599468544
    Two-Electron Energy =                 276.1618780860871993
    Total Energy =                       -232.2303578700239086
  Basis Set: (AUG-CC-PVTZ AUX)
    Blend: AUG-CC-PVTZ-RI
    Molecular point group: c1

    Geometry (in Angstrom), charge = 0, multiplicity = 1:

       Center              X                  Y                   Z               Mass
    ------------   -----------------  -----------------  -----------------  -----------------
         O           -0.642821161522    -0.579730642425     0.322239505289    15.994914619570
         C            0.438279138478     0.058115957575    -0.327323494711    12.000000000000
         C            0.562784138478     1.491567957575     0.168935505289    12.000000000000
         C            1.673431138478    -0.761482042425    -0.010382494711    12.000000000000
         C           -1.921546861522    -0.213078042425    -0.165949494711    12.000000000000
         H            0.270975138478     0.062171957575    -1.417600494711     1.007825032230
         H            1.431519138478     1.979247957575    -0.282674494711     1.007825032230
         H           -0.318919861522     2.088031957575    -0.076505494711     1.007825032230
         H            0.687918138478     1.488776957575     1.255064505289     1.007825032230
         H            2.560175138478    -0.325648042425    -0.478791494711     1.007825032230
         H            1.549173138478    -1.785042042425    -0.369481494711     1.007825032230
         H            1.826353138478    -0.790469042425     1.071542505289     1.007825032230
         H           -2.137702461522     0.813407457575     0.153816105289     1.007825032230
         H           -2.647771861522    -0.895788042425     0.276921505289     1.007825032230
         H           -1.984898861522    -0.281844042425    -1.261012494711     1.007825032230

  Basis Set: AUG-CC-PVTZ
    Blend: AUG-CC-PVTZ
  Basis Set: (AUG-CC-PVTZ AUX)
    Blend: AUG-CC-PVTZ-JKFIT
	 Reference Energy          =    -232.2303578700238802 [Eh]
	 Singles Energy            =      -0.0000000000000000 [Eh]
	 Same-Spin Energy          =      -0.2318155322740753 [Eh]
	 Opposite-Spin Energy      =      -0.8250287460591248 [Eh]
	 Correlation Energy        =      -1.0568442783331999 [Eh]
	 Total Energy              =    -233.2872021483570677 [Eh]

	 ================> DF-SCS-MP2 Energies <==================
	-----------------------------------------------------------
	 SCS Same-Spin Scale       =       0.3333333333333333 [-]
	 SCS Opposite-Spin Scale   =       1.2000000000000000 [-]
	 SCS Same-Spin Energy      =      -0.0772718440913584 [Eh]
	 SCS Opposite-Spin Energy  =      -0.9900344952709497 [Eh]
	 SCS Correlation Energy    =      -1.0673063393623081 [Eh]
	 SCS Total Energy          =    -233.2976642093861983 [Eh]
	-----------------------------------------------------------

  Dipole Moment: [D]
     X:    -0.1489      Y:     0.8162      Z:    -0.9495     Total:     1.2609

*** Psi4 exiting successfully. Buy a developer a beer!
