                               Psi4 1.4a3.dev225

  ==> Input File <==

--------------------------------------------------------------------------
#psi4
#
memory 32 gb

molecule  {
0 1
  O        0.6924960    -0.5875230    -0.3608950
  C       -0.4202860    -0.0035560     0.3217990
  C       -0.6455470     1.4424380    -0.1023830
  C       -1.6101390    -0.8855300    -0.0083720
  C        1.9676959    -0.1049425     0.0962893
  H       -0.2277260    -0.0393910     1.4076130
  H       -1.5338460     1.8513180     0.3888140
  H        0.2023140     2.0815700     0.1563940
  H       -0.7932070     1.4834700    -1.1853400
  H       -2.5107390    -0.5301980     0.5006670
  H       -1.4118310    -1.9151080     0.2974910
  H       -1.7878760    -0.8729080    -1.0872030
  H        2.1245420     0.9377980    -0.1772120
  H        2.7055770    -0.7281970    -0.3993780
  H        2.0488910    -0.2183520     1.1794680
units angstrom
no_reorient  #important for SAPT in psi4, default
symmetry c1  #important for SAPT in psi4, default
}

set PROPERTIES_ORIGIN ["COM"]
properties('MP2/aug-cc-pvtz', properties = ['dipole'])
--------------------------------------------------------------------------

    Molecular point group: c1
  Charge       = 0
  Multiplicity = 1
  Basis Set: AUG-CC-PVTZ
    Blend: AUG-CC-PVTZ
  Basis Set: (AUG-CC-PVTZ AUX)
    Blend: AUG-CC-PVTZ-JKFIT

    Orbital Energies [Eh]
    ---------------------

    Doubly Occupied:

       1A    -20.548274     2A    -11.275924     3A    -11.266536
       4A    -11.213088     5A    -11.208368     6A     -1.357820
       7A     -1.048472     8A     -0.940319     9A     -0.912087
      10A     -0.788412    11A     -0.664708    12A     -0.633772
      13A     -0.628124    14A     -0.587321    15A     -0.549809
      16A     -0.539417    17A     -0.524176    18A     -0.497239
      19A     -0.490473    20A     -0.458671    21A     -0.416517

  @DF-RHF Final Energy:  -232.22975687082806

   => Energetics <=

    Nuclear Repulsion Energy =            196.1060661321182295
    One-Electron Energy =                -703.5725887133596643
    Two-Electron Energy =                 275.2367657104133514
    Total Energy =                       -232.2297568708280551
  Basis Set: (AUG-CC-PVTZ AUX)
    Blend: AUG-CC-PVTZ-RI
    Molecular point group: c1

    Geometry (in Angstrom), charge = 0, multiplicity = 1:

       Center              X                  Y                   Z               Mass
    ------------   -----------------  -----------------  -----------------  -----------------
         O            0.673812632926    -0.561191967813    -0.347466252956    15.994914619570
         C           -0.438969367074     0.022775032187     0.335227747044    12.000000000000
         C           -0.664230367074     1.468769032187    -0.088954252956    12.000000000000
         C           -1.628822367074    -0.859198967813     0.005056747044    12.000000000000
         C            1.949012532926    -0.078611467813     0.109718047044    12.000000000000
         H           -0.246409367074    -0.013059967813     1.421041747044     1.007825032230
         H           -1.552529367074     1.877649032187     0.402242747044     1.007825032230
         H            0.183630632926     2.107901032187     0.169822747044     1.007825032230
         H           -0.811890367074     1.509801032187    -1.171911252956     1.007825032230
         H           -2.529422367074    -0.503866967813     0.514095747044     1.007825032230
         H           -1.430514367074    -1.888776967813     0.310919747044     1.007825032230
         H           -1.806559367074    -0.846576967813    -1.073774252956     1.007825032230
         H            2.105858632926     0.964129032187    -0.163783252956     1.007825032230
         H            2.686893632926    -0.701865967813    -0.385949252956     1.007825032230
         H            2.030207632926    -0.192020967813     1.192896747044     1.007825032230

  Basis Set: AUG-CC-PVTZ
    Blend: AUG-CC-PVTZ
  Basis Set: (AUG-CC-PVTZ AUX)
    Blend: AUG-CC-PVTZ-JKFIT
	 Reference Energy          =    -232.2297568708280551 [Eh]
	 Singles Energy            =      -0.0000000000000000 [Eh]
	 Same-Spin Energy          =      -0.2318863694186503 [Eh]
	 Opposite-Spin Energy      =      -0.8258219115454005 [Eh]
	 Correlation Energy        =      -1.0577082809640508 [Eh]
	 Total Energy              =    -233.2874651517921052 [Eh]

	 ================> DF-SCS-MP2 Energies <==================
	-----------------------------------------------------------
	 SCS Same-Spin Scale       =       0.3333333333333333 [-]
	 SCS Opposite-Spin Scale   =       1.2000000000000000 [-]
	 SCS Same-Spin Energy      =      -0.0772954564728834 [Eh]
	 SCS Opposite-Spin Energy  =      -0.9909862938544806 [Eh]
	 SCS Correlation Energy    =      -1.0682817503273641 [Eh]
	 SCS Total Energy          =    -233.2980386211554276 [Eh]
	-----------------------------------------------------------

  Dipole Moment: [D]
     X:     0.1318      Y:     0.9222      Z:     0.9604     Total:     1.3380

*** Psi4 exiting successfully. Buy a developer a beer!
