                               Psi4 1.3.2 release

  ==> Input File <==

--------------------------------------------------------------------------
#psi4
#
memory 32 gb

molecule  {
0 1
  O       -0.6437423    -0.5923465     0.3165157
  C        0.4399360     0.0677150    -0.3224890
  C        0.5644410     1.5011670     0.1737700
  C        1.6750880    -0.7518830    -0.0055480
  C       -1.9198900    -0.2034790    -0.1611150
  H        0.2726320     0.0717710    -1.4127660
  H        1.4331760     1.9888470    -0.2778400
  H       -0.3172630     2.0976310    -0.0716710
  H        0.6895750     1.4983760     1.2598990
  H        2.5618320    -0.3160490    -0.4739570
  H        1.5508300    -1.7754430    -0.3646470
  H        1.8280100    -0.7808700     1.0763770
  H       -2.1529678     0.8220339     0.1497606
  H       -2.6461150    -0.8861890     0.2817560
  H       -1.9832420    -0.2722450    -1.2561780
units angstrom
no_reorient  #important for SAPT in psi4, default
symmetry c1  #important for SAPT in psi4, default
}

set PROPERTIES_ORIGIN ["COM"]
properties('MP2/aug-cc-pvtz', properties = ['dipole'])
--------------------------------------------------------------------------

    Molecular point group: c1
  Charge       = 0
  Multiplicity = 1
  Basis Set: AUG-CC-PVTZ
    Blend: AUG-CC-PVTZ
  Basis Set: (AUG-CC-PVTZ AUX)
    Blend: AUG-CC-PVTZ-JKFIT

    Orbital Energies [Eh]
    ---------------------

    Doubly Occupied:

       1A    -20.548708     2A    -11.275785     3A    -11.267145
       4A    -11.212049     5A    -11.208580     6A     -1.367604
       7A     -1.050574     8A     -0.940104     9A     -0.911350
      10A     -0.789963    11A     -0.668244    12A     -0.635070
      13A     -0.633845    14A     -0.586609    15A     -0.547801
      16A     -0.539842    17A     -0.526691    18A     -0.498305
      19A     -0.489123    20A     -0.459626    21A     -0.414761

  @DF-RHF Final Energy:  -232.23074501766339

   => Energetics <=

    Nuclear Repulsion Energy =            196.8401801286943282
    One-Electron Energy =                -704.9982910353899115
    Two-Electron Energy =                 275.9273658890322167
    Total Energy =                       -232.2307450176633665
  Basis Set: (AUG-CC-PVTZ AUX)
    Blend: AUG-CC-PVTZ-RI
    Molecular point group: c1

    Geometry (in Angstrom), charge = 0, multiplicity = 1:

       Center              X                  Y                   Z               Mass
    ------------   -----------------  -----------------  -----------------  -----------------
         O           -0.644612243525    -0.597135357256     0.314082056822    15.994914619570
         C            0.439066056475     0.062926142744    -0.324922643178    12.000000000000
         C            0.563571056475     1.496378142744     0.171336356822    12.000000000000
         C            1.674218056475    -0.756671857256    -0.007981643178    12.000000000000
         C           -1.920759943525    -0.208267857256    -0.163548643178    12.000000000000
         H            0.271762056475     0.066982142744    -1.415199643178     1.007825032230
         H            1.432306056475     1.984058142744    -0.280273643178     1.007825032230
         H           -0.318132943525     2.092842142744    -0.074104643178     1.007825032230
         H            0.688705056475     1.493587142744     1.257465356822     1.007825032230
         H            2.560962056475    -0.320837857256    -0.476390643178     1.007825032230
         H            1.549960056475    -1.780231857256    -0.367080643178     1.007825032230
         H            1.827140056475    -0.785658857256     1.073943356822     1.007825032230
         H           -2.153837743525     0.817245042744     0.147326956822     1.007825032230
         H           -2.646984943525    -0.890977857256     0.279322356822     1.007825032230
         H           -1.984111943525    -0.277033857256    -1.258611643178     1.007825032230

  Basis Set: AUG-CC-PVTZ
    Blend: AUG-CC-PVTZ
  Basis Set: (AUG-CC-PVTZ AUX)
    Blend: AUG-CC-PVTZ-JKFIT
	 Reference Energy          =    -232.2307450176633949 [Eh]
	 Singles Energy            =      -0.0000000000000000 [Eh]
	 Same-Spin Energy          =      -0.2318453070410428 [Eh]
	 Opposite-Spin Energy      =      -0.8252093687433568 [Eh]
	 Correlation Energy        =      -1.0570546757843997 [Eh]
	 Total Energy              =    -233.2877996934477949 [Eh]

	 ================> DF-SCS-MP2 Energies <==================
	-----------------------------------------------------------
	 SCS Same-Spin Scale       =       0.3333333333333333 [-]
	 SCS Opposite-Spin Scale   =       1.2000000000000000 [-]
	 SCS Same-Spin Energy      =      -0.0772817690136809 [Eh]
	 SCS Opposite-Spin Energy  =      -0.9902512424920281 [Eh]
	 SCS Correlation Energy    =      -1.0675330115057091 [Eh]
	 SCS Total Energy          =    -233.2982780291690972 [Eh]
	-----------------------------------------------------------

  Dipole Moment: [D]
     X:    -0.1238      Y:     0.8761      Z:    -0.9281     Total:     1.2823

*** Psi4 exiting successfully. Buy a developer a beer!
