                               Psi4 1.3.2 release

  ==> Input File <==

--------------------------------------------------------------------------
#psi4
#
memory 32 gb

molecule  {
0 1
  O       -0.6493299    -0.6041467     0.3123343
  C        0.4399360     0.0677150    -0.3224890
  C        0.5539993     1.4992492     0.1817517
  C        1.6750880    -0.7518830    -0.0055480
  C       -1.9198900    -0.2034790    -0.1611150
  H        0.2726320     0.0717710    -1.4127660
  H        1.4331760     1.9888470    -0.2778400
  H       -0.3172630     2.0976310    -0.0716710
  H        0.6895750     1.4983760     1.2598990
  H        2.5618320    -0.3160490    -0.4739570
  H        1.5508300    -1.7754430    -0.3646470
  H        1.8280100    -0.7808700     1.0763770
  H       -2.1698190     0.8207490     0.1407760
  H       -2.6461150    -0.8861890     0.2817560
  H       -1.9832420    -0.2722450    -1.2561780
units angstrom
no_reorient  #important for SAPT in psi4, default
symmetry c1  #important for SAPT in psi4, default
}

set PROPERTIES_ORIGIN ["COM"]
properties('MP2/aug-cc-pvtz', properties = ['dipole'])
--------------------------------------------------------------------------

    Molecular point group: c1
  Charge       = 0
  Multiplicity = 1
  Basis Set: AUG-CC-PVTZ
    Blend: AUG-CC-PVTZ
  Basis Set: (AUG-CC-PVTZ AUX)
    Blend: AUG-CC-PVTZ-JKFIT

    Orbital Energies [Eh]
    ---------------------

    Doubly Occupied:

       1A    -20.549006     2A    -11.276701     3A    -11.266264
       4A    -11.212863     5A    -11.209130     6A     -1.366190
       7A     -1.050985     8A     -0.940443     9A     -0.910654
      10A     -0.790356    11A     -0.667885    12A     -0.635411
      13A     -0.631976    14A     -0.587789    15A     -0.546477
      16A     -0.541208    17A     -0.526330    18A     -0.497994
      19A     -0.487904    20A     -0.461011    21A     -0.415524

  @DF-RHF Final Energy:  -232.23053446152170

   => Energetics <=

    Nuclear Repulsion Energy =            196.6993566848858563
    One-Electron Energy =                -704.7155861807694919
    Two-Electron Energy =                 275.7856950343619360
    Total Energy =                       -232.2305344615216995
  Basis Set: (AUG-CC-PVTZ AUX)
    Blend: AUG-CC-PVTZ-RI
    Molecular point group: c1

    Geometry (in Angstrom), charge = 0, multiplicity = 1:

       Center              X                  Y                   Z               Mass
    ------------   -----------------  -----------------  -----------------  -----------------
         O           -0.647072440419    -0.606059323386     0.309632754684    15.994914619570
         C            0.442193459581     0.065802376614    -0.325190545316    12.000000000000
         C            0.556256759581     1.497336576614     0.179050154684    12.000000000000
         C            1.677345459581    -0.753795623386    -0.008249545316    12.000000000000
         C           -1.917632540419    -0.205391623386    -0.163816545316    12.000000000000
         H            0.274889459581     0.069858376614    -1.415467545316     1.007825032230
         H            1.435433459581     1.986934376614    -0.280541545316     1.007825032230
         H           -0.315005540419     2.095718376614    -0.074372545316     1.007825032230
         H            0.691832459581     1.496463376614     1.257197454684     1.007825032230
         H            2.564089459581    -0.317961623386    -0.476658545316     1.007825032230
         H            1.553087459581    -1.777355623386    -0.367348545316     1.007825032230
         H            1.830267459581    -0.782782623386     1.073675454684     1.007825032230
         H           -2.167561540419     0.818836376614     0.138074454684     1.007825032230
         H           -2.643857540419    -0.888101623386     0.279054454684     1.007825032230
         H           -1.980984540419    -0.274157623386    -1.258879545316     1.007825032230

  Basis Set: AUG-CC-PVTZ
    Blend: AUG-CC-PVTZ
  Basis Set: (AUG-CC-PVTZ AUX)
    Blend: AUG-CC-PVTZ-JKFIT
	 Reference Energy          =    -232.2305344615216995 [Eh]
	 Singles Energy            =      -0.0000000000000000 [Eh]
	 Same-Spin Energy          =      -0.2318650580209513 [Eh]
	 Opposite-Spin Energy      =      -0.8253316627446490 [Eh]
	 Correlation Energy        =      -1.0571967207656003 [Eh]
	 Total Energy              =    -233.2877311822873025 [Eh]

	 ================> DF-SCS-MP2 Energies <==================
	-----------------------------------------------------------
	 SCS Same-Spin Scale       =       0.3333333333333333 [-]
	 SCS Opposite-Spin Scale   =       1.2000000000000000 [-]
	 SCS Same-Spin Energy      =      -0.0772883526736504 [Eh]
	 SCS Opposite-Spin Energy  =      -0.9903979952935787 [Eh]
	 SCS Correlation Energy    =      -1.0676863479672292 [Eh]
	 SCS Total Energy          =    -233.2982208094889245 [Eh]
	-----------------------------------------------------------

  Dipole Moment: [D]
     X:    -0.0833      Y:     0.9086      Z:    -0.9166     Total:     1.2933

*** Psi4 exiting successfully. Buy a developer a beer!
