                               Psi4 1.3.2 release

  ==> Input File <==

--------------------------------------------------------------------------
#psi4
#
memory 32 gb

molecule  {
0 1
  O       -0.6467090    -0.6144430     0.3058120
  C        0.4869231     0.0275380    -0.2803942
  C        0.5644410     1.5011670     0.1737700
  C        1.6750880    -0.7518830    -0.0055480
  C       -1.9506099    -0.2520675    -0.1142219
  H        0.2726320     0.0717710    -1.4127660
  H        1.4331760     1.9888470    -0.2778400
  H       -0.3172630     2.0976310    -0.0716710
  H        0.6895750     1.4983760     1.2598990
  H        2.5618320    -0.3160490    -0.4739570
  H        1.5508300    -1.7754430    -0.3646470
  H        1.8280100    -0.7808700     1.0763770
  H       -2.1698190     0.8207490     0.1407760
  H       -2.6461150    -0.8861890     0.2817560
  H       -1.9832420    -0.2722450    -1.2561780
units angstrom
no_reorient  #important for SAPT in psi4, default
symmetry c1  #important for SAPT in psi4, default
}

set PROPERTIES_ORIGIN ["COM"]
properties('MP2/aug-cc-pvtz', properties = ['dipole'])
--------------------------------------------------------------------------

    Molecular point group: c1
  Charge       = 0
  Multiplicity = 1
  Basis Set: AUG-CC-PVTZ
    Blend: AUG-CC-PVTZ
  Basis Set: (AUG-CC-PVTZ AUX)
    Blend: AUG-CC-PVTZ-JKFIT

    Orbital Energies [Eh]
    ---------------------

    Doubly Occupied:

       1A    -20.545597     2A    -11.281215     3A    -11.269386
       4A    -11.213701     5A    -11.208667     6A     -1.361437
       7A     -1.060941     8A     -0.942411     9A     -0.917292
      10A     -0.779759    11A     -0.665245    12A     -0.645967
      13A     -0.631400    14A     -0.585621    15A     -0.551786
      16A     -0.541151    17A     -0.532554    18A     -0.511683
      19A     -0.478105    20A     -0.454145    21A     -0.404533

  @DF-RHF Final Energy:  -232.21724799887068

   => Energetics <=

    Nuclear Repulsion Energy =            196.4858599256402272
    One-Electron Energy =                -704.2410249898958909
    Two-Electron Energy =                 275.5379170653849883
    Total Energy =                       -232.2172479988706755
  Basis Set: (AUG-CC-PVTZ AUX)
    Blend: AUG-CC-PVTZ-RI
    Molecular point group: c1

    Geometry (in Angstrom), charge = 0, multiplicity = 1:

       Center              X                  Y                   Z               Mass
    ------------   -----------------  -----------------  -----------------  -----------------
         O           -0.649344376738    -0.600062802087     0.291395675532    15.994914619570
         C            0.484287723262     0.041918197913    -0.294810524468    12.000000000000
         C            0.561805623262     1.515547197913     0.159353675532    12.000000000000
         C            1.672452623262    -0.737502802087    -0.019964324468    12.000000000000
         C           -1.953245276738    -0.237687302087    -0.128638224468    12.000000000000
         H            0.269996623262     0.086151197913    -1.427182324468     1.007825032230
         H            1.430540623262     2.003227197913    -0.292256324468     1.007825032230
         H           -0.319898376738     2.112011197913    -0.086087324468     1.007825032230
         H            0.686939623262     1.512756197913     1.245482675532     1.007825032230
         H            2.559196623262    -0.301668802087    -0.488373324468     1.007825032230
         H            1.548194623262    -1.761062802087    -0.379063324468     1.007825032230
         H            1.825374623262    -0.766489802087     1.061960675532     1.007825032230
         H           -2.172454376738     0.835129197913     0.126359675532     1.007825032230
         H           -2.648750376738    -0.871808802087     0.267339675532     1.007825032230
         H           -1.985877376738    -0.257864802087    -1.270594324468     1.007825032230

  Basis Set: AUG-CC-PVTZ
    Blend: AUG-CC-PVTZ
  Basis Set: (AUG-CC-PVTZ AUX)
    Blend: AUG-CC-PVTZ-JKFIT
	 Reference Energy          =    -232.2172479988706755 [Eh]
	 Singles Energy            =      -0.0000000000000000 [Eh]
	 Same-Spin Energy          =      -0.2322059157256424 [Eh]
	 Opposite-Spin Energy      =      -0.8255776784518079 [Eh]
	 Correlation Energy        =      -1.0577835941774503 [Eh]
	 Total Energy              =    -233.2750315930481122 [Eh]

	 ================> DF-SCS-MP2 Energies <==================
	-----------------------------------------------------------
	 SCS Same-Spin Scale       =       0.3333333333333333 [-]
	 SCS Opposite-Spin Scale   =       1.2000000000000000 [-]
	 SCS Same-Spin Energy      =      -0.0774019719085475 [Eh]
	 SCS Opposite-Spin Energy  =      -0.9906932141421694 [Eh]
	 SCS Correlation Energy    =      -1.0680951860507168 [Eh]
	 SCS Total Energy          =    -233.2853431849214019 [Eh]
	-----------------------------------------------------------

  Dipole Moment: [D]
     X:    -0.0094      Y:     0.8082      Z:    -0.7837     Total:     1.1258

*** Psi4 exiting successfully. Buy a developer a beer!
