                               Psi4 1.3.2 release

  ==> Input File <==

--------------------------------------------------------------------------
#psi4
#
memory 32 gb

molecule  {
0 1
  O       -0.6467090    -0.6144430     0.3058120
  C        0.4399360     0.0677150    -0.3224890
  C        0.5644410     1.5011670     0.1737700
  C        1.6750880    -0.7518830    -0.0055480
  C       -2.0097402    -0.1744767    -0.1940667
  H        0.2726320     0.0717710    -1.4127660
  H        1.4331760     1.9888470    -0.2778400
  H       -0.3172630     2.0976310    -0.0716710
  H        0.6895750     1.4983760     1.2598990
  H        2.5618320    -0.3160490    -0.4739570
  H        1.5508300    -1.7754430    -0.3646470
  H        1.8280100    -0.7808700     1.0763770
  H       -2.1698190     0.8207490     0.1407760
  H       -2.6461150    -0.8861890     0.2817560
  H       -1.9832420    -0.2722450    -1.2561780
units angstrom
no_reorient  #important for SAPT in psi4, default
symmetry c1  #important for SAPT in psi4, default
}

set PROPERTIES_ORIGIN ["COM"]
properties('MP2/aug-cc-pvtz', properties = ['dipole'])
--------------------------------------------------------------------------

    Molecular point group: c1
  Charge       = 0
  Multiplicity = 1
  Basis Set: AUG-CC-PVTZ
    Blend: AUG-CC-PVTZ
  Basis Set: (AUG-CC-PVTZ AUX)
    Blend: AUG-CC-PVTZ-JKFIT

    Orbital Energies [Eh]
    ---------------------

    Doubly Occupied:

       1A    -20.542394     2A    -11.271550     3A    -11.267034
       4A    -11.210727     5A    -11.205526     6A     -1.335308
       7A     -1.042520     8A     -0.940994     9A     -0.918587
      10A     -0.783267    11A     -0.656854    12A     -0.632337
      13A     -0.621852    14A     -0.588439    15A     -0.556203
      16A     -0.536159    17A     -0.516951    18A     -0.497296
      19A     -0.495788    20A     -0.450429    21A     -0.415239

  @DF-RHF Final Energy:  -232.22112845134225

   => Energetics <=

    Nuclear Repulsion Energy =            195.0080139745989243
    One-Electron Energy =                -701.4873786036338288
    Two-Electron Energy =                 274.2582361776926518
    Total Energy =                       -232.2211284513422243
  Basis Set: (AUG-CC-PVTZ AUX)
    Blend: AUG-CC-PVTZ-RI
    Molecular point group: c1

    Geometry (in Angstrom), charge = 0, multiplicity = 1:

       Center              X                  Y                   Z               Mass
    ------------   -----------------  -----------------  -----------------  -----------------
         O           -0.632153146945    -0.619141419845     0.311150133184    15.994914619570
         C            0.454491853055     0.063016580155    -0.317150866816    12.000000000000
         C            0.578996853055     1.496468580155     0.179108133184    12.000000000000
         C            1.689643853055    -0.756581419845    -0.000209866816    12.000000000000
         C           -1.995184346945    -0.179175119845    -0.188728566816    12.000000000000
         H            0.287187853055     0.067072580155    -1.407427866816     1.007825032230
         H            1.447731853055     1.984148580155    -0.272501866816     1.007825032230
         H           -0.302707146945     2.092932580155    -0.066332866816     1.007825032230
         H            0.704130853055     1.493677580155     1.265237133184     1.007825032230
         H            2.576387853055    -0.320747419845    -0.468618866816     1.007825032230
         H            1.565385853055    -1.780141419845    -0.359308866816     1.007825032230
         H            1.842565853055    -0.785568419845     1.081715133184     1.007825032230
         H           -2.155263146945     0.816050580155     0.146114133184     1.007825032230
         H           -2.631559146945    -0.890887419845     0.287094133184     1.007825032230
         H           -1.968686146945    -0.276943419845    -1.250839866816     1.007825032230

  Basis Set: AUG-CC-PVTZ
    Blend: AUG-CC-PVTZ
  Basis Set: (AUG-CC-PVTZ AUX)
    Blend: AUG-CC-PVTZ-JKFIT
	 Reference Energy          =    -232.2211284513422527 [Eh]
	 Singles Energy            =      -0.0000000000000000 [Eh]
	 Same-Spin Energy          =      -0.2322125126837007 [Eh]
	 Opposite-Spin Energy      =      -0.8274455048801006 [Eh]
	 Correlation Energy        =      -1.0596580175638013 [Eh]
	 Total Energy              =    -233.2807864689060580 [Eh]

	 ================> DF-SCS-MP2 Energies <==================
	-----------------------------------------------------------
	 SCS Same-Spin Scale       =       0.3333333333333333 [-]
	 SCS Opposite-Spin Scale   =       1.2000000000000000 [-]
	 SCS Same-Spin Energy      =      -0.0774041708945669 [Eh]
	 SCS Opposite-Spin Energy  =      -0.9929346058561207 [Eh]
	 SCS Correlation Energy    =      -1.0703387767506876 [Eh]
	 SCS Total Energy          =    -233.2914672280929267 [Eh]
	-----------------------------------------------------------

  Dipole Moment: [D]
     X:    -0.4219      Y:     0.9874      Z:    -0.9954     Total:     1.4642

*** Psi4 exiting successfully. Buy a developer a beer!
