                               Psi4 1.3.2 release

  ==> Input File <==

--------------------------------------------------------------------------
#psi4
#
memory 32 gb

molecule  {
0 1
  O       -0.6566942    -0.5729541     0.3316091
  C        0.4399360     0.0677150    -0.3224890
  C        0.5226252     1.4928421     0.2054639
  C        1.6750880    -0.7518830    -0.0055480
  C       -1.9198900    -0.2034790    -0.1611150
  H        0.2726320     0.0717710    -1.4127660
  H        1.4331760     1.9888470    -0.2778400
  H       -0.3172630     2.0976310    -0.0716710
  H        0.6895750     1.4983760     1.2598990
  H        2.5618320    -0.3160490    -0.4739570
  H        1.5508300    -1.7754430    -0.3646470
  H        1.8280100    -0.7808700     1.0763770
  H       -2.1698190     0.8207490     0.1407760
  H       -2.6461150    -0.8861890     0.2817560
  H       -1.9832420    -0.2722450    -1.2561780
units angstrom
no_reorient  #important for SAPT in psi4, default
symmetry c1  #important for SAPT in psi4, default
}

set PROPERTIES_ORIGIN ["COM"]
properties('MP2/aug-cc-pvtz', properties = ['dipole'])
--------------------------------------------------------------------------

    Molecular point group: c1
  Charge       = 0
  Multiplicity = 1
  Basis Set: AUG-CC-PVTZ
    Blend: AUG-CC-PVTZ
  Basis Set: (AUG-CC-PVTZ AUX)
    Blend: AUG-CC-PVTZ-JKFIT

    Orbital Energies [Eh]
    ---------------------

    Doubly Occupied:

       1A    -20.546941     2A    -11.277406     3A    -11.265309
       4A    -11.212347     5A    -11.210401     6A     -1.368241
       7A     -1.051334     8A     -0.940030     9A     -0.911130
      10A     -0.791239    11A     -0.668055    12A     -0.636593
      13A     -0.634168    14A     -0.589218    15A     -0.550324
      16A     -0.536114    17A     -0.525682    18A     -0.499912
      19A     -0.485679    20A     -0.462412    21A     -0.412518

  @DF-RHF Final Energy:  -232.22743135870613

   => Energetics <=

    Nuclear Repulsion Energy =            197.0069681842753084
    One-Electron Energy =                -705.3186926141430604
    Two-Electron Energy =                 276.0842930711616532
    Total Energy =                       -232.2274313587060988
  Basis Set: (AUG-CC-PVTZ AUX)
    Blend: AUG-CC-PVTZ-RI
    Molecular point group: c1

    Geometry (in Angstrom), charge = 0, multiplicity = 1:

       Center              X                  Y                   Z               Mass
    ------------   -----------------  -----------------  -----------------  -----------------
         O           -0.647763871099    -0.580564303259     0.320904046520    15.994914619570
         C            0.448866328901     0.060104796741    -0.333194053480    12.000000000000
         C            0.531555528901     1.485231896741     0.194758846520    12.000000000000
         C            1.684018328901    -0.759493203259    -0.016253053480    12.000000000000
         C           -1.910959671099    -0.211089203259    -0.171820053480    12.000000000000
         H            0.281562328901     0.064160796741    -1.423471053480     1.007825032230
         H            1.442106328901     1.981236796741    -0.288545053480     1.007825032230
         H           -0.308332671099     2.090020796741    -0.082376053480     1.007825032230
         H            0.698505328901     1.490765796741     1.249193946520     1.007825032230
         H            2.570762328901    -0.323659203259    -0.484662053480     1.007825032230
         H            1.559760328901    -1.783053203259    -0.375352053480     1.007825032230
         H            1.836940328901    -0.788480203259     1.065671946520     1.007825032230
         H           -2.160888671099     0.813138796741     0.130070946520     1.007825032230
         H           -2.637184671099    -0.893799203259     0.271050946520     1.007825032230
         H           -1.974311671099    -0.279855203259    -1.266883053480     1.007825032230

  Basis Set: AUG-CC-PVTZ
    Blend: AUG-CC-PVTZ
  Basis Set: (AUG-CC-PVTZ AUX)
    Blend: AUG-CC-PVTZ-JKFIT
	 Reference Energy          =    -232.2274313587061272 [Eh]
	 Singles Energy            =      -0.0000000000000000 [Eh]
	 Same-Spin Energy          =      -0.2318419549123933 [Eh]
	 Opposite-Spin Energy      =      -0.8252016349046363 [Eh]
	 Correlation Energy        =      -1.0570435898170296 [Eh]
	 Total Energy              =    -233.2844749485231546 [Eh]

	 ================> DF-SCS-MP2 Energies <==================
	-----------------------------------------------------------
	 SCS Same-Spin Scale       =       0.3333333333333333 [-]
	 SCS Opposite-Spin Scale   =       1.2000000000000000 [-]
	 SCS Same-Spin Energy      =      -0.0772806516374644 [Eh]
	 SCS Opposite-Spin Energy  =      -0.9902419618855635 [Eh]
	 SCS Correlation Energy    =      -1.0675226135230278 [Eh]
	 SCS Total Energy          =    -233.2949539722291661 [Eh]
	-----------------------------------------------------------

  Dipole Moment: [D]
     X:    -0.0511      Y:     0.8201      Z:    -0.9459     Total:     1.2530

*** Psi4 exiting successfully. Buy a developer a beer!
