                               Psi4 1.3.2 release

  ==> Input File <==

--------------------------------------------------------------------------
#psi4
#
memory 32 gb

molecule  {
0 1
  O       -0.6467090    -0.6144430     0.3058120
  C        0.5159996     0.1154651    -0.3664692
  C        0.5644410     1.5011670     0.1737700
  C        1.6750880    -0.7518830    -0.0055480
  C       -1.9198900    -0.2034790    -0.1611150
  H        0.2726320     0.0717710    -1.4127660
  H        1.4331760     1.9888470    -0.2778400
  H       -0.3172630     2.0976310    -0.0716710
  H        0.6895750     1.4983760     1.2598990
  H        2.5618320    -0.3160490    -0.4739570
  H        1.5508300    -1.7754430    -0.3646470
  H        1.8280100    -0.7808700     1.0763770
  H       -2.1698190     0.8207490     0.1407760
  H       -2.6461150    -0.8861890     0.2817560
  H       -1.9832420    -0.2722450    -1.2561780
units angstrom
no_reorient  #important for SAPT in psi4, default
symmetry c1  #important for SAPT in psi4, default
}

set PROPERTIES_ORIGIN ["COM"]
properties('MP2/aug-cc-pvtz', properties = ['dipole'])
--------------------------------------------------------------------------

    Molecular point group: c1
  Charge       = 0
  Multiplicity = 1
  Basis Set: AUG-CC-PVTZ
    Blend: AUG-CC-PVTZ
  Basis Set: (AUG-CC-PVTZ AUX)
    Blend: AUG-CC-PVTZ-JKFIT

    Orbital Energies [Eh]
    ---------------------

    Doubly Occupied:

       1A    -20.537741     2A    -11.278900     3A    -11.259303
       4A    -11.216882     5A    -11.211886     6A     -1.332713
       7A     -1.062760     8A     -0.946180     9A     -0.899595
      10A     -0.793540    11A     -0.658012    12A     -0.634294
      13A     -0.618597    14A     -0.586478    15A     -0.552273
      16A     -0.544343    17A     -0.524626    18A     -0.503512
      19A     -0.485284    20A     -0.452204    21A     -0.415111

  @DF-RHF Final Energy:  -232.22048097483452

   => Energetics <=

    Nuclear Repulsion Energy =            195.7490579451349504
    One-Electron Energy =                -702.9106066008943117
    Two-Electron Energy =                 274.9410676809248457
    Total Energy =                       -232.2204809748345156
  Basis Set: (AUG-CC-PVTZ AUX)
    Blend: AUG-CC-PVTZ-RI
    Molecular point group: c1

    Geometry (in Angstrom), charge = 0, multiplicity = 1:

       Center              X                  Y                   Z               Mass
    ------------   -----------------  -----------------  -----------------  -----------------
         O           -0.659031512431    -0.622178600721     0.312936772112    15.994914619570
         C            0.503677087569     0.107729499279    -0.359344427888    12.000000000000
         C            0.552118487569     1.493431399279     0.180894772112    12.000000000000
         C            1.662765487569    -0.759618600721     0.001576772112    12.000000000000
         C           -1.932212512431    -0.211214600721    -0.153990227888    12.000000000000
         H            0.260309487569     0.064035399279    -1.405641227888     1.007825032230
         H            1.420853487569     1.981111399279    -0.270715227888     1.007825032230
         H           -0.329585512431     2.089895399279    -0.064546227888     1.007825032230
         H            0.677252487569     1.490640399279     1.267023772112     1.007825032230
         H            2.549509487569    -0.323784600721    -0.466832227888     1.007825032230
         H            1.538507487569    -1.783178600721    -0.357522227888     1.007825032230
         H            1.815687487569    -0.788605600721     1.083501772112     1.007825032230
         H           -2.182141512431     0.813013399279     0.147900772112     1.007825032230
         H           -2.658437512431    -0.893924600721     0.288880772112     1.007825032230
         H           -1.995564512431    -0.279980600721    -1.249053227888     1.007825032230

  Basis Set: AUG-CC-PVTZ
    Blend: AUG-CC-PVTZ
  Basis Set: (AUG-CC-PVTZ AUX)
    Blend: AUG-CC-PVTZ-JKFIT
	 Reference Energy          =    -232.2204809748345156 [Eh]
	 Singles Energy            =      -0.0000000000000000 [Eh]
	 Same-Spin Energy          =      -0.2326835508775858 [Eh]
	 Opposite-Spin Energy      =      -0.8276328686515915 [Eh]
	 Correlation Energy        =      -1.0603164195291772 [Eh]
	 Total Energy              =    -233.2807973943637023 [Eh]

	 ================> DF-SCS-MP2 Energies <==================
	-----------------------------------------------------------
	 SCS Same-Spin Scale       =       0.3333333333333333 [-]
	 SCS Opposite-Spin Scale   =       1.2000000000000000 [-]
	 SCS Same-Spin Energy      =      -0.0775611836258619 [Eh]
	 SCS Opposite-Spin Energy  =      -0.9931594423819097 [Eh]
	 SCS Correlation Energy    =      -1.0707206260077715 [Eh]
	 SCS Total Energy          =    -233.2912016008422995 [Eh]
	-----------------------------------------------------------

  Dipole Moment: [D]
     X:     0.2523      Y:     1.0863      Z:    -0.9902     Total:     1.4913

*** Psi4 exiting successfully. Buy a developer a beer!
