                               Psi4 1.3.2 release

  ==> Input File <==

--------------------------------------------------------------------------
#psi4
#
memory 32 gb

molecule  {
0 1
  O       -0.6518679    -0.5937993     0.3188082
  C        0.4399360     0.0677150    -0.3224890
  C        0.5435489     1.4972223     0.1896950
  C        1.6750880    -0.7518830    -0.0055480
  C       -1.9198900    -0.2034790    -0.1611150
  H        0.2726320     0.0717710    -1.4127660
  H        1.4331760     1.9888470    -0.2778400
  H       -0.3172630     2.0976310    -0.0716710
  H        0.6895750     1.4983760     1.2598990
  H        2.5618320    -0.3160490    -0.4739570
  H        1.5508300    -1.7754430    -0.3646470
  H        1.8280100    -0.7808700     1.0763770
  H       -2.1698190     0.8207490     0.1407760
  H       -2.6461150    -0.8861890     0.2817560
  H       -1.9832420    -0.2722450    -1.2561780
units angstrom
no_reorient  #important for SAPT in psi4, default
symmetry c1  #important for SAPT in psi4, default
}

set PROPERTIES_ORIGIN ["COM"]
properties('MP2/aug-cc-pvtz', properties = ['dipole'])
--------------------------------------------------------------------------

    Molecular point group: c1
  Charge       = 0
  Multiplicity = 1
  Basis Set: AUG-CC-PVTZ
    Blend: AUG-CC-PVTZ
  Basis Set: (AUG-CC-PVTZ AUX)
    Blend: AUG-CC-PVTZ-JKFIT

    Orbital Energies [Eh]
    ---------------------

    Doubly Occupied:

       1A    -20.548291     2A    -11.276912     3A    -11.265920
       4A    -11.212621     5A    -11.209552     6A     -1.366869
       7A     -1.051089     8A     -0.940259     9A     -0.910813
      10A     -0.790608    11A     -0.667902    12A     -0.635749
      13A     -0.632731    14A     -0.588247    15A     -0.546695
      16A     -0.540031    17A     -0.526519    18A     -0.498740
      19A     -0.487198    20A     -0.461523    21A     -0.414615

  @DF-RHF Final Energy:  -232.22998171709219

   => Energetics <=

    Nuclear Repulsion Energy =            196.8014203659599843
    One-Electron Energy =                -704.9170380990113927
    Two-Electron Energy =                 275.8856360159592214
    Total Energy =                       -232.2299817170921870
  Basis Set: (AUG-CC-PVTZ AUX)
    Blend: AUG-CC-PVTZ-RI
    Molecular point group: c1

    Geometry (in Angstrom), charge = 0, multiplicity = 1:

       Center              X                  Y                   Z               Mass
    ------------   -----------------  -----------------  -----------------  -----------------
         O           -0.647369414354    -0.597617917002     0.313421889183    15.994914619570
         C            0.444434485646     0.063896382998    -0.327875310817    12.000000000000
         C            0.548047385646     1.493403682998     0.184308689183    12.000000000000
         C            1.679586485646    -0.755701617002    -0.010934310817    12.000000000000
         C           -1.915391514354    -0.207297617002    -0.166501310817    12.000000000000
         H            0.277130485646     0.067952382998    -1.418152310817     1.007825032230
         H            1.437674485646     1.985028382998    -0.283226310817     1.007825032230
         H           -0.312764514354     2.093812382998    -0.077057310817     1.007825032230
         H            0.694073485646     1.494557382998     1.254512689183     1.007825032230
         H            2.566330485646    -0.319867617002    -0.479343310817     1.007825032230
         H            1.555328485646    -1.779261617002    -0.370033310817     1.007825032230
         H            1.832508485646    -0.784688617002     1.070990689183     1.007825032230
         H           -2.165320514354     0.816930382998     0.135389689183     1.007825032230
         H           -2.641616514354    -0.890007617002     0.276369689183     1.007825032230
         H           -1.978743514354    -0.276063617002    -1.261564310817     1.007825032230

  Basis Set: AUG-CC-PVTZ
    Blend: AUG-CC-PVTZ
  Basis Set: (AUG-CC-PVTZ AUX)
    Blend: AUG-CC-PVTZ-JKFIT
	 Reference Energy          =    -232.2299817170921870 [Eh]
	 Singles Energy            =      -0.0000000000000000 [Eh]
	 Same-Spin Energy          =      -0.2318457713172925 [Eh]
	 Opposite-Spin Energy      =      -0.8252572236622384 [Eh]
	 Correlation Energy        =      -1.0571029949795310 [Eh]
	 Total Energy              =    -233.2870847120717315 [Eh]

	 ================> DF-SCS-MP2 Energies <==================
	-----------------------------------------------------------
	 SCS Same-Spin Scale       =       0.3333333333333333 [-]
	 SCS Opposite-Spin Scale   =       1.2000000000000000 [-]
	 SCS Same-Spin Energy      =      -0.0772819237724308 [Eh]
	 SCS Opposite-Spin Energy  =      -0.9903086683946860 [Eh]
	 SCS Correlation Energy    =      -1.0675905921671167 [Eh]
	 SCS Total Energy          =    -233.2975723092592943 [Eh]
	-----------------------------------------------------------

  Dipole Moment: [D]
     X:    -0.0714      Y:     0.8803      Z:    -0.9266     Total:     1.2801

*** Psi4 exiting successfully. Buy a developer a beer!
