                               Psi4 1.3.2 release

  ==> Input File <==

--------------------------------------------------------------------------
#psi4
#
memory 32 gb

molecule  {
0 1
  O       -0.6467090    -0.6144430     0.3058120
  C        0.4479776     0.0611458    -0.3155897
  C        0.5644410     1.5011670     0.1737700
  C        1.6750880    -0.7518830    -0.0055480
  C       -1.9252547    -0.2115024    -0.1533849
  H        0.2726320     0.0717710    -1.4127660
  H        1.4331760     1.9888470    -0.2778400
  H       -0.3172630     2.0976310    -0.0716710
  H        0.6895750     1.4983760     1.2598990
  H        2.5618320    -0.3160490    -0.4739570
  H        1.5508300    -1.7754430    -0.3646470
  H        1.8280100    -0.7808700     1.0763770
  H       -2.1698190     0.8207490     0.1407760
  H       -2.6461150    -0.8861890     0.2817560
  H       -1.9832420    -0.2722450    -1.2561780
units angstrom
no_reorient  #important for SAPT in psi4, default
symmetry c1  #important for SAPT in psi4, default
}

set PROPERTIES_ORIGIN ["COM"]
properties('MP2/aug-cc-pvtz', properties = ['dipole'])
--------------------------------------------------------------------------

    Molecular point group: c1
  Charge       = 0
  Multiplicity = 1
  Basis Set: AUG-CC-PVTZ
    Blend: AUG-CC-PVTZ
  Basis Set: (AUG-CC-PVTZ AUX)
    Blend: AUG-CC-PVTZ-JKFIT

    Orbital Energies [Eh]
    ---------------------

    Doubly Occupied:

       1A    -20.548977     2A    -11.277124     3A    -11.266896
       4A    -11.213183     5A    -11.208704     6A     -1.364734
       7A     -1.052296     8A     -0.940971     9A     -0.911439
      10A     -0.788292    11A     -0.667187    12A     -0.636420
      13A     -0.631242    14A     -0.587176    15A     -0.548978
      16A     -0.540313    17A     -0.526573    18A     -0.498729
      19A     -0.488513    20A     -0.459845    21A     -0.414637

  @DF-RHF Final Energy:  -232.23035203229506

   => Energetics <=

    Nuclear Repulsion Energy =            196.5744305302142436
    One-Electron Energy =                -704.4651104820189857
    Two-Electron Energy =                 275.6603279195096547
    Total Energy =                       -232.2303520322950590
  Basis Set: (AUG-CC-PVTZ AUX)
    Blend: AUG-CC-PVTZ-RI
    Molecular point group: c1

    Geometry (in Angstrom), charge = 0, multiplicity = 1:

       Center              X                  Y                   Z               Mass
    ------------   -----------------  -----------------  -----------------  -----------------
         O           -0.647142721116    -0.612078959365     0.303441900379    15.994914619570
         C            0.447543878884     0.063509840635    -0.317959799621    12.000000000000
         C            0.564007278884     1.503531040635     0.171399900379    12.000000000000
         C            1.674654278884    -0.749518959365    -0.007918099621    12.000000000000
         C           -1.925688421116    -0.209138359365    -0.155754999621    12.000000000000
         H            0.272198278884     0.074135040635    -1.415136099621     1.007825032230
         H            1.432742278884     1.991211040635    -0.280210099621     1.007825032230
         H           -0.317696721116     2.099995040635    -0.074041099621     1.007825032230
         H            0.689141278884     1.500740040635     1.257528900379     1.007825032230
         H            2.561398278884    -0.313684959365    -0.476327099621     1.007825032230
         H            1.550396278884    -1.773078959365    -0.367017099621     1.007825032230
         H            1.827576278884    -0.778505959365     1.074006900379     1.007825032230
         H           -2.170252721116     0.823113040635     0.138405900379     1.007825032230
         H           -2.646548721116    -0.883824959365     0.279385900379     1.007825032230
         H           -1.983675721116    -0.269880959365    -1.258548099621     1.007825032230

  Basis Set: AUG-CC-PVTZ
    Blend: AUG-CC-PVTZ
  Basis Set: (AUG-CC-PVTZ AUX)
    Blend: AUG-CC-PVTZ-JKFIT
	 Reference Energy          =    -232.2303520322950590 [Eh]
	 Singles Energy            =      -0.0000000000000000 [Eh]
	 Same-Spin Energy          =      -0.2318953901371979 [Eh]
	 Opposite-Spin Energy      =      -0.8253460691132095 [Eh]
	 Correlation Energy        =      -1.0572414592504074 [Eh]
	 Total Energy              =    -233.2875934915454650 [Eh]

	 ================> DF-SCS-MP2 Energies <==================
	-----------------------------------------------------------
	 SCS Same-Spin Scale       =       0.3333333333333333 [-]
	 SCS Opposite-Spin Scale   =       1.2000000000000000 [-]
	 SCS Same-Spin Energy      =      -0.0772984633790660 [Eh]
	 SCS Opposite-Spin Energy  =      -0.9904152829358513 [Eh]
	 SCS Correlation Energy    =      -1.0677137463149173 [Eh]
	 SCS Total Energy          =    -233.2980657786099812 [Eh]
	-----------------------------------------------------------

  Dipole Moment: [D]
     X:    -0.0847      Y:     0.9147      Z:    -0.8878     Total:     1.2775

*** Psi4 exiting successfully. Buy a developer a beer!
