                               Psi4 1.3.2 release

  ==> Input File <==

--------------------------------------------------------------------------
#psi4
#
memory 32 gb

molecule  {
0 1
  O       -0.6467090    -0.6144430     0.3058120
  C        0.4399360     0.0677150    -0.3224890
  C        0.5644410     1.5011670     0.1737700
  C        1.6750880    -0.7518830    -0.0055480
  C       -1.7401897    -0.2614836    -0.0952116
  H        0.2726320     0.0717710    -1.4127660
  H        1.4331760     1.9888470    -0.2778400
  H       -0.3172630     2.0976310    -0.0716710
  H        0.6895750     1.4983760     1.2598990
  H        2.5618320    -0.3160490    -0.4739570
  H        1.5508300    -1.7754430    -0.3646470
  H        1.8280100    -0.7808700     1.0763770
  H       -2.1698190     0.8207490     0.1407760
  H       -2.6461150    -0.8861890     0.2817560
  H       -1.9832420    -0.2722450    -1.2561780
units angstrom
no_reorient  #important for SAPT in psi4, default
symmetry c1  #important for SAPT in psi4, default
}

set PROPERTIES_ORIGIN ["COM"]
properties('MP2/aug-cc-pvtz', properties = ['dipole'])
--------------------------------------------------------------------------

    Molecular point group: c1
  Charge       = 0
  Multiplicity = 1
  Basis Set: AUG-CC-PVTZ
    Blend: AUG-CC-PVTZ
  Basis Set: (AUG-CC-PVTZ AUX)
    Blend: AUG-CC-PVTZ-JKFIT

    Orbital Energies [Eh]
    ---------------------

    Doubly Occupied:

       1A    -20.567941     2A    -11.290274     3A    -11.277863
       4A    -11.219918     5A    -11.217420     6A     -1.460753
       7A     -1.074499     8A     -0.947132     9A     -0.895482
      10A     -0.805820    11A     -0.704615    12A     -0.670497
      13A     -0.655468    14A     -0.598915    15A     -0.553019
      16A     -0.549298    17A     -0.538024    18A     -0.494952
      19A     -0.481887    20A     -0.441161    21A     -0.395030

  @DF-RHF Final Energy:  -232.18613357119568

   => Energetics <=

    Nuclear Repulsion Energy =            200.3098927482857903
    One-Electron Energy =                -711.3121168992277035
    Two-Electron Energy =                 278.8160905797462306
    Total Energy =                       -232.1861335711956826
  Basis Set: (AUG-CC-PVTZ AUX)
    Blend: AUG-CC-PVTZ-RI
    Molecular point group: c1

    Geometry (in Angstrom), charge = 0, multiplicity = 1:

       Center              X                  Y                   Z               Mass
    ------------   -----------------  -----------------  -----------------  -----------------
         O           -0.675820863892    -0.605046129049     0.295135410431    15.994914619570
         C            0.410824136108     0.077111870951    -0.333165589569    12.000000000000
         C            0.535329136108     1.510563870951     0.163093410431    12.000000000000
         C            1.645976136108    -0.742486129049    -0.016224589569    12.000000000000
         C           -1.769301563892    -0.252086729049    -0.105888189569    12.000000000000
         H            0.243520136108     0.081167870951    -1.423442589569     1.007825032230
         H            1.404064136108     1.998243870951    -0.288516589569     1.007825032230
         H           -0.346374863892     2.107027870951    -0.082347589569     1.007825032230
         H            0.660463136108     1.507772870951     1.249222410431     1.007825032230
         H            2.532720136108    -0.306652129049    -0.484633589569     1.007825032230
         H            1.521718136108    -1.766046129049    -0.375323589569     1.007825032230
         H            1.798898136108    -0.771473129049     1.065700410431     1.007825032230
         H           -2.198930863892     0.830145870951     0.130099410431     1.007825032230
         H           -2.675226863892    -0.876792129049     0.271079410431     1.007825032230
         H           -2.012353863892    -0.262848129049    -1.266854589569     1.007825032230

  Basis Set: AUG-CC-PVTZ
    Blend: AUG-CC-PVTZ
  Basis Set: (AUG-CC-PVTZ AUX)
    Blend: AUG-CC-PVTZ-JKFIT
	 Reference Energy          =    -232.1861335711956826 [Eh]
	 Singles Energy            =      -0.0000000000000000 [Eh]
	 Same-Spin Energy          =      -0.2329901249901396 [Eh]
	 Opposite-Spin Energy      =      -0.8246509684589222 [Eh]
	 Correlation Energy        =      -1.0576410934490617 [Eh]
	 Total Energy              =    -233.2437746646447465 [Eh]

	 ================> DF-SCS-MP2 Energies <==================
	-----------------------------------------------------------
	 SCS Same-Spin Scale       =       0.3333333333333333 [-]
	 SCS Opposite-Spin Scale   =       1.2000000000000000 [-]
	 SCS Same-Spin Energy      =      -0.0776633749967132 [Eh]
	 SCS Opposite-Spin Energy  =      -0.9895811621507066 [Eh]
	 SCS Correlation Energy    =      -1.0672445371474197 [Eh]
	 SCS Total Energy          =    -233.2533781083430995 [Eh]
	-----------------------------------------------------------

  Dipole Moment: [D]
     X:     0.9069      Y:     0.7679      Z:    -0.6370     Total:     1.3483

*** Psi4 exiting successfully. Buy a developer a beer!
