                               Psi4 1.3.2 release

  ==> Input File <==

--------------------------------------------------------------------------
#psi4
#
memory 32 gb

molecule  {
0 1
  O       -0.6139634    -0.6016938     0.3718358
  C        0.4399360     0.0677150    -0.3224890
  C        0.5644410     1.5011670     0.1737700
  C        1.6750880    -0.7518830    -0.0055480
  C       -1.9198900    -0.2034790    -0.1611150
  H        0.3221960     0.1008004    -1.4187343
  H        1.4331760     1.9888470    -0.2778400
  H       -0.3172630     2.0976310    -0.0716710
  H        0.6895750     1.4983760     1.2598990
  H        2.5618320    -0.3160490    -0.4739570
  H        1.5508300    -1.7754430    -0.3646470
  H        1.8280100    -0.7808700     1.0763770
  H       -2.1698190     0.8207490     0.1407760
  H       -2.6461150    -0.8861890     0.2817560
  H       -1.9832420    -0.2722450    -1.2561780
units angstrom
no_reorient  #important for SAPT in psi4, default
symmetry c1  #important for SAPT in psi4, default
}

set PROPERTIES_ORIGIN ["COM"]
properties('MP2/aug-cc-pvtz', properties = ['dipole'])
--------------------------------------------------------------------------

    Molecular point group: c1
  Charge       = 0
  Multiplicity = 1
  Basis Set: AUG-CC-PVTZ
    Blend: AUG-CC-PVTZ
  Basis Set: (AUG-CC-PVTZ AUX)
    Blend: AUG-CC-PVTZ-JKFIT

    Orbital Energies [Eh]
    ---------------------

    Doubly Occupied:

       1A    -20.553861     2A    -11.274645     3A    -11.271651
       4A    -11.210733     5A    -11.206177     6A     -1.354619
       7A     -1.046225     8A     -0.939671     9A     -0.912083
      10A     -0.787914    11A     -0.664562    12A     -0.629790
      13A     -0.627715    14A     -0.582250    15A     -0.547432
      16A     -0.538552    17A     -0.522250    18A     -0.497828
      19A     -0.489683    20A     -0.461279    21A     -0.418340

  @DF-RHF Final Energy:  -232.22465576740331

   => Energetics <=

    Nuclear Repulsion Energy =            196.0925785270667063
    One-Electron Energy =                -703.5599509597650467
    Two-Electron Energy =                 275.2427166652950064
    Total Energy =                       -232.2246557674033056
  Basis Set: (AUG-CC-PVTZ AUX)
    Blend: AUG-CC-PVTZ-RI
    Molecular point group: c1

    Geometry (in Angstrom), charge = 0, multiplicity = 1:

       Center              X                  Y                   Z               Mass
    ------------   -----------------  -----------------  -----------------  -----------------
         O           -0.621708704421    -0.604841743655     0.357660112722    15.994914619570
         C            0.432190695579     0.064567056345    -0.336664687278    12.000000000000
         C            0.556695695579     1.498019056345     0.159594312722    12.000000000000
         C            1.667342695579    -0.755030943655    -0.019723687278    12.000000000000
         C           -1.927635304421    -0.206626943655    -0.175290687278    12.000000000000
         H            0.314450695579     0.097652456345    -1.432909987278     1.007825032230
         H            1.425430695579     1.985699056345    -0.292015687278     1.007825032230
         H           -0.325008304421     2.094483056345    -0.085846687278     1.007825032230
         H            0.681829695579     1.495228056345     1.245723312722     1.007825032230
         H            2.554086695579    -0.319196943655    -0.488132687278     1.007825032230
         H            1.543084695579    -1.778590943655    -0.378822687278     1.007825032230
         H            1.820264695579    -0.784017943655     1.062201312722     1.007825032230
         H           -2.177564304421     0.817601056345     0.126600312722     1.007825032230
         H           -2.653860304421    -0.889336943655     0.267580312722     1.007825032230
         H           -1.990987304421    -0.275392943655    -1.270353687278     1.007825032230

  Basis Set: AUG-CC-PVTZ
    Blend: AUG-CC-PVTZ
  Basis Set: (AUG-CC-PVTZ AUX)
    Blend: AUG-CC-PVTZ-JKFIT
	 Reference Energy          =    -232.2246557674033056 [Eh]
	 Singles Energy            =      -0.0000000000000000 [Eh]
	 Same-Spin Energy          =      -0.2323579237774861 [Eh]
	 Opposite-Spin Energy      =      -0.8272469517278234 [Eh]
	 Correlation Energy        =      -1.0596048755053096 [Eh]
	 Total Energy              =    -233.2842606429086061 [Eh]

	 ================> DF-SCS-MP2 Energies <==================
	-----------------------------------------------------------
	 SCS Same-Spin Scale       =       0.3333333333333333 [-]
	 SCS Opposite-Spin Scale   =       1.2000000000000000 [-]
	 SCS Same-Spin Energy      =      -0.0774526412591620 [Eh]
	 SCS Opposite-Spin Energy  =      -0.9926963420733880 [Eh]
	 SCS Correlation Energy    =      -1.0701489833325499 [Eh]
	 SCS Total Energy          =    -233.2948047507358638 [Eh]
	-----------------------------------------------------------

  Dipole Moment: [D]
     X:    -0.2878      Y:     0.9078      Z:    -1.0679     Total:     1.4309

*** Psi4 exiting successfully. Buy a developer a beer!
