                               Psi4 1.3.2 release

  ==> Input File <==

--------------------------------------------------------------------------
#psi4
#
memory 32 gb

molecule  {
0 1
  O       -0.6412191    -0.6348789     0.2926244
  C        0.4399360     0.0677150    -0.3224890
  C        0.5852952     1.5046751     0.1576939
  C        1.6750880    -0.7518830    -0.0055480
  C       -1.9198900    -0.2034790    -0.1611150
  H        0.2726320     0.0717710    -1.4127660
  H        1.4331760     1.9888470    -0.2778400
  H       -0.3172630     2.0976310    -0.0716710
  H        0.6895750     1.4983760     1.2598990
  H        2.5618320    -0.3160490    -0.4739570
  H        1.5508300    -1.7754430    -0.3646470
  H        1.8280100    -0.7808700     1.0763770
  H       -2.1698190     0.8207490     0.1407760
  H       -2.6461150    -0.8861890     0.2817560
  H       -1.9832420    -0.2722450    -1.2561780
units angstrom
no_reorient  #important for SAPT in psi4, default
symmetry c1  #important for SAPT in psi4, default
}

set PROPERTIES_ORIGIN ["COM"]
properties('MP2/aug-cc-pvtz', properties = ['dipole'])
--------------------------------------------------------------------------

    Molecular point group: c1
  Charge       = 0
  Multiplicity = 1
  Basis Set: AUG-CC-PVTZ
    Blend: AUG-CC-PVTZ
  Basis Set: (AUG-CC-PVTZ AUX)
    Blend: AUG-CC-PVTZ-JKFIT

    Orbital Energies [Eh]
    ---------------------

    Doubly Occupied:

       1A    -20.551290     2A    -11.276223     3A    -11.267441
       4A    -11.213988     5A    -11.207874     6A     -1.364175
       7A     -1.050759     8A     -0.941265     9A     -0.910188
      10A     -0.789894    11A     -0.668054    12A     -0.634544
      13A     -0.629854    14A     -0.586571    15A     -0.555185
      16A     -0.536879    17A     -0.524401    18A     -0.495513
      19A     -0.489956    20A     -0.459138    21A     -0.417715

  @DF-RHF Final Energy:  -232.22912442090831

   => Energetics <=

    Nuclear Repulsion Energy =            196.3966057232772755
    One-Electron Energy =                -704.1096471775424561
    Two-Electron Energy =                 275.4839170333568745
    Total Energy =                       -232.2291244209083061
  Basis Set: (AUG-CC-PVTZ AUX)
    Blend: AUG-CC-PVTZ-RI
    Molecular point group: c1

    Geometry (in Angstrom), charge = 0, multiplicity = 1:

       Center              X                  Y                   Z               Mass
    ------------   -----------------  -----------------  -----------------  -----------------
         O           -0.645783035912    -0.631034403173     0.298076303617    15.994914619570
         C            0.435372064088     0.071559496827    -0.317037096383    12.000000000000
         C            0.580731264088     1.508519596827     0.163145803617    12.000000000000
         C            1.670524064088    -0.748038503173    -0.000096096383    12.000000000000
         C           -1.924453935912    -0.199634503173    -0.155663096383    12.000000000000
         H            0.268068064088     0.075615496827    -1.407314096383     1.007825032230
         H            1.428612064088     1.992691496827    -0.272388096383     1.007825032230
         H           -0.321826935912     2.101475496827    -0.066219096383     1.007825032230
         H            0.685011064088     1.502220496827     1.265350903617     1.007825032230
         H            2.557268064088    -0.312204503173    -0.468505096383     1.007825032230
         H            1.546266064088    -1.771598503173    -0.359195096383     1.007825032230
         H            1.823446064088    -0.777025503173     1.081828903617     1.007825032230
         H           -2.174382935912     0.824593496827     0.146227903617     1.007825032230
         H           -2.650678935912    -0.882344503173     0.287207903617     1.007825032230
         H           -1.987805935912    -0.268400503173    -1.250726096383     1.007825032230

  Basis Set: AUG-CC-PVTZ
    Blend: AUG-CC-PVTZ
  Basis Set: (AUG-CC-PVTZ AUX)
    Blend: AUG-CC-PVTZ-JKFIT
	 Reference Energy          =    -232.2291244209083061 [Eh]
	 Singles Energy            =      -0.0000000000000000 [Eh]
	 Same-Spin Energy          =      -0.2319922913517199 [Eh]
	 Opposite-Spin Energy      =      -0.8257436743924225 [Eh]
	 Correlation Energy        =      -1.0577359657441423 [Eh]
	 Total Energy              =    -233.2868603866524495 [Eh]

	 ================> DF-SCS-MP2 Energies <==================
	-----------------------------------------------------------
	 SCS Same-Spin Scale       =       0.3333333333333333 [-]
	 SCS Opposite-Spin Scale   =       1.2000000000000000 [-]
	 SCS Same-Spin Energy      =      -0.0773307637839066 [Eh]
	 SCS Opposite-Spin Energy  =      -0.9908924092709069 [Eh]
	 SCS Correlation Energy    =      -1.0682231730548135 [Eh]
	 SCS Total Energy          =    -233.2973475939631101 [Eh]
	-----------------------------------------------------------

  Dipole Moment: [D]
     X:    -0.1260      Y:     0.9858      Z:    -0.8860     Total:     1.3315

*** Psi4 exiting successfully. Buy a developer a beer!
