                               Psi4 1.3.2 release

  ==> Input File <==

--------------------------------------------------------------------------
#psi4
#
memory 32 gb

molecule  {
0 1
  O       -0.6467090    -0.6144430     0.3058120
  C        0.4318116     0.0742323    -0.3293404
  C        0.5644410     1.5011670     0.1737700
  C        1.6750880    -0.7518830    -0.0055480
  C       -1.9144283    -0.1954869    -0.1688095
  H        0.2726320     0.0717710    -1.4127660
  H        1.4331760     1.9888470    -0.2778400
  H       -0.3172630     2.0976310    -0.0716710
  H        0.6895750     1.4983760     1.2598990
  H        2.5618320    -0.3160490    -0.4739570
  H        1.5508300    -1.7754430    -0.3646470
  H        1.8280100    -0.7808700     1.0763770
  H       -2.1698190     0.8207490     0.1407760
  H       -2.6461150    -0.8861890     0.2817560
  H       -1.9832420    -0.2722450    -1.2561780
units angstrom
no_reorient  #important for SAPT in psi4, default
symmetry c1  #important for SAPT in psi4, default
}

set PROPERTIES_ORIGIN ["COM"]
properties('MP2/aug-cc-pvtz', properties = ['dipole'])
--------------------------------------------------------------------------

    Molecular point group: c1
  Charge       = 0
  Multiplicity = 1
  Basis Set: AUG-CC-PVTZ
    Blend: AUG-CC-PVTZ
  Basis Set: (AUG-CC-PVTZ AUX)
    Blend: AUG-CC-PVTZ-JKFIT

    Orbital Energies [Eh]
    ---------------------

    Doubly Occupied:

       1A    -20.550543     2A    -11.275979     3A    -11.266449
       4A    -11.213193     5A    -11.208711     6A     -1.366338
       7A     -1.049598     8A     -0.940376     9A     -0.909622
      10A     -0.792050    11A     -0.668679    12A     -0.634703
      13A     -0.630562    14A     -0.587506    15A     -0.548328
      16A     -0.540370    17A     -0.525365    18A     -0.497328
      19A     -0.486876    20A     -0.460758    21A     -0.417916

  @DF-RHF Final Energy:  -232.23006442020665

   => Energetics <=

    Nuclear Repulsion Energy =            196.6230241816969908
    One-Electron Energy =                -704.5636828433730443
    Two-Electron Energy =                 275.7105942414693800
    Total Energy =                       -232.2300644202066451
  Basis Set: (AUG-CC-PVTZ AUX)
    Blend: AUG-CC-PVTZ-RI
    Molecular point group: c1

    Geometry (in Angstrom), charge = 0, multiplicity = 1:

       Center              X                  Y                   Z               Mass
    ------------   -----------------  -----------------  -----------------  -----------------
         O           -0.646277695300    -0.616793541228     0.308168356988    15.994914619570
         C            0.432242904700     0.071881758772    -0.326984043012    12.000000000000
         C            0.564872304700     1.498816458772     0.176126356988    12.000000000000
         C            1.675519304700    -0.754233541228    -0.003191643012    12.000000000000
         C           -1.913996995300    -0.197837441228    -0.166453143012    12.000000000000
         H            0.273063304700     0.069420458772    -1.410409643012     1.007825032230
         H            1.433607304700     1.986496458772    -0.275483643012     1.007825032230
         H           -0.316831695300     2.095280458772    -0.069314643012     1.007825032230
         H            0.690006304700     1.496025458772     1.262255356988     1.007825032230
         H            2.562263304700    -0.318399541228    -0.471600643012     1.007825032230
         H            1.551261304700    -1.777793541228    -0.362290643012     1.007825032230
         H            1.828441304700    -0.783220541228     1.078733356988     1.007825032230
         H           -2.169387695300     0.818398458772     0.143132356988     1.007825032230
         H           -2.645683695300    -0.888539541228     0.284112356988     1.007825032230
         H           -1.982810695300    -0.274595541228    -1.253821643012     1.007825032230

  Basis Set: AUG-CC-PVTZ
    Blend: AUG-CC-PVTZ
  Basis Set: (AUG-CC-PVTZ AUX)
    Blend: AUG-CC-PVTZ-JKFIT
	 Reference Energy          =    -232.2300644202066451 [Eh]
	 Singles Energy            =      -0.0000000000000000 [Eh]
	 Same-Spin Energy          =      -0.2319172283562056 [Eh]
	 Opposite-Spin Energy      =      -0.8255737606102003 [Eh]
	 Correlation Energy        =      -1.0574909889664059 [Eh]
	 Total Energy              =    -233.2875554091730521 [Eh]

	 ================> DF-SCS-MP2 Energies <==================
	-----------------------------------------------------------
	 SCS Same-Spin Scale       =       0.3333333333333333 [-]
	 SCS Opposite-Spin Scale   =       1.2000000000000000 [-]
	 SCS Same-Spin Energy      =      -0.0773057427854019 [Eh]
	 SCS Opposite-Spin Energy  =      -0.9906885127322402 [Eh]
	 SCS Correlation Energy    =      -1.0679942555176420 [Eh]
	 SCS Total Energy          =    -233.2980586757242918 [Eh]
	-----------------------------------------------------------

  Dipole Moment: [D]
     X:    -0.1072      Y:     0.9563      Z:    -0.9246     Total:     1.3345

*** Psi4 exiting successfully. Buy a developer a beer!
