                               Psi4 1.3.2 release

  ==> Input File <==

--------------------------------------------------------------------------
#psi4
#
memory 32 gb

molecule  {
0 1
  O       -0.6483379    -0.6254447     0.3004066
  C        0.4399360     0.0677150    -0.3224890
  C        0.5644410     1.5011670     0.1737700
  C        1.6750880    -0.7518830    -0.0055480
  C       -1.9198900    -0.2034790    -0.1611150
  H        0.2726320     0.0717710    -1.4127660
  H        1.4331760     1.9888470    -0.2778400
  H       -0.3172630     2.0976310    -0.0716710
  H        0.6895750     1.4983760     1.2598990
  H        2.5618320    -0.3160490    -0.4739570
  H        1.5508300    -1.7754430    -0.3646470
  H        1.8280100    -0.7808700     1.0763770
  H       -2.1782164     0.8199895     0.1362490
  H       -2.6461150    -0.8861890     0.2817560
  H       -1.9832420    -0.2722450    -1.2561780
units angstrom
no_reorient  #important for SAPT in psi4, default
symmetry c1  #important for SAPT in psi4, default
}

set PROPERTIES_ORIGIN ["COM"]
properties('MP2/aug-cc-pvtz', properties = ['dipole'])
--------------------------------------------------------------------------

    Molecular point group: c1
  Charge       = 0
  Multiplicity = 1
  Basis Set: AUG-CC-PVTZ
    Blend: AUG-CC-PVTZ
  Basis Set: (AUG-CC-PVTZ AUX)
    Blend: AUG-CC-PVTZ-JKFIT

    Orbital Energies [Eh]
    ---------------------

    Doubly Occupied:

       1A    -20.550259     2A    -11.276900     3A    -11.266365
       4A    -11.213743     5A    -11.208783     6A     -1.364443
       7A     -1.051070     8A     -0.940945     9A     -0.910068
      10A     -0.790250    11A     -0.667698    12A     -0.635137
      13A     -0.629922    14A     -0.587719    15A     -0.549086
      16A     -0.540520    17A     -0.525517    18A     -0.496586
      19A     -0.488280    20A     -0.460912    21A     -0.417056

  @DF-RHF Final Energy:  -232.23030107655561

   => Energetics <=

    Nuclear Repulsion Energy =            196.4739565960151708
    One-Electron Energy =                -704.2659967249708188
    Two-Electron Energy =                 275.5617390524000143
    Total Energy =                       -232.2303010765556337
  Basis Set: (AUG-CC-PVTZ AUX)
    Blend: AUG-CC-PVTZ-RI
    Molecular point group: c1

    Geometry (in Angstrom), charge = 0, multiplicity = 1:

       Center              X                  Y                   Z               Mass
    ------------   -----------------  -----------------  -----------------  -----------------
         O           -0.647871969719    -0.623058714909     0.301635295376    15.994914619570
         C            0.440401930281     0.070100985091    -0.321260304624    12.000000000000
         C            0.564906930281     1.503552985091     0.174998695376    12.000000000000
         C            1.675553930281    -0.749497014909    -0.004319304624    12.000000000000
         C           -1.919424069719    -0.201093014909    -0.159886304624    12.000000000000
         H            0.273097930281     0.074156985091    -1.411537304624     1.007825032230
         H            1.433641930281     1.991232985091    -0.276611304624     1.007825032230
         H           -0.316797069719     2.100016985091    -0.070442304624     1.007825032230
         H            0.690040930281     1.500761985091     1.261127695376     1.007825032230
         H            2.562297930281    -0.313663014909    -0.472728304624     1.007825032230
         H            1.551295930281    -1.773057014909    -0.363418304624     1.007825032230
         H            1.828475930281    -0.778484014909     1.077605695376     1.007825032230
         H           -2.177750469719     0.822375485091     0.137477695376     1.007825032230
         H           -2.645649069719    -0.883803014909     0.282984695376     1.007825032230
         H           -1.982776069719    -0.269859014909    -1.254949304624     1.007825032230

  Basis Set: AUG-CC-PVTZ
    Blend: AUG-CC-PVTZ
  Basis Set: (AUG-CC-PVTZ AUX)
    Blend: AUG-CC-PVTZ-JKFIT
	 Reference Energy          =    -232.2303010765556053 [Eh]
	 Singles Energy            =      -0.0000000000000000 [Eh]
	 Same-Spin Energy          =      -0.2319289248912095 [Eh]
	 Opposite-Spin Energy      =      -0.8255691401646672 [Eh]
	 Correlation Energy        =      -1.0574980650558767 [Eh]
	 Total Energy              =    -233.2877991416114867 [Eh]

	 ================> DF-SCS-MP2 Energies <==================
	-----------------------------------------------------------
	 SCS Same-Spin Scale       =       0.3333333333333333 [-]
	 SCS Opposite-Spin Scale   =       1.2000000000000000 [-]
	 SCS Same-Spin Energy      =      -0.0773096416304032 [Eh]
	 SCS Opposite-Spin Energy  =      -0.9906829681976006 [Eh]
	 SCS Correlation Energy    =      -1.0679926098280037 [Eh]
	 SCS Total Energy          =    -233.2982936863836017 [Eh]
	-----------------------------------------------------------

  Dipole Moment: [D]
     X:    -0.0821      Y:     0.9651      Z:    -0.8957     Total:     1.3193

*** Psi4 exiting successfully. Buy a developer a beer!
