                               Psi4 1.4a3.dev225

  ==> Input File <==

--------------------------------------------------------------------------
#psi4
#
memory 32 gb

molecule  {
0 1
  O        0.6924960    -0.5875230    -0.3608950
  C       -0.4202860    -0.0035560     0.3217990
  C       -0.6455470     1.4424380    -0.1023830
  C       -1.6101390    -0.8855300    -0.0083720
  C        1.9056237    -0.1284328     0.0740352
  H       -0.2277260    -0.0393910     1.4076130
  H       -1.5338460     1.8513180     0.3888140
  H        0.2023140     2.0815700     0.1563940
  H       -0.7932070     1.4834700    -1.1853400
  H       -2.5107390    -0.5301980     0.5006670
  H       -1.4118310    -1.9151080     0.2974910
  H       -1.7878760    -0.8729080    -1.0872030
  H        2.1245420     0.9377980    -0.1772120
  H        2.7055770    -0.7281970    -0.3993780
  H        2.0488910    -0.2183520     1.1794680
units angstrom
no_reorient  #important for SAPT in psi4, default
symmetry c1  #important for SAPT in psi4, default
}

set PROPERTIES_ORIGIN ["COM"]
properties('MP2/aug-cc-pvtz', properties = ['dipole'])
--------------------------------------------------------------------------

    Molecular point group: c1
  Charge       = 0
  Multiplicity = 1
  Basis Set: AUG-CC-PVTZ
    Blend: AUG-CC-PVTZ
  Basis Set: (AUG-CC-PVTZ AUX)
    Blend: AUG-CC-PVTZ-JKFIT

    Orbital Energies [Eh]
    ---------------------

    Doubly Occupied:

       1A    -20.553593     2A    -11.279812     3A    -11.268123
       4A    -11.214987     5A    -11.210833     6A     -1.383346
       7A     -1.055183     8A     -0.941379     9A     -0.905540
      10A     -0.793684    11A     -0.675134    12A     -0.638767
      13A     -0.637034    14A     -0.587917    15A     -0.546694
      16A     -0.542647    17A     -0.529204    18A     -0.495958
      19A     -0.483194    20A     -0.462709    21A     -0.414739

  @DF-RHF Final Energy:  -232.22896306435672

   => Energetics <=

    Nuclear Repulsion Energy =            197.2830069142333684
    One-Electron Energy =                -705.7829818431694093
    Two-Electron Energy =                 276.2710118645792932
    Total Energy =                       -232.2289630643567193
  Basis Set: (AUG-CC-PVTZ AUX)
    Blend: AUG-CC-PVTZ-RI
    Molecular point group: c1

    Geometry (in Angstrom), charge = 0, multiplicity = 1:

       Center              X                  Y                   Z               Mass
    ------------   -----------------  -----------------  -----------------  -----------------
         O            0.683868452744    -0.557386492507    -0.343861044509    15.994914619570
         C           -0.428913547256     0.026580507493     0.338832955491    12.000000000000
         C           -0.654174547256     1.472574507493    -0.085349044509    12.000000000000
         C           -1.618766547256    -0.855393492507     0.008661955491    12.000000000000
         C            1.896996152744    -0.098296292507     0.091069155491    12.000000000000
         H           -0.236353547256    -0.009254492507     1.424646955491     1.007825032230
         H           -1.542473547256     1.881454507493     0.405847955491     1.007825032230
         H            0.193686452744     2.111706507493     0.173427955491     1.007825032230
         H           -0.801834547256     1.513606507493    -1.168306044509     1.007825032230
         H           -2.519366547256    -0.500061492507     0.517700955491     1.007825032230
         H           -1.420458547256    -1.884971492507     0.314524955491     1.007825032230
         H           -1.796503547256    -0.842771492507    -1.070169044509     1.007825032230
         H            2.115914452744     0.967934507493    -0.160178044509     1.007825032230
         H            2.696949452744    -0.698060492507    -0.382344044509     1.007825032230
         H            2.040263452744    -0.188215492507     1.196501955491     1.007825032230

  Basis Set: AUG-CC-PVTZ
    Blend: AUG-CC-PVTZ
  Basis Set: (AUG-CC-PVTZ AUX)
    Blend: AUG-CC-PVTZ-JKFIT
	 Reference Energy          =    -232.2289630643567193 [Eh]
	 Singles Energy            =      -0.0000000000000000 [Eh]
	 Same-Spin Energy          =      -0.2319133634552810 [Eh]
	 Opposite-Spin Energy      =      -0.8248681243405991 [Eh]
	 Correlation Energy        =      -1.0567814877958801 [Eh]
	 Total Energy              =    -233.2857445521526074 [Eh]

	 ================> DF-SCS-MP2 Energies <==================
	-----------------------------------------------------------
	 SCS Same-Spin Scale       =       0.3333333333333333 [-]
	 SCS Opposite-Spin Scale   =       1.2000000000000000 [-]
	 SCS Same-Spin Energy      =      -0.0773044544850937 [Eh]
	 SCS Opposite-Spin Energy  =      -0.9898417492087188 [Eh]
	 SCS Correlation Energy    =      -1.0671462036938124 [Eh]
	 SCS Total Energy          =    -233.2961092680505431 [Eh]
	-----------------------------------------------------------

  Dipole Moment: [D]
     X:    -0.1397      Y:     0.8626      Z:     0.8915     Total:     1.2483

*** Psi4 exiting successfully. Buy a developer a beer!
