                               Psi4 1.3.2 release

  ==> Input File <==

--------------------------------------------------------------------------
#psi4
#
memory 32 gb

molecule  {
0 1
  O       -0.6579319    -0.6799547     0.2728607
  C        0.4399360     0.0677150    -0.3224890
  C        0.5644410     1.5011670     0.1737700
  C        1.6750880    -0.7518830    -0.0055480
  C       -1.9198900    -0.2034790    -0.1611150
  H        0.2726320     0.0717710    -1.4127660
  H        1.4331760     1.9888470    -0.2778400
  H       -0.3172630     2.0976310    -0.0716710
  H        0.6895750     1.4983760     1.2598990
  H        2.5618320    -0.3160490    -0.4739570
  H        1.5508300    -1.7754430    -0.3646470
  H        1.8280100    -0.7808700     1.0763770
  H       -2.2198954     0.8150243     0.1132814
  H       -2.6461150    -0.8861890     0.2817560
  H       -1.9832420    -0.2722450    -1.2561780
units angstrom
no_reorient  #important for SAPT in psi4, default
symmetry c1  #important for SAPT in psi4, default
}

set PROPERTIES_ORIGIN ["COM"]
properties('MP2/aug-cc-pvtz', properties = ['dipole'])
--------------------------------------------------------------------------

    Molecular point group: c1
  Charge       = 0
  Multiplicity = 1
  Basis Set: AUG-CC-PVTZ
    Blend: AUG-CC-PVTZ
  Basis Set: (AUG-CC-PVTZ AUX)
    Blend: AUG-CC-PVTZ-JKFIT

    Orbital Energies [Eh]
    ---------------------

    Doubly Occupied:

       1A    -20.552761     2A    -11.279012     3A    -11.264950
       4A    -11.216665     5A    -11.209247     6A     -1.358854
       7A     -1.052085     8A     -0.942203     9A     -0.907932
      10A     -0.790793    11A     -0.666291    12A     -0.635353
      13A     -0.623524    14A     -0.589464    15A     -0.551213
      16A     -0.541488    17A     -0.524136    18A     -0.493546
      19A     -0.485863    20A     -0.463671    21A     -0.419831

  @DF-RHF Final Energy:  -232.22683690173312

   => Energetics <=

    Nuclear Repulsion Energy =            195.8294565852172013
    One-Electron Energy =                -702.9748247624800115
    Two-Electron Energy =                 274.9185312755296877
    Total Energy =                       -232.2268369017331224
  Basis Set: (AUG-CC-PVTZ AUX)
    Blend: AUG-CC-PVTZ-RI
    Molecular point group: c1

    Geometry (in Angstrom), charge = 0, multiplicity = 1:

       Center              X                  Y                   Z               Mass
    ------------   -----------------  -----------------  -----------------  -----------------
         O           -0.654827222603    -0.665730597158     0.280349984365    15.994914619570
         C            0.443040677397     0.081939102842    -0.314999715635    12.000000000000
         C            0.567545677397     1.515391102842     0.181259284365    12.000000000000
         C            1.678192677397    -0.737658897158     0.001941284365    12.000000000000
         C           -1.916785322603    -0.189254897158    -0.153625715635    12.000000000000
         H            0.275736677397     0.085995102842    -1.405276715635     1.007825032230
         H            1.436280677397     2.003071102842    -0.270350715635     1.007825032230
         H           -0.314158322603     2.111855102842    -0.064181715635     1.007825032230
         H            0.692679677397     1.512600102842     1.267388284365     1.007825032230
         H            2.564936677397    -0.301824897158    -0.466467715635     1.007825032230
         H            1.553934677397    -1.761218897158    -0.357157715635     1.007825032230
         H            1.831114677397    -0.766645897158     1.083866284365     1.007825032230
         H           -2.216790722603     0.829248402842     0.120770684365     1.007825032230
         H           -2.643010322603    -0.871964897158     0.289245284365     1.007825032230
         H           -1.980137322603    -0.258020897158    -1.248688715635     1.007825032230

  Basis Set: AUG-CC-PVTZ
    Blend: AUG-CC-PVTZ
  Basis Set: (AUG-CC-PVTZ AUX)
    Blend: AUG-CC-PVTZ-JKFIT
	 Reference Energy          =    -232.2268369017331224 [Eh]
	 Singles Energy            =      -0.0000000000000000 [Eh]
	 Same-Spin Energy          =      -0.2321702112236789 [Eh]
	 Opposite-Spin Energy      =      -0.8264051834726596 [Eh]
	 Correlation Energy        =      -1.0585753946963385 [Eh]
	 Total Energy              =    -233.2854122964294561 [Eh]

	 ================> DF-SCS-MP2 Energies <==================
	-----------------------------------------------------------
	 SCS Same-Spin Scale       =       0.3333333333333333 [-]
	 SCS Opposite-Spin Scale   =       1.2000000000000000 [-]
	 SCS Same-Spin Energy      =      -0.0773900704078929 [Eh]
	 SCS Opposite-Spin Energy  =      -0.9916862201671914 [Eh]
	 SCS Correlation Energy    =      -1.0690762905750844 [Eh]
	 SCS Total Energy          =    -233.2959131923082055 [Eh]
	-----------------------------------------------------------

  Dipole Moment: [D]
     X:    -0.0032      Y:     1.1103      Z:    -0.8416     Total:     1.3932

*** Psi4 exiting successfully. Buy a developer a beer!
