                               Psi4 1.3.2 release

  ==> Input File <==

--------------------------------------------------------------------------
#psi4
#
memory 32 gb

molecule  {
0 1
  O       -0.6467090    -0.6144430     0.3058120
  C        0.3638724     0.0199649    -0.2785088
  C        0.5644410     1.5011670     0.1737700
  C        1.6750880    -0.7518830    -0.0055480
  C       -1.9198900    -0.2034790    -0.1611150
  H        0.2726320     0.0717710    -1.4127660
  H        1.4331760     1.9888470    -0.2778400
  H       -0.3172630     2.0976310    -0.0716710
  H        0.6895750     1.4983760     1.2598990
  H        2.5618320    -0.3160490    -0.4739570
  H        1.5508300    -1.7754430    -0.3646470
  H        1.8280100    -0.7808700     1.0763770
  H       -2.1698190     0.8207490     0.1407760
  H       -2.6461150    -0.8861890     0.2817560
  H       -1.9832420    -0.2722450    -1.2561780
units angstrom
no_reorient  #important for SAPT in psi4, default
symmetry c1  #important for SAPT in psi4, default
}

set PROPERTIES_ORIGIN ["COM"]
properties('MP2/aug-cc-pvtz', properties = ['dipole'])
--------------------------------------------------------------------------

    Molecular point group: c1
  Charge       = 0
  Multiplicity = 1
  Basis Set: AUG-CC-PVTZ
    Blend: AUG-CC-PVTZ
  Basis Set: (AUG-CC-PVTZ AUX)
    Blend: AUG-CC-PVTZ-JKFIT

    Orbital Energies [Eh]
    ---------------------

    Doubly Occupied:

       1A    -20.561037     2A    -11.277758     3A    -11.274524
       4A    -11.209543     5A    -11.206274     6A     -1.407377
       7A     -1.040167     8A     -0.941752     9A     -0.916945
      10A     -0.789505    11A     -0.681200    12A     -0.647475
      13A     -0.641124    14A     -0.585011    15A     -0.548798
      16A     -0.534389    17A     -0.529152    18A     -0.508937
      19A     -0.494674    20A     -0.444011    21A     -0.406767

  @DF-RHF Final Energy:  -232.22253098959743

   => Energetics <=

    Nuclear Repulsion Energy =            197.5397005966108566
    One-Electron Energy =                -706.2316258934578173
    Two-Electron Energy =                 276.4693943072495586
    Total Energy =                       -232.2225309895974306
  Basis Set: (AUG-CC-PVTZ AUX)
    Blend: AUG-CC-PVTZ-RI
    Molecular point group: c1

    Geometry (in Angstrom), charge = 0, multiplicity = 1:

       Center              X                  Y                   Z               Mass
    ------------   -----------------  -----------------  -----------------  -----------------
         O           -0.634386603557    -0.606707378438     0.298687012421    15.994914619570
         C            0.376194796443     0.027700521562    -0.285633787579    12.000000000000
         C            0.576763396443     1.508902621562     0.166645012421    12.000000000000
         C            1.687410396443    -0.744147378438    -0.012672987579    12.000000000000
         C           -1.907567603557    -0.195743378438    -0.168239987579    12.000000000000
         H            0.284954396443     0.079506621562    -1.419890987579     1.007825032230
         H            1.445498396443     1.996582621562    -0.284964987579     1.007825032230
         H           -0.304940603557     2.105366621562    -0.078795987579     1.007825032230
         H            0.701897396443     1.506111621562     1.252774012421     1.007825032230
         H            2.574154396443    -0.308313378438    -0.481081987579     1.007825032230
         H            1.563152396443    -1.767707378438    -0.371771987579     1.007825032230
         H            1.840332396443    -0.773134378438     1.069252012421     1.007825032230
         H           -2.157496603557     0.828484621562     0.133651012421     1.007825032230
         H           -2.633792603557    -0.878453378438     0.274631012421     1.007825032230
         H           -1.970919603557    -0.264509378438    -1.263302987579     1.007825032230

  Basis Set: AUG-CC-PVTZ
    Blend: AUG-CC-PVTZ
  Basis Set: (AUG-CC-PVTZ AUX)
    Blend: AUG-CC-PVTZ-JKFIT
	 Reference Energy          =    -232.2225309895974306 [Eh]
	 Singles Energy            =      -0.0000000000000000 [Eh]
	 Same-Spin Energy          =      -0.2318518031733615 [Eh]
	 Opposite-Spin Energy      =      -0.8244295629734464 [Eh]
	 Correlation Energy        =      -1.0562813661468078 [Eh]
	 Total Energy              =    -233.2788123557442361 [Eh]

	 ================> DF-SCS-MP2 Energies <==================
	-----------------------------------------------------------
	 SCS Same-Spin Scale       =       0.3333333333333333 [-]
	 SCS Opposite-Spin Scale   =       1.2000000000000000 [-]
	 SCS Same-Spin Energy      =      -0.0772839343911205 [Eh]
	 SCS Opposite-Spin Energy  =      -0.9893154755681356 [Eh]
	 SCS Correlation Energy    =      -1.0665994099592562 [Eh]
	 SCS Total Energy          =    -233.2891303995566830 [Eh]
	-----------------------------------------------------------

  Dipole Moment: [D]
     X:    -0.4942      Y:     0.7556      Z:    -0.7942     Total:     1.2025

*** Psi4 exiting successfully. Buy a developer a beer!
