                               Psi4 1.3.2 release

  ==> Input File <==

--------------------------------------------------------------------------
#psi4
#
memory 32 gb

molecule  {
0 1
  O       -0.6414559    -0.6124471     0.3169405
  C        0.4399360     0.0677150    -0.3224890
  C        0.5644410     1.5011670     0.1737700
  C        1.6750880    -0.7518830    -0.0055480
  C       -1.9198900    -0.2034790    -0.1611150
  H        0.2808645     0.0766122    -1.4139688
  H        1.4331760     1.9888470    -0.2778400
  H       -0.3172630     2.0976310    -0.0716710
  H        0.6895750     1.4983760     1.2598990
  H        2.5618320    -0.3160490    -0.4739570
  H        1.5508300    -1.7754430    -0.3646470
  H        1.8280100    -0.7808700     1.0763770
  H       -2.1698190     0.8207490     0.1407760
  H       -2.6461150    -0.8861890     0.2817560
  H       -1.9832420    -0.2722450    -1.2561780
units angstrom
no_reorient  #important for SAPT in psi4, default
symmetry c1  #important for SAPT in psi4, default
}

set PROPERTIES_ORIGIN ["COM"]
properties('MP2/aug-cc-pvtz', properties = ['dipole'])
--------------------------------------------------------------------------

    Molecular point group: c1
  Charge       = 0
  Multiplicity = 1
  Basis Set: AUG-CC-PVTZ
    Blend: AUG-CC-PVTZ
  Basis Set: (AUG-CC-PVTZ AUX)
    Blend: AUG-CC-PVTZ-JKFIT

    Orbital Energies [Eh]
    ---------------------

    Doubly Occupied:

       1A    -20.550442     2A    -11.276186     3A    -11.267436
       4A    -11.212764     5A    -11.208283     6A     -1.363611
       7A     -1.050112     8A     -0.940480     9A     -0.910714
      10A     -0.789794    11A     -0.667312    12A     -0.634200
      13A     -0.630618    14A     -0.586496    15A     -0.548405
      16A     -0.540012    17A     -0.525294    18A     -0.497290
      19A     -0.488432    20A     -0.461069    21A     -0.416781

  @DF-RHF Final Energy:  -232.23006487630812

   => Energetics <=

    Nuclear Repulsion Energy =            196.5120831806063961
    One-Electron Energy =                -704.3528368012532610
    Two-Electron Energy =                 275.6106887443387450
    Total Energy =                       -232.2300648763081199
  Basis Set: (AUG-CC-PVTZ AUX)
    Blend: AUG-CC-PVTZ-RI
    Molecular point group: c1

    Geometry (in Angstrom), charge = 0, multiplicity = 1:

       Center              X                  Y                   Z               Mass
    ------------   -----------------  -----------------  -----------------  -----------------
         O           -0.642702290666    -0.612943940668     0.314553735836    15.994914619570
         C            0.438689609334     0.067218159332    -0.324875764164    12.000000000000
         C            0.563194609334     1.500670159332     0.171383235836    12.000000000000
         C            1.673841609334    -0.752379840668    -0.007934764164    12.000000000000
         C           -1.921136390666    -0.203975840668    -0.163501764164    12.000000000000
         H            0.279618109334     0.076115359332    -1.416355564164     1.007825032230
         H            1.431929609334     1.988350159332    -0.280226764164     1.007825032230
         H           -0.318509390666     2.097134159332    -0.074057764164     1.007825032230
         H            0.688328609334     1.497879159332     1.257512235836     1.007825032230
         H            2.560585609334    -0.316545840668    -0.476343764164     1.007825032230
         H            1.549583609334    -1.775939840668    -0.367033764164     1.007825032230
         H            1.826763609334    -0.781366840668     1.073990235836     1.007825032230
         H           -2.171065390666     0.820252159332     0.138389235836     1.007825032230
         H           -2.647361390666    -0.886685840668     0.279369235836     1.007825032230
         H           -1.984488390666    -0.272741840668    -1.258564764164     1.007825032230

  Basis Set: AUG-CC-PVTZ
    Blend: AUG-CC-PVTZ
  Basis Set: (AUG-CC-PVTZ AUX)
    Blend: AUG-CC-PVTZ-JKFIT
	 Reference Energy          =    -232.2300648763081199 [Eh]
	 Singles Energy            =      -0.0000000000000000 [Eh]
	 Same-Spin Energy          =      -0.2319549687582148 [Eh]
	 Opposite-Spin Energy      =      -0.8257021531024609 [Eh]
	 Correlation Energy        =      -1.0576571218606756 [Eh]
	 Total Energy              =    -233.2877219981687915 [Eh]

	 ================> DF-SCS-MP2 Energies <==================
	-----------------------------------------------------------
	 SCS Same-Spin Scale       =       0.3333333333333333 [-]
	 SCS Opposite-Spin Scale   =       1.2000000000000000 [-]
	 SCS Same-Spin Energy      =      -0.0773183229194049 [Eh]
	 SCS Opposite-Spin Energy  =      -0.9908425837229530 [Eh]
	 SCS Correlation Energy    =      -1.0681609066423579 [Eh]
	 SCS Total Energy          =    -233.2982257829504817 [Eh]
	-----------------------------------------------------------

  Dipole Moment: [D]
     X:    -0.1286      Y:     0.9315      Z:    -0.9348     Total:     1.3259

*** Psi4 exiting successfully. Buy a developer a beer!
