                               Psi4 1.3.2 release

  ==> Input File <==

--------------------------------------------------------------------------
#psi4
#
memory 32 gb

molecule  {
0 1
  O       -0.6467090    -0.6144430     0.3058120
  C        0.4399360     0.0677150    -0.3224890
  C        0.5644410     1.5011670     0.1737700
  C        1.6750880    -0.7518830    -0.0055480
  C       -1.8300398    -0.2324813    -0.1281633
  H        0.2726320     0.0717710    -1.4127660
  H        1.4331760     1.9888470    -0.2778400
  H       -0.3172630     2.0976310    -0.0716710
  H        0.6895750     1.4983760     1.2598990
  H        2.5618320    -0.3160490    -0.4739570
  H        1.5508300    -1.7754430    -0.3646470
  H        1.8280100    -0.7808700     1.0763770
  H       -2.1698190     0.8207490     0.1407760
  H       -2.6461150    -0.8861890     0.2817560
  H       -1.9832420    -0.2722450    -1.2561780
units angstrom
no_reorient  #important for SAPT in psi4, default
symmetry c1  #important for SAPT in psi4, default
}

set PROPERTIES_ORIGIN ["COM"]
properties('MP2/aug-cc-pvtz', properties = ['dipole'])
--------------------------------------------------------------------------

    Molecular point group: c1
  Charge       = 0
  Multiplicity = 1
  Basis Set: AUG-CC-PVTZ
    Blend: AUG-CC-PVTZ
  Basis Set: (AUG-CC-PVTZ AUX)
    Blend: AUG-CC-PVTZ-JKFIT

    Orbital Energies [Eh]
    ---------------------

    Doubly Occupied:

       1A    -20.557746     2A    -11.282513     3A    -11.270326
       4A    -11.216108     5A    -11.212504     6A     -1.406167
       7A     -1.061329     8A     -0.942950     9A     -0.901282
      10A     -0.798019    11A     -0.684655    12A     -0.647871
      13A     -0.642144    14A     -0.590319    15A     -0.547170
      16A     -0.544768    17A     -0.532174    18A     -0.495015
      19A     -0.479216    20A     -0.461246    21A     -0.410861

  @DF-RHF Final Energy:  -232.22194351839951

   => Energetics <=

    Nuclear Repulsion Energy =            198.3450036819928926
    One-Electron Energy =                -707.7651231870414676
    Two-Electron Energy =                 277.1981759866490620
    Total Energy =                       -232.2219435183994847
  Basis Set: (AUG-CC-PVTZ AUX)
    Blend: AUG-CC-PVTZ-RI
    Molecular point group: c1

    Geometry (in Angstrom), charge = 0, multiplicity = 1:

       Center              X                  Y                   Z               Mass
    ------------   -----------------  -----------------  -----------------  -----------------
         O           -0.661264969043    -0.609744559314     0.300473651349    15.994914619570
         C            0.425380030957     0.072413440686    -0.327827348651    12.000000000000
         C            0.549885030957     1.505865440686     0.168431651349    12.000000000000
         C            1.660532030957    -0.747184559314    -0.010886348651    12.000000000000
         C           -1.844595769043    -0.227782859314    -0.133501648651    12.000000000000
         H            0.258076030957     0.076469440686    -1.418104348651     1.007825032230
         H            1.418620030957     1.993545440686    -0.283178348651     1.007825032230
         H           -0.331818969043     2.102329440686    -0.077009348651     1.007825032230
         H            0.675019030957     1.503074440686     1.254560651349     1.007825032230
         H            2.547276030957    -0.311350559314    -0.479295348651     1.007825032230
         H            1.536274030957    -1.770744559314    -0.369985348651     1.007825032230
         H            1.813454030957    -0.776171559314     1.071038651349     1.007825032230
         H           -2.184374969043     0.825447440686     0.135437651349     1.007825032230
         H           -2.660670969043    -0.881490559314     0.276417651349     1.007825032230
         H           -1.997797969043    -0.267546559314    -1.261516348651     1.007825032230

  Basis Set: AUG-CC-PVTZ
    Blend: AUG-CC-PVTZ
  Basis Set: (AUG-CC-PVTZ AUX)
    Blend: AUG-CC-PVTZ-JKFIT
	 Reference Energy          =    -232.2219435183995131 [Eh]
	 Singles Energy            =      -0.0000000000000000 [Eh]
	 Same-Spin Energy          =      -0.2321477536586691 [Eh]
	 Opposite-Spin Energy      =      -0.8244714446127126 [Eh]
	 Correlation Energy        =      -1.0566191982713817 [Eh]
	 Total Energy              =    -233.2785627166709048 [Eh]

	 ================> DF-SCS-MP2 Energies <==================
	-----------------------------------------------------------
	 SCS Same-Spin Scale       =       0.3333333333333333 [-]
	 SCS Opposite-Spin Scale   =       1.2000000000000000 [-]
	 SCS Same-Spin Energy      =      -0.0773825845528897 [Eh]
	 SCS Opposite-Spin Energy  =      -0.9893657335352550 [Eh]
	 SCS Correlation Energy    =      -1.0667483180881447 [Eh]
	 SCS Total Energy          =    -233.2886918364876578 [Eh]
	-----------------------------------------------------------

  Dipole Moment: [D]
     X:     0.3348      Y:     0.8639      Z:    -0.7899     Total:     1.2176

*** Psi4 exiting successfully. Buy a developer a beer!
