                               Psi4 1.4a3.dev225

  ==> Input File <==

--------------------------------------------------------------------------
#psi4
#
memory 32 gb

molecule  {
0 1
  O        0.6924960    -0.5875230    -0.3608950
  C       -0.4202860    -0.0035560     0.3217990
  C       -0.6455470     1.4424380    -0.1023830
  C       -1.6101390    -0.8855300    -0.0083720
  C        1.9942983    -0.0948752     0.1058268
  H       -0.2277260    -0.0393910     1.4076130
  H       -1.5338460     1.8513180     0.3888140
  H        0.2023140     2.0815700     0.1563940
  H       -0.7932070     1.4834700    -1.1853400
  H       -2.5107390    -0.5301980     0.5006670
  H       -1.4118310    -1.9151080     0.2974910
  H       -1.7878760    -0.8729080    -1.0872030
  H        2.1245420     0.9377980    -0.1772120
  H        2.7055770    -0.7281970    -0.3993780
  H        2.0488910    -0.2183520     1.1794680
units angstrom
no_reorient  #important for SAPT in psi4, default
symmetry c1  #important for SAPT in psi4, default
}

set PROPERTIES_ORIGIN ["COM"]
properties('MP2/aug-cc-pvtz', properties = ['dipole'])
--------------------------------------------------------------------------

    Molecular point group: c1
  Charge       = 0
  Multiplicity = 1
  Basis Set: AUG-CC-PVTZ
    Blend: AUG-CC-PVTZ
  Basis Set: (AUG-CC-PVTZ AUX)
    Blend: AUG-CC-PVTZ-JKFIT

    Orbital Energies [Eh]
    ---------------------

    Doubly Occupied:

       1A    -20.546072     2A    -11.274404     3A    -11.266474
       4A    -11.212343     5A    -11.207396     6A     -1.348404
       7A     -1.045895     8A     -0.940257     9A     -0.914678
      10A     -0.786310    11A     -0.661130    12A     -0.632766
      13A     -0.624897    14A     -0.587680    15A     -0.551995
      16A     -0.538140    17A     -0.521581    18A     -0.497396
      19A     -0.492903    20A     -0.455880    21A     -0.416349

  @DF-RHF Final Energy:  -232.22748877881412

   => Energetics <=

    Nuclear Repulsion Energy =            195.6245514589883499
    One-Electron Energy =                -702.6581807057157221
    Two-Electron Energy =                 274.8061404679132806
    Total Energy =                       -232.2274887788141200
  Basis Set: (AUG-CC-PVTZ AUX)
    Blend: AUG-CC-PVTZ-RI
    Molecular point group: c1

    Geometry (in Angstrom), charge = 0, multiplicity = 1:

       Center              X                  Y                   Z               Mass
    ------------   -----------------  -----------------  -----------------  -----------------
         O            0.669502991233    -0.562822890429    -0.349011346920    15.994914619570
         C           -0.443279008767     0.021144109571     0.333682653080    12.000000000000
         C           -0.668540008767     1.467138109571    -0.090499346920    12.000000000000
         C           -1.633132008767    -0.860829890429     0.003511653080    12.000000000000
         C            1.971305291233    -0.070175090429     0.117710453080    12.000000000000
         H           -0.250719008767    -0.014690890429     1.419496653080     1.007825032230
         H           -1.556839008767     1.876018109571     0.400697653080     1.007825032230
         H            0.179320991233     2.106270109571     0.168277653080     1.007825032230
         H           -0.816200008767     1.508170109571    -1.173456346920     1.007825032230
         H           -2.533732008767    -0.505497890429     0.512550653080     1.007825032230
         H           -1.434824008767    -1.890407890429     0.309374653080     1.007825032230
         H           -1.810869008767    -0.848207890429    -1.075319346920     1.007825032230
         H            2.101548991233     0.962498109571    -0.165328346920     1.007825032230
         H            2.682583991233    -0.703496890429    -0.387494346920     1.007825032230
         H            2.025897991233    -0.193651890429     1.191351653080     1.007825032230

  Basis Set: AUG-CC-PVTZ
    Blend: AUG-CC-PVTZ
  Basis Set: (AUG-CC-PVTZ AUX)
    Blend: AUG-CC-PVTZ-JKFIT
	 Reference Energy          =    -232.2274887788141200 [Eh]
	 Singles Energy            =      -0.0000000000000000 [Eh]
	 Same-Spin Energy          =      -0.2319597658941520 [Eh]
	 Opposite-Spin Energy      =      -0.8263856500713481 [Eh]
	 Correlation Energy        =      -1.0583454159655001 [Eh]
	 Total Energy              =    -233.2858341947796248 [Eh]

	 ================> DF-SCS-MP2 Energies <==================
	-----------------------------------------------------------
	 SCS Same-Spin Scale       =       0.3333333333333333 [-]
	 SCS Opposite-Spin Scale   =       1.2000000000000000 [-]
	 SCS Same-Spin Energy      =      -0.0773199219647173 [Eh]
	 SCS Opposite-Spin Energy  =      -0.9916627800856177 [Eh]
	 SCS Correlation Energy    =      -1.0689827020503351 [Eh]
	 SCS Total Energy          =    -233.2964714808644544 [Eh]
	-----------------------------------------------------------

  Dipole Moment: [D]
     X:     0.2329      Y:     0.9440      Z:     0.9861     Total:     1.3848

*** Psi4 exiting successfully. Buy a developer a beer!
