                               Psi4 1.3.2 release

  ==> Input File <==

--------------------------------------------------------------------------
#psi4
#
memory 32 gb

molecule  {
0 1
  O       -0.6440053    -0.6246873     0.2992419
  C        0.4399360     0.0677150    -0.3224890
  C        0.5748732     1.5029757     0.1657505
  C        1.6750880    -0.7518830    -0.0055480
  C       -1.9198900    -0.2034790    -0.1611150
  H        0.2726320     0.0717710    -1.4127660
  H        1.4331760     1.9888470    -0.2778400
  H       -0.3172630     2.0976310    -0.0716710
  H        0.6895750     1.4983760     1.2598990
  H        2.5618320    -0.3160490    -0.4739570
  H        1.5508300    -1.7754430    -0.3646470
  H        1.8280100    -0.7808700     1.0763770
  H       -2.1698190     0.8207490     0.1407760
  H       -2.6461150    -0.8861890     0.2817560
  H       -1.9832420    -0.2722450    -1.2561780
units angstrom
no_reorient  #important for SAPT in psi4, default
symmetry c1  #important for SAPT in psi4, default
}

set PROPERTIES_ORIGIN ["COM"]
properties('MP2/aug-cc-pvtz', properties = ['dipole'])
--------------------------------------------------------------------------

    Molecular point group: c1
  Charge       = 0
  Multiplicity = 1
  Basis Set: AUG-CC-PVTZ
    Blend: AUG-CC-PVTZ
  Basis Set: (AUG-CC-PVTZ AUX)
    Blend: AUG-CC-PVTZ-JKFIT

    Orbital Energies [Eh]
    ---------------------

    Doubly Occupied:

       1A    -20.550507     2A    -11.276355     3A    -11.267025
       4A    -11.213548     5A    -11.208290     6A     -1.364843
       7A     -1.050820     8A     -0.940946     9A     -0.910340
      10A     -0.789995    11A     -0.667962    12A     -0.634813
      13A     -0.630522    14A     -0.586945    15A     -0.551798
      16A     -0.538641    17A     -0.525235    18A     -0.496350
      19A     -0.489280    20A     -0.459825    21A     -0.417072

  @DF-RHF Final Energy:  -232.23012049693011

   => Energetics <=

    Nuclear Repulsion Energy =            196.4968981136931347
    One-Electron Energy =                -704.3118126271104984
    Two-Electron Energy =                 275.5847940164872512
    Total Energy =                       -232.2301204969301125
  Basis Set: (AUG-CC-PVTZ AUX)
    Blend: AUG-CC-PVTZ-RI
    Molecular point group: c1

    Geometry (in Angstrom), charge = 0, multiplicity = 1:

       Center              X                  Y                   Z               Mass
    ------------   -----------------  -----------------  -----------------  -----------------
         O           -0.646279215886    -0.622768209924     0.301959675169    15.994914619570
         C            0.437662084114     0.069634090076    -0.319771224831    12.000000000000
         C            0.572599284114     1.504894790076     0.168468275169    12.000000000000
         C            1.672814084114    -0.749963909924    -0.002830224831    12.000000000000
         C           -1.922163915886    -0.201559909924    -0.158397224831    12.000000000000
         H            0.270358084114     0.073690090076    -1.410048224831     1.007825032230
         H            1.430902084114     1.990766090076    -0.275122224831     1.007825032230
         H           -0.319536915886     2.099550090076    -0.068953224831     1.007825032230
         H            0.687301084114     1.500295090076     1.262616775169     1.007825032230
         H            2.559558084114    -0.314129909924    -0.471239224831     1.007825032230
         H            1.548556084114    -1.773523909924    -0.361929224831     1.007825032230
         H            1.825736084114    -0.778950909924     1.079094775169     1.007825032230
         H           -2.172092915886     0.822668090076     0.143493775169     1.007825032230
         H           -2.648388915886    -0.884269909924     0.284473775169     1.007825032230
         H           -1.985515915886    -0.270325909924    -1.253460224831     1.007825032230

  Basis Set: AUG-CC-PVTZ
    Blend: AUG-CC-PVTZ
  Basis Set: (AUG-CC-PVTZ AUX)
    Blend: AUG-CC-PVTZ-JKFIT
	 Reference Energy          =    -232.2301204969301125 [Eh]
	 Singles Energy            =      -0.0000000000000000 [Eh]
	 Same-Spin Energy          =      -0.2319383125518170 [Eh]
	 Opposite-Spin Energy      =      -0.8255746610945208 [Eh]
	 Correlation Energy        =      -1.0575129736463378 [Eh]
	 Total Energy              =    -233.2876334705764521 [Eh]

	 ================> DF-SCS-MP2 Energies <==================
	-----------------------------------------------------------
	 SCS Same-Spin Scale       =       0.3333333333333333 [-]
	 SCS Opposite-Spin Scale   =       1.2000000000000000 [-]
	 SCS Same-Spin Energy      =      -0.0773127708506056 [Eh]
	 SCS Opposite-Spin Energy  =      -0.9906895933134250 [Eh]
	 SCS Correlation Energy    =      -1.0680023641640306 [Eh]
	 SCS Total Energy          =    -233.2981228610941571 [Eh]
	-----------------------------------------------------------

  Dipole Moment: [D]
     X:    -0.1107      Y:     0.9613      Z:    -0.8963     Total:     1.3190

*** Psi4 exiting successfully. Buy a developer a beer!
