                               Psi4 1.3.2 release

  ==> Input File <==

--------------------------------------------------------------------------
#psi4
#
memory 32 gb

molecule  {
0 1
  O       -0.6467090    -0.6144430     0.3058120
  C        0.4399360     0.0677150    -0.3224890
  C        0.5644410     1.5011670     0.1737700
  C        1.6750880    -0.7518830    -0.0055480
  C       -2.0995903    -0.1454744    -0.2270184
  H        0.2726320     0.0717710    -1.4127660
  H        1.4331760     1.9888470    -0.2778400
  H       -0.3172630     2.0976310    -0.0716710
  H        0.6895750     1.4983760     1.2598990
  H        2.5618320    -0.3160490    -0.4739570
  H        1.5508300    -1.7754430    -0.3646470
  H        1.8280100    -0.7808700     1.0763770
  H       -2.1698190     0.8207490     0.1407760
  H       -2.6461150    -0.8861890     0.2817560
  H       -1.9832420    -0.2722450    -1.2561780
units angstrom
no_reorient  #important for SAPT in psi4, default
symmetry c1  #important for SAPT in psi4, default
}

set PROPERTIES_ORIGIN ["COM"]
properties('MP2/aug-cc-pvtz', properties = ['dipole'])
--------------------------------------------------------------------------

    Molecular point group: c1
  Charge       = 0
  Multiplicity = 1
  Basis Set: AUG-CC-PVTZ
    Blend: AUG-CC-PVTZ
  Basis Set: (AUG-CC-PVTZ AUX)
    Blend: AUG-CC-PVTZ-JKFIT

    Orbital Energies [Eh]
    ---------------------

    Doubly Occupied:

       1A    -20.535007     2A    -11.271456     3A    -11.267184
       4A    -11.208540     5A    -11.202664     6A     -1.312518
       7A     -1.035690     8A     -0.945199     9A     -0.922495
      10A     -0.777436    11A     -0.652326    12A     -0.633492
      13A     -0.621030    14A     -0.587283    15A     -0.563218
      16A     -0.532862    17A     -0.507131    18A     -0.497624
      19A     -0.494891    20A     -0.435908    21A     -0.411099

  @DF-RHF Final Energy:  -232.20038533257852

   => Energetics <=

    Nuclear Repulsion Energy =            193.5260167217512617
    One-Electron Energy =                -698.6227016144513300
    Two-Electron Energy =                 272.8962995601215198
    Total Energy =                       -232.2003853325785485
  Basis Set: (AUG-CC-PVTZ AUX)
    Blend: AUG-CC-PVTZ-RI
    Molecular point group: c1

    Geometry (in Angstrom), charge = 0, multiplicity = 1:

       Center              X                  Y                   Z               Mass
    ------------   -----------------  -----------------  -----------------  -----------------
         O           -0.617597252097    -0.623839850110     0.316488374102    15.994914619570
         C            0.469047747903     0.058318149890    -0.311812625898    12.000000000000
         C            0.593552747903     1.491770149890     0.184446374102    12.000000000000
         C            1.704199747903    -0.761279850110     0.005128374102    12.000000000000
         C           -2.070478552097    -0.154871250110    -0.216342025898    12.000000000000
         H            0.301743747903     0.062374149890    -1.402089625898     1.007825032230
         H            1.462287747903     1.979450149890    -0.267163625898     1.007825032230
         H           -0.288151252097     2.088234149890    -0.060994625898     1.007825032230
         H            0.718686747903     1.488979149890     1.270575374102     1.007825032230
         H            2.590943747903    -0.325445850110    -0.463280625898     1.007825032230
         H            1.579941747903    -1.784839850110    -0.353970625898     1.007825032230
         H            1.857121747903    -0.790266850110     1.087053374102     1.007825032230
         H           -2.140707252097     0.811352149890     0.151452374102     1.007825032230
         H           -2.617003252097    -0.895585850110     0.292432374102     1.007825032230
         H           -1.954130252097    -0.281641850110    -1.245501625898     1.007825032230

  Basis Set: AUG-CC-PVTZ
    Blend: AUG-CC-PVTZ
  Basis Set: (AUG-CC-PVTZ AUX)
    Blend: AUG-CC-PVTZ-JKFIT
	 Reference Energy          =    -232.2003853325785201 [Eh]
	 Singles Energy            =      -0.0000000000000000 [Eh]
	 Same-Spin Energy          =      -0.2330031783093452 [Eh]
	 Opposite-Spin Energy      =      -0.8303086840293348 [Eh]
	 Correlation Energy        =      -1.0633118623386799 [Eh]
	 Total Energy              =    -233.2636971949171993 [Eh]

	 ================> DF-SCS-MP2 Energies <==================
	-----------------------------------------------------------
	 SCS Same-Spin Scale       =       0.3333333333333333 [-]
	 SCS Opposite-Spin Scale   =       1.2000000000000000 [-]
	 SCS Same-Spin Energy      =      -0.0776677261031151 [Eh]
	 SCS Opposite-Spin Energy  =      -0.9963704208352017 [Eh]
	 SCS Correlation Energy    =      -1.0740381469383167 [Eh]
	 SCS Total Energy          =    -233.2744234795168268 [Eh]
	-----------------------------------------------------------

  Dipole Moment: [D]
     X:    -0.6526      Y:     1.0219      Z:    -1.0604     Total:     1.6108

*** Psi4 exiting successfully. Buy a developer a beer!
