                               Psi4 1.3.2 release

  ==> Input File <==

--------------------------------------------------------------------------
#psi4
#
memory 32 gb

molecule  {
0 1
  O       -0.6764762    -0.6253224     0.2380660
  C        0.4399360     0.0677150    -0.3224890
  C        0.5644410     1.5011670     0.1737700
  C        1.6750880    -0.7518830    -0.0055480
  C       -1.9198900    -0.2034790    -0.1611150
  H        0.2235265     0.0427304    -1.4038094
  H        1.4331760     1.9888470    -0.2778400
  H       -0.3172630     2.0976310    -0.0716710
  H        0.6895750     1.4983760     1.2598990
  H        2.5618320    -0.3160490    -0.4739570
  H        1.5508300    -1.7754430    -0.3646470
  H        1.8280100    -0.7808700     1.0763770
  H       -2.1698190     0.8207490     0.1407760
  H       -2.6461150    -0.8861890     0.2817560
  H       -1.9832420    -0.2722450    -1.2561780
units angstrom
no_reorient  #important for SAPT in psi4, default
symmetry c1  #important for SAPT in psi4, default
}

set PROPERTIES_ORIGIN ["COM"]
properties('MP2/aug-cc-pvtz', properties = ['dipole'])
--------------------------------------------------------------------------

    Molecular point group: c1
  Charge       = 0
  Multiplicity = 1
  Basis Set: AUG-CC-PVTZ
    Blend: AUG-CC-PVTZ
  Basis Set: (AUG-CC-PVTZ AUX)
    Blend: AUG-CC-PVTZ-JKFIT

    Orbital Energies [Eh]
    ---------------------

    Doubly Occupied:

       1A    -20.545534     2A    -11.278595     3A    -11.262132
       4A    -11.215628     5A    -11.211277     6A     -1.377589
       7A     -1.055590     8A     -0.941992     9A     -0.909700
      10A     -0.792088    11A     -0.671846    12A     -0.640522
      13A     -0.635183    14A     -0.592354    15A     -0.550404
      16A     -0.542055    17A     -0.529344    18A     -0.496549
      19A     -0.491467    20A     -0.454155    21A     -0.412565

  @DF-RHF Final Energy:  -232.22955895960061

   => Energetics <=

    Nuclear Repulsion Energy =            197.1203497198449952
    One-Electron Energy =                -705.4866830483322246
    Two-Electron Energy =                 276.1367743688866199
    Total Energy =                       -232.2295589596006380
  Basis Set: (AUG-CC-PVTZ AUX)
    Blend: AUG-CC-PVTZ-RI
    Molecular point group: c1

    Geometry (in Angstrom), charge = 0, multiplicity = 1:

       Center              X                  Y                   Z               Mass
    ------------   -----------------  -----------------  -----------------  -----------------
         O           -0.669380387648    -0.622578036508     0.252572695114    15.994914619570
         C            0.447031812352     0.070459363492    -0.307982304886    12.000000000000
         C            0.571536812352     1.503911363492     0.188276695114    12.000000000000
         C            1.682183812352    -0.749138636508     0.008958695114    12.000000000000
         C           -1.912794187648    -0.200734636508    -0.146608304886    12.000000000000
         H            0.230622312352     0.045474763492    -1.389302704886     1.007825032230
         H            1.440271812352     1.991591363492    -0.263333304886     1.007825032230
         H           -0.310167187648     2.100375363492    -0.057164304886     1.007825032230
         H            0.696670812352     1.501120363492     1.274405695114     1.007825032230
         H            2.568927812352    -0.313304636508    -0.459450304886     1.007825032230
         H            1.557925812352    -1.772698636508    -0.350140304886     1.007825032230
         H            1.835105812352    -0.778125636508     1.090883695114     1.007825032230
         H           -2.162723187648     0.823493363492     0.155282695114     1.007825032230
         H           -2.639019187648    -0.883444636508     0.296262695114     1.007825032230
         H           -1.976146187648    -0.269500636508    -1.241671304886     1.007825032230

  Basis Set: AUG-CC-PVTZ
    Blend: AUG-CC-PVTZ
  Basis Set: (AUG-CC-PVTZ AUX)
    Blend: AUG-CC-PVTZ-JKFIT
	 Reference Energy          =    -232.2295589596006096 [Eh]
	 Singles Energy            =      -0.0000000000000000 [Eh]
	 Same-Spin Energy          =      -0.2316953450678547 [Eh]
	 Opposite-Spin Energy      =      -0.8241673521669444 [Eh]
	 Correlation Energy        =      -1.0558626972347991 [Eh]
	 Total Energy              =    -233.2854216568354104 [Eh]

	 ================> DF-SCS-MP2 Energies <==================
	-----------------------------------------------------------
	 SCS Same-Spin Scale       =       0.3333333333333333 [-]
	 SCS Opposite-Spin Scale   =       1.2000000000000000 [-]
	 SCS Same-Spin Energy      =      -0.0772317816892849 [Eh]
	 SCS Opposite-Spin Energy  =      -0.9890008226003332 [Eh]
	 SCS Correlation Energy    =      -1.0662326042896180 [Eh]
	 SCS Total Energy          =    -233.2957915638902193 [Eh]
	-----------------------------------------------------------

  Dipole Moment: [D]
     X:     0.0961      Y:     0.9556      Z:    -0.7256     Total:     1.2037

*** Psi4 exiting successfully. Buy a developer a beer!
