                               Psi4 1.4a3.dev225

  ==> Input File <==

--------------------------------------------------------------------------
#psi4
#
memory 32 gb

molecule  {
0 1
  O        0.6924960    -0.5875230    -0.3608950
  C       -0.4358476     0.0046104     0.3313461
  C       -0.6455470     1.4424380    -0.1023830
  C       -1.6101390    -0.8855300    -0.0083720
  C        1.9499610    -0.1116540     0.0899310
  H       -0.2277260    -0.0393910     1.4076130
  H       -1.5338460     1.8513180     0.3888140
  H        0.2023140     2.0815700     0.1563940
  H       -0.7932070     1.4834700    -1.1853400
  H       -2.5107390    -0.5301980     0.5006670
  H       -1.4118310    -1.9151080     0.2974910
  H       -1.7878760    -0.8729080    -1.0872030
  H        2.1245420     0.9377980    -0.1772120
  H        2.7055770    -0.7281970    -0.3993780
  H        2.0488910    -0.2183520     1.1794680
units angstrom
no_reorient  #important for SAPT in psi4, default
symmetry c1  #important for SAPT in psi4, default
}

set PROPERTIES_ORIGIN ["COM"]
properties('MP2/aug-cc-pvtz', properties = ['dipole'])
--------------------------------------------------------------------------

    Molecular point group: c1
  Charge       = 0
  Multiplicity = 1
  Basis Set: AUG-CC-PVTZ
    Blend: AUG-CC-PVTZ
  Basis Set: (AUG-CC-PVTZ AUX)
    Blend: AUG-CC-PVTZ-JKFIT

    Orbital Energies [Eh]
    ---------------------

    Doubly Occupied:

       1A    -20.547458     2A    -11.277166     3A    -11.265296
       4A    -11.214318     5A    -11.209602     6A     -1.357420
       7A     -1.052606     8A     -0.941296     9A     -0.908216
      10A     -0.790387    11A     -0.665131    12A     -0.634078
      13A     -0.627888    14A     -0.587361    15A     -0.548725
      16A     -0.541532    17A     -0.525317    18A     -0.497753
      19A     -0.486012    20A     -0.461409    21A     -0.416872

  @DF-RHF Final Energy:  -232.22967180343630

   => Energetics <=

    Nuclear Repulsion Energy =            196.2594209353045471
    One-Electron Energy =                -703.8664995016763442
    Two-Electron Energy =                 275.3774067629354931
    Total Energy =                       -232.2296718034363039
  Basis Set: (AUG-CC-PVTZ AUX)
    Blend: AUG-CC-PVTZ-RI
    Molecular point group: c1

    Geometry (in Angstrom), charge = 0, multiplicity = 1:

       Center              X                  Y                   Z               Mass
    ------------   -----------------  -----------------  -----------------  -----------------
         O            0.679206732130    -0.561427664505    -0.347982844897    15.994914619570
         C           -0.449136867870     0.030705735495     0.344258255103    12.000000000000
         C           -0.658836267870     1.468533335495    -0.089470844897    12.000000000000
         C           -1.623428267870    -0.859434664505     0.004540155103    12.000000000000
         C            1.936671732130    -0.085558664505     0.102843155103    12.000000000000
         H           -0.241015267870    -0.013295664505     1.420525155103     1.007825032230
         H           -1.547135267870     1.877413335495     0.401726155103     1.007825032230
         H            0.189024732130     2.107665335495     0.169306155103     1.007825032230
         H           -0.806496267870     1.509565335495    -1.172427844897     1.007825032230
         H           -2.524028267870    -0.504102664505     0.513579155103     1.007825032230
         H           -1.425120267870    -1.889012664505     0.310403155103     1.007825032230
         H           -1.801165267870    -0.846812664505    -1.074290844897     1.007825032230
         H            2.111252732130     0.963893335495    -0.164299844897     1.007825032230
         H            2.692287732130    -0.702101664505    -0.386465844897     1.007825032230
         H            2.035601732130    -0.192256664505     1.192380155103     1.007825032230

  Basis Set: AUG-CC-PVTZ
    Blend: AUG-CC-PVTZ
  Basis Set: (AUG-CC-PVTZ AUX)
    Blend: AUG-CC-PVTZ-JKFIT
	 Reference Energy          =    -232.2296718034363039 [Eh]
	 Singles Energy            =      -0.0000000000000000 [Eh]
	 Same-Spin Energy          =      -0.2319683114588997 [Eh]
	 Opposite-Spin Energy      =      -0.8258520893461033 [Eh]
	 Correlation Energy        =      -1.0578204008050029 [Eh]
	 Total Energy              =    -233.2874922042413175 [Eh]

	 ================> DF-SCS-MP2 Energies <==================
	-----------------------------------------------------------
	 SCS Same-Spin Scale       =       0.3333333333333333 [-]
	 SCS Opposite-Spin Scale   =       1.2000000000000000 [-]
	 SCS Same-Spin Energy      =      -0.0773227704862999 [Eh]
	 SCS Opposite-Spin Energy  =      -0.9910225072153239 [Eh]
	 SCS Correlation Energy    =      -1.0683452777016238 [Eh]
	 SCS Total Energy          =    -233.2980170811379139 [Eh]
	-----------------------------------------------------------

  Dipole Moment: [D]
     X:    -0.0148      Y:     0.9329      Z:     0.9638     Total:     1.3415

*** Psi4 exiting successfully. Buy a developer a beer!
