                               Psi4 1.3.2 release

  ==> Input File <==

--------------------------------------------------------------------------
#psi4
#
memory 32 gb

molecule  {
0 1
  O       -0.6467090    -0.6144430     0.3058120
  C        0.3899704     0.1060223    -0.3628617
  C        0.5644410     1.5011670     0.1737700
  C        1.6750880    -0.7518830    -0.0055480
  C       -1.8856804    -0.1560169    -0.2067283
  H        0.2726320     0.0717710    -1.4127660
  H        1.4331760     1.9888470    -0.2778400
  H       -0.3172630     2.0976310    -0.0716710
  H        0.6895750     1.4983760     1.2598990
  H        2.5618320    -0.3160490    -0.4739570
  H        1.5508300    -1.7754430    -0.3646470
  H        1.8280100    -0.7808700     1.0763770
  H       -2.1698190     0.8207490     0.1407760
  H       -2.6461150    -0.8861890     0.2817560
  H       -1.9832420    -0.2722450    -1.2561780
units angstrom
no_reorient  #important for SAPT in psi4, default
symmetry c1  #important for SAPT in psi4, default
}

set PROPERTIES_ORIGIN ["COM"]
properties('MP2/aug-cc-pvtz', properties = ['dipole'])
--------------------------------------------------------------------------

    Molecular point group: c1
  Charge       = 0
  Multiplicity = 1
  Basis Set: AUG-CC-PVTZ
    Blend: AUG-CC-PVTZ
  Basis Set: (AUG-CC-PVTZ AUX)
    Blend: AUG-CC-PVTZ-JKFIT

    Orbital Energies [Eh]
    ---------------------

    Doubly Occupied:

       1A    -20.554973     2A    -11.274443     3A    -11.266785
       4A    -11.213800     5A    -11.208656     6A     -1.371111
       7A     -1.044528     8A     -0.939060     9A     -0.906169
      10A     -0.802073    11A     -0.673067    12A     -0.640070
      13A     -0.623507    14A     -0.588361    15A     -0.546877
      16A     -0.541855    17A     -0.524656    18A     -0.503936
      19A     -0.475352    20A     -0.454578    21A     -0.422955

  @DF-RHF Final Energy:  -232.21677147100183

   => Energetics <=

    Nuclear Repulsion Energy =            196.7740834399103278
    One-Electron Energy =                -704.8280839618336131
    Two-Electron Energy =                 275.8372290509214508
    Total Energy =                       -232.2167714710018345
  Basis Set: (AUG-CC-PVTZ AUX)
    Blend: AUG-CC-PVTZ-RI
    Molecular point group: c1

    Geometry (in Angstrom), charge = 0, multiplicity = 1:

       Center              X                  Y                   Z               Mass
    ------------   -----------------  -----------------  -----------------  -----------------
         O           -0.644156554666    -0.628337802914     0.319741795232    15.994914619570
         C            0.392522845334     0.092127497086    -0.348931904768    12.000000000000
         C            0.566993445334     1.487272197086     0.187699795232    12.000000000000
         C            1.677640445334    -0.765777802914     0.008381795232    12.000000000000
         C           -1.883127954666    -0.169911702914    -0.192798504768    12.000000000000
         H            0.275184445334     0.057876197086    -1.398836204768     1.007825032230
         H            1.435728445334     1.974952197086    -0.263910204768     1.007825032230
         H           -0.314710554666     2.083736197086    -0.057741204768     1.007825032230
         H            0.692127445334     1.484481197086     1.273828795232     1.007825032230
         H            2.564384445334    -0.329943802914    -0.460027204768     1.007825032230
         H            1.553382445334    -1.789337802914    -0.350717204768     1.007825032230
         H            1.830562445334    -0.794764802914     1.090306795232     1.007825032230
         H           -2.167266554666     0.806854197086     0.154705795232     1.007825032230
         H           -2.643562554666    -0.900083802914     0.295685795232     1.007825032230
         H           -1.980689554666    -0.286139802914    -1.242248204768     1.007825032230

  Basis Set: AUG-CC-PVTZ
    Blend: AUG-CC-PVTZ
  Basis Set: (AUG-CC-PVTZ AUX)
    Blend: AUG-CC-PVTZ-JKFIT
	 Reference Energy          =    -232.2167714710018345 [Eh]
	 Singles Energy            =      -0.0000000000000000 [Eh]
	 Same-Spin Energy          =      -0.2323369694099364 [Eh]
	 Opposite-Spin Energy      =      -0.8269198860407100 [Eh]
	 Correlation Energy        =      -1.0592568554506463 [Eh]
	 Total Energy              =    -233.2760283264524901 [Eh]

	 ================> DF-SCS-MP2 Energies <==================
	-----------------------------------------------------------
	 SCS Same-Spin Scale       =       0.3333333333333333 [-]
	 SCS Opposite-Spin Scale   =       1.2000000000000000 [-]
	 SCS Same-Spin Energy      =      -0.0774456564699788 [Eh]
	 SCS Opposite-Spin Energy  =      -0.9923038632488519 [Eh]
	 SCS Correlation Energy    =      -1.0697495197188307 [Eh]
	 SCS Total Energy          =    -233.2865209907206747 [Eh]
	-----------------------------------------------------------

  Dipole Moment: [D]
     X:    -0.1467      Y:     1.0577      Z:    -1.0056     Total:     1.4668

*** Psi4 exiting successfully. Buy a developer a beer!
