                               Psi4 1.3.2 release

  ==> Input File <==

--------------------------------------------------------------------------
#psi4
#
memory 32 gb

molecule  {
0 1
  O       -0.6500636    -0.6364143     0.2949660
  C        0.4399360     0.0677150    -0.3224890
  C        0.5644410     1.5011670     0.1737700
  C        1.6750880    -0.7518830    -0.0055480
  C       -1.9198900    -0.2034790    -0.1611150
  H        0.2726320     0.0717710    -1.4127660
  H        1.4331760     1.9888470    -0.2778400
  H       -0.3172630     2.0976310    -0.0716710
  H        0.6895750     1.4983760     1.2598990
  H        2.5618320    -0.3160490    -0.4739570
  H        1.5508300    -1.7754430    -0.3646470
  H        1.8280100    -0.7808700     1.0763770
  H       -2.1865941     0.8191521     0.1316994
  H       -2.6461150    -0.8861890     0.2817560
  H       -1.9832420    -0.2722450    -1.2561780
units angstrom
no_reorient  #important for SAPT in psi4, default
symmetry c1  #important for SAPT in psi4, default
}

set PROPERTIES_ORIGIN ["COM"]
properties('MP2/aug-cc-pvtz', properties = ['dipole'])
--------------------------------------------------------------------------

    Molecular point group: c1
  Charge       = 0
  Multiplicity = 1
  Basis Set: AUG-CC-PVTZ
    Blend: AUG-CC-PVTZ
  Basis Set: (AUG-CC-PVTZ AUX)
    Blend: AUG-CC-PVTZ-JKFIT

    Orbital Energies [Eh]
    ---------------------

    Doubly Occupied:

       1A    -20.550770     2A    -11.277297     3A    -11.266092
       4A    -11.214319     5A    -11.208863     6A     -1.363355
       7A     -1.051255     8A     -0.941211     9A     -0.909639
      10A     -0.790353    11A     -0.667466    12A     -0.635176
      13A     -0.628618    14A     -0.588080    15A     -0.549521
      16A     -0.540725    17A     -0.525178    18A     -0.495967
      19A     -0.487922    20A     -0.461410    21A     -0.417718

  @DF-RHF Final Energy:  -232.22988007381539

   => Energetics <=

    Nuclear Repulsion Energy =            196.3483414287990172
    One-Electron Energy =                -704.0145752766793521
    Two-Electron Energy =                 275.4363537740649690
    Total Energy =                       -232.2298800738153659
  Basis Set: (AUG-CC-PVTZ AUX)
    Blend: AUG-CC-PVTZ-RI
    Molecular point group: c1

    Geometry (in Angstrom), charge = 0, multiplicity = 1:

       Center              X                  Y                   Z               Mass
    ------------   -----------------  -----------------  -----------------  -----------------
         O           -0.649111047068    -0.631648211828     0.297431406853    15.994914619570
         C            0.440888552932     0.072481088172    -0.320023593147    12.000000000000
         C            0.565393552932     1.505933088172     0.176235406853    12.000000000000
         C            1.676040552932    -0.747116911828    -0.003082593147    12.000000000000
         C           -1.918937447068    -0.198712911828    -0.158649593147    12.000000000000
         H            0.273584552932     0.076537088172    -1.410300593147     1.007825032230
         H            1.434128552932     1.993613088172    -0.275374593147     1.007825032230
         H           -0.316310447068     2.102397088172    -0.069205593147     1.007825032230
         H            0.690527552932     1.503142088172     1.262364406853     1.007825032230
         H            2.562784552932    -0.311282911828    -0.471491593147     1.007825032230
         H            1.551782552932    -1.770676911828    -0.362181593147     1.007825032230
         H            1.828962552932    -0.776103911828     1.078842406853     1.007825032230
         H           -2.185641547068     0.823918188172     0.134164806853     1.007825032230
         H           -2.645162447068    -0.881422911828     0.284221406853     1.007825032230
         H           -1.982289447068    -0.267478911828    -1.253712593147     1.007825032230

  Basis Set: AUG-CC-PVTZ
    Blend: AUG-CC-PVTZ
  Basis Set: (AUG-CC-PVTZ AUX)
    Blend: AUG-CC-PVTZ-JKFIT
	 Reference Energy          =    -232.2298800738153943 [Eh]
	 Singles Energy            =      -0.0000000000000000 [Eh]
	 Same-Spin Energy          =      -0.2319670527355348 [Eh]
	 Opposite-Spin Energy      =      -0.8257126767792241 [Eh]
	 Correlation Energy        =      -1.0576797295147589 [Eh]
	 Total Energy              =    -233.2875598033301401 [Eh]

	 ================> DF-SCS-MP2 Energies <==================
	-----------------------------------------------------------
	 SCS Same-Spin Scale       =       0.3333333333333333 [-]
	 SCS Opposite-Spin Scale   =       1.2000000000000000 [-]
	 SCS Same-Spin Energy      =      -0.0773223509118449 [Eh]
	 SCS Opposite-Spin Energy  =      -0.9908552121350689 [Eh]
	 SCS Correlation Energy    =      -1.0681775630469139 [Eh]
	 SCS Total Energy          =    -233.2980576368622962 [Eh]
	-----------------------------------------------------------

  Dipole Moment: [D]
     X:    -0.0671      Y:     0.9945      Z:    -0.8849     Total:     1.3329

*** Psi4 exiting successfully. Buy a developer a beer!
