                               Psi4 1.3.2 release

  ==> Input File <==

--------------------------------------------------------------------------
#psi4
#
memory 32 gb

molecule  {
0 1
  O       -0.6467090    -0.6144430     0.3058120
  C        0.4559358     0.0545251    -0.3086431
  C        0.5644410     1.5011670     0.1737700
  C        1.6750880    -0.7518830    -0.0055480
  C       -1.9305221    -0.2195565    -0.1456199
  H        0.2726320     0.0717710    -1.4127660
  H        1.4331760     1.9888470    -0.2778400
  H       -0.3172630     2.0976310    -0.0716710
  H        0.6895750     1.4983760     1.2598990
  H        2.5618320    -0.3160490    -0.4739570
  H        1.5508300    -1.7754430    -0.3646470
  H        1.8280100    -0.7808700     1.0763770
  H       -2.1698190     0.8207490     0.1407760
  H       -2.6461150    -0.8861890     0.2817560
  H       -1.9832420    -0.2722450    -1.2561780
units angstrom
no_reorient  #important for SAPT in psi4, default
symmetry c1  #important for SAPT in psi4, default
}

set PROPERTIES_ORIGIN ["COM"]
properties('MP2/aug-cc-pvtz', properties = ['dipole'])
--------------------------------------------------------------------------

    Molecular point group: c1
  Charge       = 0
  Multiplicity = 1
  Basis Set: AUG-CC-PVTZ
    Blend: AUG-CC-PVTZ
  Basis Set: (AUG-CC-PVTZ AUX)
    Blend: AUG-CC-PVTZ-JKFIT

    Orbital Energies [Eh]
    ---------------------

    Doubly Occupied:

       1A    -20.548239     2A    -11.277804     3A    -11.267240
       4A    -11.213226     5A    -11.208697     6A     -1.363995
       7A     -1.053802     8A     -0.941269     9A     -0.912454
      10A     -0.786478    11A     -0.666539    12A     -0.638183
      13A     -0.631053    14A     -0.586961    15A     -0.549325
      16A     -0.540384    17A     -0.527445    18A     -0.501347
      19A     -0.487132    20A     -0.459015    21A     -0.412813

  @DF-RHF Final Energy:  -232.22934585506738

   => Energetics <=

    Nuclear Repulsion Energy =            196.5528630537259005
    One-Electron Energy =                -704.4176156890960101
    Two-Electron Energy =                 275.6354067803027306
    Total Energy =                       -232.2293458550673790
  Basis Set: (AUG-CC-PVTZ AUX)
    Blend: AUG-CC-PVTZ-RI
    Molecular point group: c1

    Geometry (in Angstrom), charge = 0, multiplicity = 1:

       Center              X                  Y                   Z               Mass
    ------------   -----------------  -----------------  -----------------  -----------------
         O           -0.647578636067    -0.609701612587     0.301058591928    15.994914619570
         C            0.455066163933     0.059266487413    -0.313396508072    12.000000000000
         C            0.563571363933     1.505908387413     0.169016591928    12.000000000000
         C            1.674218363933    -0.747141612587    -0.010301408072    12.000000000000
         C           -1.931391736067    -0.214815112587    -0.150373308072    12.000000000000
         H            0.271762363933     0.076512387413    -1.417519408072     1.007825032230
         H            1.432306363933     1.993588387413    -0.282593408072     1.007825032230
         H           -0.318132636067     2.102372387413    -0.076424408072     1.007825032230
         H            0.688705363933     1.503117387413     1.255145591928     1.007825032230
         H            2.560962363933    -0.311307612587    -0.478710408072     1.007825032230
         H            1.549960363933    -1.770701612587    -0.369400408072     1.007825032230
         H            1.827140363933    -0.776128612587     1.071623591928     1.007825032230
         H           -2.170688636067     0.825490387413     0.136022591928     1.007825032230
         H           -2.646984636067    -0.881447612587     0.277002591928     1.007825032230
         H           -1.984111636067    -0.267503612587    -1.260931408072     1.007825032230

  Basis Set: AUG-CC-PVTZ
    Blend: AUG-CC-PVTZ
  Basis Set: (AUG-CC-PVTZ AUX)
    Blend: AUG-CC-PVTZ-JKFIT
	 Reference Energy          =    -232.2293458550673790 [Eh]
	 Singles Energy            =      -0.0000000000000000 [Eh]
	 Same-Spin Energy          =      -0.2319156943716010 [Eh]
	 Opposite-Spin Energy      =      -0.8253001157776247 [Eh]
	 Correlation Energy        =      -1.0572158101492257 [Eh]
	 Total Energy              =    -233.2865616652165954 [Eh]

	 ================> DF-SCS-MP2 Energies <==================
	-----------------------------------------------------------
	 SCS Same-Spin Scale       =       0.3333333333333333 [-]
	 SCS Opposite-Spin Scale   =       1.2000000000000000 [-]
	 SCS Same-Spin Energy      =      -0.0773052314572003 [Eh]
	 SCS Opposite-Spin Energy  =      -0.9903601389331497 [Eh]
	 SCS Correlation Energy    =      -1.0676653703903500 [Eh]
	 SCS Total Energy          =    -233.2970112254577373 [Eh]
	-----------------------------------------------------------

  Dipole Moment: [D]
     X:    -0.0719      Y:     0.8938      Z:    -0.8684     Total:     1.2482

*** Psi4 exiting successfully. Buy a developer a beer!
