                               Psi4 1.3.2 release

  ==> Input File <==

--------------------------------------------------------------------------
#psi4
#
memory 32 gb

molecule  {
0 1
  O       -0.6361205    -0.6103994     0.3280203
  C        0.4399360     0.0677150    -0.3224890
  C        0.5644410     1.5011670     0.1737700
  C        1.6750880    -0.7518830    -0.0055480
  C       -1.9198900    -0.2034790    -0.1611150
  H        0.2891091     0.0814526    -1.4150884
  H        1.4331760     1.9888470    -0.2778400
  H       -0.3172630     2.0976310    -0.0716710
  H        0.6895750     1.4983760     1.2598990
  H        2.5618320    -0.3160490    -0.4739570
  H        1.5508300    -1.7754430    -0.3646470
  H        1.8280100    -0.7808700     1.0763770
  H       -2.1698190     0.8207490     0.1407760
  H       -2.6461150    -0.8861890     0.2817560
  H       -1.9832420    -0.2722450    -1.2561780
units angstrom
no_reorient  #important for SAPT in psi4, default
symmetry c1  #important for SAPT in psi4, default
}

set PROPERTIES_ORIGIN ["COM"]
properties('MP2/aug-cc-pvtz', properties = ['dipole'])
--------------------------------------------------------------------------

    Molecular point group: c1
  Charge       = 0
  Multiplicity = 1
  Basis Set: AUG-CC-PVTZ
    Blend: AUG-CC-PVTZ
  Basis Set: (AUG-CC-PVTZ AUX)
    Blend: AUG-CC-PVTZ-JKFIT

    Orbital Energies [Eh]
    ---------------------

    Doubly Occupied:

       1A    -20.551136     2A    -11.275864     3A    -11.268253
       4A    -11.212356     5A    -11.207859     6A     -1.361741
       7A     -1.049330     8A     -0.940297     9A     -0.910953
      10A     -0.789430    11A     -0.666734    12A     -0.633303
      13A     -0.630014    14A     -0.585638    15A     -0.548174
      16A     -0.539719    17A     -0.524699    18A     -0.497392
      19A     -0.488403    20A     -0.461509    21A     -0.417174

  @DF-RHF Final Energy:  -232.22935320383525

   => Energetics <=

    Nuclear Repulsion Energy =            196.4268767461814491
    One-Electron Energy =                -704.1925081315488342
    Two-Electron Energy =                 275.5362781815321114
    Total Energy =                       -232.2293532038352737
  Basis Set: (AUG-CC-PVTZ AUX)
    Blend: AUG-CC-PVTZ-RI
    Molecular point group: c1

    Geometry (in Angstrom), charge = 0, multiplicity = 1:

       Center              X                  Y                   Z               Mass
    ------------   -----------------  -----------------  -----------------  -----------------
         O           -0.638631159336    -0.611404266253     0.323256263389    15.994914619570
         C            0.437425340664     0.066710133747    -0.327253036611    12.000000000000
         C            0.561930340664     1.500162133747     0.169005963389    12.000000000000
         C            1.672577340664    -0.752887866253    -0.010312036611    12.000000000000
         C           -1.922400659336    -0.204483866253    -0.165879036611    12.000000000000
         H            0.286598440664     0.080447733747    -1.419852436611     1.007825032230
         H            1.430665340664     1.987842133747    -0.282604036611     1.007825032230
         H           -0.319773659336     2.096626133747    -0.076435036611     1.007825032230
         H            0.687064340664     1.497371133747     1.255134963389     1.007825032230
         H            2.559321340664    -0.317053866253    -0.478721036611     1.007825032230
         H            1.548319340664    -1.776447866253    -0.369411036611     1.007825032230
         H            1.825499340664    -0.781874866253     1.071612963389     1.007825032230
         H           -2.172329659336     0.819744133747     0.136011963389     1.007825032230
         H           -2.648625659336    -0.887193866253     0.276991963389     1.007825032230
         H           -1.985752659336    -0.273249866253    -1.260942036611     1.007825032230

  Basis Set: AUG-CC-PVTZ
    Blend: AUG-CC-PVTZ
  Basis Set: (AUG-CC-PVTZ AUX)
    Blend: AUG-CC-PVTZ-JKFIT
	 Reference Energy          =    -232.2293532038352453 [Eh]
	 Singles Energy            =      -0.0000000000000000 [Eh]
	 Same-Spin Energy          =      -0.2320212588755283 [Eh]
	 Opposite-Spin Energy      =      -0.8259817495793186 [Eh]
	 Correlation Energy        =      -1.0580030084548468 [Eh]
	 Total Energy              =    -233.2873562122900921 [Eh]

	 ================> DF-SCS-MP2 Energies <==================
	-----------------------------------------------------------
	 SCS Same-Spin Scale       =       0.3333333333333333 [-]
	 SCS Opposite-Spin Scale   =       1.2000000000000000 [-]
	 SCS Same-Spin Energy      =      -0.0773404196251761 [Eh]
	 SCS Opposite-Spin Energy  =      -0.9911780994951822 [Eh]
	 SCS Correlation Energy    =      -1.0685185191203583 [Eh]
	 SCS Total Energy          =    -233.2978717229555912 [Eh]
	-----------------------------------------------------------

  Dipole Moment: [D]
     X:    -0.1606      Y:     0.9271      Z:    -0.9626     Total:     1.3461

*** Psi4 exiting successfully. Buy a developer a beer!
