                               Psi4 1.3.2 release

  ==> Input File <==

--------------------------------------------------------------------------
#psi4
#
memory 32 gb

molecule  {
0 1
  O       -0.6292532    -0.6751024     0.2656911
  C        0.4399360     0.0677150    -0.3224890
  C        0.6268644     1.5103771     0.1251078
  C        1.6750880    -0.7518830    -0.0055480
  C       -1.9198900    -0.2034790    -0.1611150
  H        0.2726320     0.0717710    -1.4127660
  H        1.4331760     1.9888470    -0.2778400
  H       -0.3172630     2.0976310    -0.0716710
  H        0.6895750     1.4983760     1.2598990
  H        2.5618320    -0.3160490    -0.4739570
  H        1.5508300    -1.7754430    -0.3646470
  H        1.8280100    -0.7808700     1.0763770
  H       -2.1698190     0.8207490     0.1407760
  H       -2.6461150    -0.8861890     0.2817560
  H       -1.9832420    -0.2722450    -1.2561780
units angstrom
no_reorient  #important for SAPT in psi4, default
symmetry c1  #important for SAPT in psi4, default
}

set PROPERTIES_ORIGIN ["COM"]
properties('MP2/aug-cc-pvtz', properties = ['dipole'])
--------------------------------------------------------------------------

    Molecular point group: c1
  Charge       = 0
  Multiplicity = 1
  Basis Set: AUG-CC-PVTZ
    Blend: AUG-CC-PVTZ
  Basis Set: (AUG-CC-PVTZ AUX)
    Blend: AUG-CC-PVTZ-JKFIT

    Orbital Energies [Eh]
    ---------------------

    Doubly Occupied:

       1A    -20.554609     2A    -11.275979     3A    -11.269329
       4A    -11.216376     5A    -11.206245     6A     -1.361537
       7A     -1.050686     8A     -0.942978     9A     -0.909644
      10A     -0.790115    11A     -0.668767    12A     -0.633806
      13A     -0.627764    14A     -0.585683    15A     -0.567963
      16A     -0.531091    17A     -0.519236    18A     -0.494220
      19A     -0.490867    20A     -0.455637    21A     -0.419425

  @DF-RHF Final Energy:  -232.21954614141742

   => Energetics <=

    Nuclear Repulsion Energy =            196.0029449602902218
    One-Electron Energy =                -703.3010692631436314
    Two-Electron Energy =                 275.0785781614359848
    Total Energy =                       -232.2195461414174247
  Basis Set: (AUG-CC-PVTZ AUX)
    Blend: AUG-CC-PVTZ-RI
    Molecular point group: c1

    Geometry (in Angstrom), charge = 0, multiplicity = 1:

       Center              X                  Y                   Z               Mass
    ------------   -----------------  -----------------  -----------------  -----------------
         O           -0.643135273585    -0.663496017359     0.282237831745    15.994914619570
         C            0.426053926415     0.079321382641    -0.305942268255    12.000000000000
         C            0.612982326415     1.521983482641     0.141654531745    12.000000000000
         C            1.661205926415    -0.740276617359     0.010998731745    12.000000000000
         C           -1.933772073585    -0.191872617359    -0.144568268255    12.000000000000
         H            0.258749926415     0.083377382641    -1.396219268255     1.007825032230
         H            1.419293926415     2.000453382641    -0.261293268255     1.007825032230
         H           -0.331145073585     2.109237382641    -0.055124268255     1.007825032230
         H            0.675692926415     1.509982382641     1.276445731745     1.007825032230
         H            2.547949926415    -0.304442617359    -0.457410268255     1.007825032230
         H            1.536947926415    -1.763836617359    -0.348100268255     1.007825032230
         H            1.814127926415    -0.769263617359     1.092923731745     1.007825032230
         H           -2.183701073585     0.832355382641     0.157322731745     1.007825032230
         H           -2.659997073585    -0.874582617359     0.298302731745     1.007825032230
         H           -1.997124073585    -0.260638617359    -1.239631268255     1.007825032230

  Basis Set: AUG-CC-PVTZ
    Blend: AUG-CC-PVTZ
  Basis Set: (AUG-CC-PVTZ AUX)
    Blend: AUG-CC-PVTZ-JKFIT
	 Reference Energy          =    -232.2195461414174247 [Eh]
	 Singles Energy            =      -0.0000000000000000 [Eh]
	 Same-Spin Energy          =      -0.2323245670311391 [Eh]
	 Opposite-Spin Energy      =      -0.8267440673582245 [Eh]
	 Correlation Energy        =      -1.0590686343893636 [Eh]
	 Total Energy              =    -233.2786147758068012 [Eh]

	 ================> DF-SCS-MP2 Energies <==================
	-----------------------------------------------------------
	 SCS Same-Spin Scale       =       0.3333333333333333 [-]
	 SCS Opposite-Spin Scale   =       1.2000000000000000 [-]
	 SCS Same-Spin Energy      =      -0.0774415223437130 [Eh]
	 SCS Opposite-Spin Energy  =      -0.9920928808298694 [Eh]
	 SCS Correlation Energy    =      -1.0695344031735825 [Eh]
	 SCS Total Energy          =    -233.2890805445910019 [Eh]
	-----------------------------------------------------------

  Dipole Moment: [D]
     X:    -0.1962      Y:     1.0715      Z:    -0.8442     Total:     1.3781

*** Psi4 exiting successfully. Buy a developer a beer!
