                               Psi4 1.4a3.dev225

  ==> Input File <==

--------------------------------------------------------------------------
#psi4
#
memory 32 gb

molecule  {
0 1
  O        0.6924960    -0.5875230    -0.3608950
  C       -0.4202860    -0.0035560     0.3217990
  C       -0.6455470     1.4424380    -0.1023830
  C       -1.6101390    -0.8855300    -0.0083720
  C        1.9322261    -0.1183655     0.0835727
  H       -0.2277260    -0.0393910     1.4076130
  H       -1.5338460     1.8513180     0.3888140
  H        0.2023140     2.0815700     0.1563940
  H       -0.7932070     1.4834700    -1.1853400
  H       -2.5107390    -0.5301980     0.5006670
  H       -1.4118310    -1.9151080     0.2974910
  H       -1.7878760    -0.8729080    -1.0872030
  H        2.1245420     0.9377980    -0.1772120
  H        2.7055770    -0.7281970    -0.3993780
  H        2.0488910    -0.2183520     1.1794680
units angstrom
no_reorient  #important for SAPT in psi4, default
symmetry c1  #important for SAPT in psi4, default
}

set PROPERTIES_ORIGIN ["COM"]
properties('MP2/aug-cc-pvtz', properties = ['dipole'])
--------------------------------------------------------------------------

    Molecular point group: c1
  Charge       = 0
  Multiplicity = 1
  Basis Set: AUG-CC-PVTZ
    Blend: AUG-CC-PVTZ
  Basis Set: (AUG-CC-PVTZ AUX)
    Blend: AUG-CC-PVTZ-JKFIT

    Orbital Energies [Eh]
    ---------------------

    Doubly Occupied:

       1A    -20.551267     2A    -11.278079     3A    -11.267198
       4A    -11.214142     5A    -11.209737     6A     -1.371748
       7A     -1.052179     8A     -0.940787     9A     -0.908378
      10A     -0.791366    11A     -0.670328    12A     -0.635851
      13A     -0.633336    14A     -0.587343    15A     -0.547595
      16A     -0.541239    17A     -0.527223    18A     -0.496636
      19A     -0.486451    20A     -0.461532    21A     -0.415937

  @DF-RHF Final Energy:  -232.23045278747546

   => Energetics <=

    Nuclear Repulsion Energy =            196.7686858614252401
    One-Electron Energy =                -704.8215739010656762
    Two-Electron Energy =                 275.8224352521649507
    Total Energy =                       -232.2304527874754854
  Basis Set: (AUG-CC-PVTZ AUX)
    Blend: AUG-CC-PVTZ-RI
    Molecular point group: c1

    Geometry (in Angstrom), charge = 0, multiplicity = 1:

       Center              X                  Y                   Z               Mass
    ------------   -----------------  -----------------  -----------------  -----------------
         O            0.679558811051    -0.559017415124    -0.345406138472    15.994914619570
         C           -0.433223188949     0.024949584876     0.337287861528    12.000000000000
         C           -0.658484188949     1.470943584876    -0.086894138472    12.000000000000
         C           -1.623076188949    -0.857024415124     0.007116861528    12.000000000000
         C            1.919288911051    -0.089859915124     0.099061561528    12.000000000000
         H           -0.240663188949    -0.010885415124     1.423101861528     1.007825032230
         H           -1.546783188949     1.879823584876     0.404302861528     1.007825032230
         H            0.189376811051     2.110075584876     0.171882861528     1.007825032230
         H           -0.806144188949     1.511975584876    -1.169851138472     1.007825032230
         H           -2.523676188949    -0.501692415124     0.516155861528     1.007825032230
         H           -1.424768188949    -1.886602415124     0.312979861528     1.007825032230
         H           -1.800813188949    -0.844402415124    -1.071714138472     1.007825032230
         H            2.111604811051     0.966303584876    -0.161723138472     1.007825032230
         H            2.692639811051    -0.699691415124    -0.383889138472     1.007825032230
         H            2.035953811051    -0.189846415124     1.194956861528     1.007825032230

  Basis Set: AUG-CC-PVTZ
    Blend: AUG-CC-PVTZ
  Basis Set: (AUG-CC-PVTZ AUX)
    Blend: AUG-CC-PVTZ-JKFIT
	 Reference Energy          =    -232.2304527874754569 [Eh]
	 Singles Energy            =      -0.0000000000000000 [Eh]
	 Same-Spin Energy          =      -0.2318667366840112 [Eh]
	 Opposite-Spin Energy      =      -0.8252124395190898 [Eh]
	 Correlation Energy        =      -1.0570791762031011 [Eh]
	 Total Energy              =    -233.2875319636785605 [Eh]

	 ================> DF-SCS-MP2 Energies <==================
	-----------------------------------------------------------
	 SCS Same-Spin Scale       =       0.3333333333333333 [-]
	 SCS Opposite-Spin Scale   =       1.2000000000000000 [-]
	 SCS Same-Spin Energy      =      -0.0772889122280037 [Eh]
	 SCS Opposite-Spin Energy  =      -0.9902549274229078 [Eh]
	 SCS Correlation Energy    =      -1.0675438396509116 [Eh]
	 SCS Total Energy          =    -233.2979966271263663 [Eh]
	-----------------------------------------------------------

  Dipole Moment: [D]
     X:    -0.0169      Y:     0.8897      Z:     0.9226     Total:     1.2818

*** Psi4 exiting successfully. Buy a developer a beer!
