                               Psi4 1.3.2 release

  ==> Input File <==

--------------------------------------------------------------------------
#psi4
#
memory 32 gb

molecule  {
0 1
  O       -0.6467090    -0.6144430     0.3058120
  C        0.4715998     0.0411314    -0.2946101
  C        0.5644410     1.5011670     0.1737700
  C        1.6750880    -0.7518830    -0.0055480
  C       -1.9407631    -0.2357543    -0.1299873
  H        0.2726320     0.0717710    -1.4127660
  H        1.4331760     1.9888470    -0.2778400
  H       -0.3172630     2.0976310    -0.0716710
  H        0.6895750     1.4983760     1.2598990
  H        2.5618320    -0.3160490    -0.4739570
  H        1.5508300    -1.7754430    -0.3646470
  H        1.8280100    -0.7808700     1.0763770
  H       -2.1698190     0.8207490     0.1407760
  H       -2.6461150    -0.8861890     0.2817560
  H       -1.9832420    -0.2722450    -1.2561780
units angstrom
no_reorient  #important for SAPT in psi4, default
symmetry c1  #important for SAPT in psi4, default
}

set PROPERTIES_ORIGIN ["COM"]
properties('MP2/aug-cc-pvtz', properties = ['dipole'])
--------------------------------------------------------------------------

    Molecular point group: c1
  Charge       = 0
  Multiplicity = 1
  Basis Set: AUG-CC-PVTZ
    Blend: AUG-CC-PVTZ
  Basis Set: (AUG-CC-PVTZ AUX)
    Blend: AUG-CC-PVTZ-JKFIT

    Orbital Energies [Eh]
    ---------------------

    Doubly Occupied:

       1A    -20.546856     2A    -11.279375     3A    -11.268161
       4A    -11.213404     5A    -11.208681     6A     -1.362637
       7A     -1.057144     8A     -0.941856     9A     -0.914712
      10A     -0.783003    11A     -0.665551    12A     -0.642115
      13A     -0.630917    14A     -0.586386    15A     -0.550215
      16A     -0.540692    17A     -0.529750    18A     -0.506999
      19A     -0.482961    20A     -0.456837    21A     -0.408855

  @DF-RHF Final Energy:  -232.22494589822838

   => Energetics <=

    Nuclear Repulsion Energy =            196.5154208132142060
    One-Electron Energy =                -704.3265242841047211
    Two-Electron Energy =                 275.5861575726621595
    Total Energy =                       -232.2249458982283841
  Basis Set: (AUG-CC-PVTZ AUX)
    Blend: AUG-CC-PVTZ-RI
    Molecular point group: c1

    Geometry (in Angstrom), charge = 0, multiplicity = 1:

       Center              X                  Y                   Z               Mass
    ------------   -----------------  -----------------  -----------------  -----------------
         O           -0.648457172849    -0.604907730750     0.296252705744    15.994914619570
         C            0.469851627151     0.050666669250    -0.304169394256    12.000000000000
         C            0.562692827151     1.510702269250     0.164210705744    12.000000000000
         C            1.673339827151    -0.742347730750    -0.015107294256    12.000000000000
         C           -1.942511272849    -0.226219030750    -0.139546594256    12.000000000000
         H            0.270883827151     0.081306269250    -1.422325294256     1.007825032230
         H            1.431427827151     1.998382269250    -0.287399294256     1.007825032230
         H           -0.319011172849     2.107166269250    -0.081230294256     1.007825032230
         H            0.687826827151     1.507911269250     1.250339705744     1.007825032230
         H            2.560083827151    -0.306513730750    -0.483516294256     1.007825032230
         H            1.549081827151    -1.765907730750    -0.374206294256     1.007825032230
         H            1.826261827151    -0.771334730750     1.066817705744     1.007825032230
         H           -2.171567172849     0.830284269250     0.131216705744     1.007825032230
         H           -2.647863172849    -0.876653730750     0.272196705744     1.007825032230
         H           -1.984990172849    -0.262709730750    -1.265737294256     1.007825032230

  Basis Set: AUG-CC-PVTZ
    Blend: AUG-CC-PVTZ
  Basis Set: (AUG-CC-PVTZ AUX)
    Blend: AUG-CC-PVTZ-JKFIT
	 Reference Energy          =    -232.2249458982283841 [Eh]
	 Singles Energy            =      -0.0000000000000000 [Eh]
	 Same-Spin Energy          =      -0.2320188968544778 [Eh]
	 Opposite-Spin Energy      =      -0.8253458819847199 [Eh]
	 Correlation Energy        =      -1.0573647788391978 [Eh]
	 Total Energy              =    -233.2823106770675849 [Eh]

	 ================> DF-SCS-MP2 Energies <==================
	-----------------------------------------------------------
	 SCS Same-Spin Scale       =       0.3333333333333333 [-]
	 SCS Opposite-Spin Scale   =       1.2000000000000000 [-]
	 SCS Same-Spin Energy      =      -0.0773396322848259 [Eh]
	 SCS Opposite-Spin Energy  =      -0.9904150583816639 [Eh]
	 SCS Correlation Energy    =      -1.0677546906664899 [Eh]
	 SCS Total Energy          =    -233.2927005888948599 [Eh]
	-----------------------------------------------------------

  Dipole Moment: [D]
     X:    -0.0429      Y:     0.8513      Z:    -0.8275     Total:     1.1880

*** Psi4 exiting successfully. Buy a developer a beer!
