                               Psi4 1.3.2 release

  ==> Input File <==

--------------------------------------------------------------------------
#psi4
#
memory 32 gb

molecule  {
0 1
  O       -0.6569665    -0.6182788     0.2834123
  C        0.4399360     0.0677150    -0.3224890
  C        0.5644410     1.5011670     0.1737700
  C        1.6750880    -0.7518830    -0.0055480
  C       -1.9198900    -0.2034790    -0.1611150
  H        0.2562059     0.0620881    -1.4101115
  H        1.4331760     1.9888470    -0.2778400
  H       -0.3172630     2.0976310    -0.0716710
  H        0.6895750     1.4983760     1.2598990
  H        2.5618320    -0.3160490    -0.4739570
  H        1.5508300    -1.7754430    -0.3646470
  H        1.8280100    -0.7808700     1.0763770
  H       -2.1698190     0.8207490     0.1407760
  H       -2.6461150    -0.8861890     0.2817560
  H       -1.9832420    -0.2722450    -1.2561780
units angstrom
no_reorient  #important for SAPT in psi4, default
symmetry c1  #important for SAPT in psi4, default
}

set PROPERTIES_ORIGIN ["COM"]
properties('MP2/aug-cc-pvtz', properties = ['dipole'])
--------------------------------------------------------------------------

    Molecular point group: c1
  Charge       = 0
  Multiplicity = 1
  Basis Set: AUG-CC-PVTZ
    Blend: AUG-CC-PVTZ
  Basis Set: (AUG-CC-PVTZ AUX)
    Blend: AUG-CC-PVTZ-JKFIT

    Orbital Energies [Eh]
    ---------------------

    Doubly Occupied:

       1A    -20.548342     2A    -11.277189     3A    -11.265068
       4A    -11.213990     5A    -11.209563     6A     -1.369420
       7A     -1.052463     8A     -0.941082     9A     -0.910128
      10A     -0.790838    11A     -0.669142    12A     -0.636911
      13A     -0.632502    14A     -0.589058    15A     -0.549189
      16A     -0.540892    17A     -0.527050    18A     -0.496980
      19A     -0.489262    20A     -0.458744    21A     -0.415316

  @DF-RHF Final Energy:  -232.23104372103580

   => Energetics <=

    Nuclear Repulsion Energy =            196.7707250293103414
    One-Electron Energy =                -704.8372721534778975
    Two-Electron Energy =                 275.8355034031317246
    Total Energy =                       -232.2310437210358032
  Basis Set: (AUG-CC-PVTZ AUX)
    Blend: AUG-CC-PVTZ-RI
    Molecular point group: c1

    Geometry (in Angstrom), charge = 0, multiplicity = 1:

       Center              X                  Y                   Z               Mass
    ------------   -----------------  -----------------  -----------------  -----------------
         O           -0.654528124702    -0.617318766303     0.288212932423    15.994914619570
         C            0.442374375298     0.068675033697    -0.317688367577    12.000000000000
         C            0.566879375298     1.502127033697     0.178570632423    12.000000000000
         C            1.677526375298    -0.750922966303    -0.000747367577    12.000000000000
         C           -1.917451624702    -0.202518966303    -0.156314367577    12.000000000000
         H            0.258644275298     0.063048133697    -1.405310867577     1.007825032230
         H            1.435614375298     1.989807033697    -0.273039367577     1.007825032230
         H           -0.314824624702     2.098591033697    -0.066870367577     1.007825032230
         H            0.692013375298     1.499336033697     1.264699632423     1.007825032230
         H            2.564270375298    -0.315088966303    -0.469156367577     1.007825032230
         H            1.553268375298    -1.774482966303    -0.359846367577     1.007825032230
         H            1.830448375298    -0.779909966303     1.081177632423     1.007825032230
         H           -2.167380624702     0.821709033697     0.145576632423     1.007825032230
         H           -2.643676624702    -0.885228966303     0.286556632423     1.007825032230
         H           -1.980803624702    -0.271284966303    -1.251377367577     1.007825032230

  Basis Set: AUG-CC-PVTZ
    Blend: AUG-CC-PVTZ
  Basis Set: (AUG-CC-PVTZ AUX)
    Blend: AUG-CC-PVTZ-JKFIT
	 Reference Energy          =    -232.2310437210358032 [Eh]
	 Singles Energy            =      -0.0000000000000000 [Eh]
	 Same-Spin Energy          =      -0.2317996102749701 [Eh]
	 Opposite-Spin Energy      =      -0.8249528943346207 [Eh]
	 Correlation Energy        =      -1.0567525046095907 [Eh]
	 Total Energy              =    -233.2877962256453941 [Eh]

	 ================> DF-SCS-MP2 Energies <==================
	-----------------------------------------------------------
	 SCS Same-Spin Scale       =       0.3333333333333333 [-]
	 SCS Opposite-Spin Scale   =       1.2000000000000000 [-]
	 SCS Same-Spin Energy      =      -0.0772665367583233 [Eh]
	 SCS Opposite-Spin Energy  =      -0.9899434732015449 [Eh]
	 SCS Correlation Energy    =      -1.0672100099598683 [Eh]
	 SCS Total Energy          =    -233.2982537309956683 [Eh]
	-----------------------------------------------------------

  Dipole Moment: [D]
     X:    -0.0322      Y:     0.9431      Z:    -0.8483     Total:     1.2689

*** Psi4 exiting successfully. Buy a developer a beer!
