                               Psi4 1.3.2 release

  ==> Input File <==

--------------------------------------------------------------------------
#psi4
#
memory 32 gb

molecule  {
0 1
  O       -0.6467090    -0.6144430     0.3058120
  C        0.4399360     0.0677150    -0.3224890
  C        0.5644410     1.5011670     0.1737700
  C        1.6750880    -0.7518830    -0.0055480
  C       -1.9198900    -0.2034790    -0.1611150
  H        0.2726320     0.0717710    -1.4127660
  H        1.4331760     1.9888470    -0.2778400
  H       -0.3172630     2.0976310    -0.0716710
  H        0.6895750     1.4983760     1.2598990
  H        2.5618320    -0.3160490    -0.4739570
  H        1.5508300    -1.7754430    -0.3646470
  H        1.8280100    -0.7808700     1.0763770
  H       -2.1698190     0.8207490     0.1407760
  H       -2.6461150    -0.8861890     0.2817560
  H       -1.9832420    -0.2722450    -1.2561780
units angstrom
no_reorient  #important for SAPT in psi4, default
symmetry c1  #important for SAPT in psi4, default
}

set PROPERTIES_ORIGIN ["COM"]
properties('MP2/aug-cc-pvtz', properties = ['dipole'])
--------------------------------------------------------------------------

    Molecular point group: c1
  Charge       = 0
  Multiplicity = 1
  Basis Set: AUG-CC-PVTZ
    Blend: AUG-CC-PVTZ
  Basis Set: (AUG-CC-PVTZ AUX)
    Blend: AUG-CC-PVTZ-JKFIT

    Orbital Energies [Eh]
    ---------------------

    Doubly Occupied:

       1A    -20.549745     2A    -11.276515     3A    -11.266632
       4A    -11.213172     5A    -11.208709     6A     -1.365515
       7A     -1.050895     8A     -0.940672     9A     -0.910496
      10A     -0.790150    11A     -0.667905    12A     -0.635101
      13A     -0.631234    14A     -0.587354    15A     -0.548652
      16A     -0.540306    17A     -0.525884    18A     -0.497187
      19A     -0.488595    20A     -0.460447    21A     -0.416342

  @DF-RHF Final Energy:  -232.23058564419037

   => Energetics <=

    Nuclear Repulsion Energy =            196.5978325719944166
    One-Electron Energy =                -704.5138189813404779
    Two-Electron Energy =                 275.6854007651556913
    Total Energy =                       -232.2305856441903416
  Basis Set: (AUG-CC-PVTZ AUX)
    Blend: AUG-CC-PVTZ-RI
    Molecular point group: c1

    Geometry (in Angstrom), charge = 0, multiplicity = 1:

       Center              X                  Y                   Z               Mass
    ------------   -----------------  -----------------  -----------------  -----------------
         O           -0.646709057994    -0.614442989579     0.305811892266    15.994914619570
         C            0.439935942006     0.067715010421    -0.322489107734    12.000000000000
         C            0.564440942006     1.501167010421     0.173769892266    12.000000000000
         C            1.675087942006    -0.751882989579    -0.005548107734    12.000000000000
         C           -1.919890057994    -0.203478989579    -0.161115107734    12.000000000000
         H            0.272631942006     0.071771010421    -1.412766107734     1.007825032230
         H            1.433175942006     1.988847010421    -0.277840107734     1.007825032230
         H           -0.317263057994     2.097631010421    -0.071671107734     1.007825032230
         H            0.689574942006     1.498376010421     1.259898892266     1.007825032230
         H            2.561831942006    -0.316048989579    -0.473957107734     1.007825032230
         H            1.550829942006    -1.775442989579    -0.364647107734     1.007825032230
         H            1.828009942006    -0.780869989579     1.076376892266     1.007825032230
         H           -2.169819057994     0.820749010421     0.140775892266     1.007825032230
         H           -2.646115057994    -0.886188989579     0.281755892266     1.007825032230
         H           -1.983242057994    -0.272244989579    -1.256178107734     1.007825032230

  Basis Set: AUG-CC-PVTZ
    Blend: AUG-CC-PVTZ
  Basis Set: (AUG-CC-PVTZ AUX)
    Blend: AUG-CC-PVTZ-JKFIT
	 Reference Energy          =    -232.2305856441903700 [Eh]
	 Singles Energy            =      -0.0000000000000000 [Eh]
	 Same-Spin Energy          =      -0.2318959055065527 [Eh]
	 Opposite-Spin Energy      =      -0.8254374070418531 [Eh]
	 Correlation Energy        =      -1.0573333125484057 [Eh]
	 Total Energy              =    -233.2879189567387641 [Eh]

	 ================> DF-SCS-MP2 Energies <==================
	-----------------------------------------------------------
	 SCS Same-Spin Scale       =       0.3333333333333333 [-]
	 SCS Opposite-Spin Scale   =       1.2000000000000000 [-]
	 SCS Same-Spin Energy      =      -0.0772986351688509 [Eh]
	 SCS Opposite-Spin Energy  =      -0.9905248884502237 [Eh]
	 SCS Correlation Energy    =      -1.0678235236190745 [Eh]
	 SCS Total Energy          =    -233.2984091678094387 [Eh]
	-----------------------------------------------------------

  Dipole Moment: [D]
     X:    -0.0965      Y:     0.9356      Z:    -0.9065     Total:     1.3063

*** Psi4 exiting successfully. Buy a developer a beer!
