                               Psi4 1.3.2 release

  ==> Input File <==

--------------------------------------------------------------------------
#psi4
#
memory 32 gb

molecule  {
0 1
  O       -0.6467090    -0.6144430     0.3058120
  C        0.4236051     0.0806971    -0.3361435
  C        0.5644410     1.5011670     0.1737700
  C        1.6750880    -0.7518830    -0.0055480
  C       -1.9088701    -0.1875267    -0.1764679
  H        0.2726320     0.0717710    -1.4127660
  H        1.4331760     1.9888470    -0.2778400
  H       -0.3172630     2.0976310    -0.0716710
  H        0.6895750     1.4983760     1.2598990
  H        2.5618320    -0.3160490    -0.4739570
  H        1.5508300    -1.7754430    -0.3646470
  H        1.8280100    -0.7808700     1.0763770
  H       -2.1698190     0.8207490     0.1407760
  H       -2.6461150    -0.8861890     0.2817560
  H       -1.9832420    -0.2722450    -1.2561780
units angstrom
no_reorient  #important for SAPT in psi4, default
symmetry c1  #important for SAPT in psi4, default
}

set PROPERTIES_ORIGIN ["COM"]
properties('MP2/aug-cc-pvtz', properties = ['dipole'])
--------------------------------------------------------------------------

    Molecular point group: c1
  Charge       = 0
  Multiplicity = 1
  Basis Set: AUG-CC-PVTZ
    Blend: AUG-CC-PVTZ
  Basis Set: (AUG-CC-PVTZ AUX)
    Blend: AUG-CC-PVTZ-JKFIT

    Orbital Energies [Eh]
    ---------------------

    Doubly Occupied:

       1A    -20.551371     2A    -11.275518     3A    -11.266348
       4A    -11.213247     5A    -11.208709     6A     -1.367204
       7A     -1.048400     8A     -0.940086     9A     -0.908814
      10A     -0.793989    11A     -0.669497    12A     -0.635176
      13A     -0.629275    14A     -0.587646    15A     -0.548000
      16A     -0.540510    17A     -0.524997    18A     -0.498443
      19A     -0.484190    20A     -0.460686    21A     -0.419340

  @DF-RHF Final Energy:  -232.22880629499718

   => Energetics <=

    Nuclear Repulsion Energy =            196.6499538788933421
    One-Electron Energy =                -704.6146329417554171
    Two-Electron Energy =                 275.7358727678648620
    Total Energy =                       -232.2288062949971845
  Basis Set: (AUG-CC-PVTZ AUX)
    Blend: AUG-CC-PVTZ-RI
    Molecular point group: c1

    Geometry (in Angstrom), charge = 0, multiplicity = 1:

       Center              X                  Y                   Z               Mass
    ------------   -----------------  -----------------  -----------------  -----------------
         O           -0.645848665434    -0.619130419910     0.310511148742    15.994914619570
         C            0.424465434566     0.076009680090    -0.331444351258    12.000000000000
         C            0.565301334566     1.496479580090     0.178469148742    12.000000000000
         C            1.675948334566    -0.756570419910    -0.000848851258    12.000000000000
         C           -1.908009765434    -0.192214119910    -0.171768751258    12.000000000000
         H            0.273492334566     0.067083580090    -1.408066851258     1.007825032230
         H            1.434036334566     1.984159580090    -0.273140851258     1.007825032230
         H           -0.316402665434     2.092943580090    -0.066971851258     1.007825032230
         H            0.690435334566     1.493688580090     1.264598148742     1.007825032230
         H            2.562692334566    -0.320736419910    -0.469257851258     1.007825032230
         H            1.551690334566    -1.780130419910    -0.359947851258     1.007825032230
         H            1.828870334566    -0.785557419910     1.081076148742     1.007825032230
         H           -2.168958665434     0.816061580090     0.145475148742     1.007825032230
         H           -2.645254665434    -0.890876419910     0.286455148742     1.007825032230
         H           -1.982381665434    -0.276932419910    -1.251478851258     1.007825032230

  Basis Set: AUG-CC-PVTZ
    Blend: AUG-CC-PVTZ
  Basis Set: (AUG-CC-PVTZ AUX)
    Blend: AUG-CC-PVTZ-JKFIT
	 Reference Energy          =    -232.2288062949971845 [Eh]
	 Singles Energy            =      -0.0000000000000000 [Eh]
	 Same-Spin Energy          =      -0.2319593644635930 [Eh]
	 Opposite-Spin Energy      =      -0.8257547854585219 [Eh]
	 Correlation Energy        =      -1.0577141499221150 [Eh]
	 Total Energy              =    -233.2865204449192902 [Eh]

	 ================> DF-SCS-MP2 Energies <==================
	-----------------------------------------------------------
	 SCS Same-Spin Scale       =       0.3333333333333333 [-]
	 SCS Opposite-Spin Scale   =       1.2000000000000000 [-]
	 SCS Same-Spin Energy      =      -0.0773197881545310 [Eh]
	 SCS Opposite-Spin Energy  =      -0.9909057425502262 [Eh]
	 SCS Correlation Energy    =      -1.0682255307047572 [Eh]
	 SCS Total Energy          =    -233.2970318257019358 [Eh]
	-----------------------------------------------------------

  Dipole Moment: [D]
     X:    -0.1170      Y:     0.9768      Z:    -0.9421     Total:     1.3621

*** Psi4 exiting successfully. Buy a developer a beer!
