                               Psi4 1.4a3.dev225

  ==> Input File <==

--------------------------------------------------------------------------
#psi4
#
memory 32 gb

molecule  {
0 1
  O        0.6924960    -0.5875230    -0.3608950
  C       -0.3813820    -0.0239721     0.2979313
  C       -0.6455470     1.4424380    -0.1023830
  C       -1.6101390    -0.8855300    -0.0083720
  C        1.9499610    -0.1116540     0.0899310
  H       -0.2277260    -0.0393910     1.4076130
  H       -1.5338460     1.8513180     0.3888140
  H        0.2023140     2.0815700     0.1563940
  H       -0.7932070     1.4834700    -1.1853400
  H       -2.5107390    -0.5301980     0.5006670
  H       -1.4118310    -1.9151080     0.2974910
  H       -1.7878760    -0.8729080    -1.0872030
  H        2.1245420     0.9377980    -0.1772120
  H        2.7055770    -0.7281970    -0.3993780
  H        2.0488910    -0.2183520     1.1794680
units angstrom
no_reorient  #important for SAPT in psi4, default
symmetry c1  #important for SAPT in psi4, default
}

set PROPERTIES_ORIGIN ["COM"]
properties('MP2/aug-cc-pvtz', properties = ['dipole'])
--------------------------------------------------------------------------

    Molecular point group: c1
  Charge       = 0
  Multiplicity = 1
  Basis Set: AUG-CC-PVTZ
    Blend: AUG-CC-PVTZ
  Basis Set: (AUG-CC-PVTZ AUX)
    Blend: AUG-CC-PVTZ-JKFIT

    Orbital Energies [Eh]
    ---------------------

    Doubly Occupied:

       1A    -20.555404     2A    -11.277152     3A    -11.270614
       4A    -11.211830     5A    -11.207763     6A     -1.384102
       7A     -1.044688     8A     -0.939753     9A     -0.914511
      10A     -0.789071    11A     -0.673639    12A     -0.638384
      13A     -0.636914    14A     -0.586363    15A     -0.548583
      16A     -0.537182    17A     -0.527181    18A     -0.500123
      19A     -0.493215    20A     -0.453516    21A     -0.413048

  @DF-RHF Final Energy:  -232.22919063784497

   => Energetics <=

    Nuclear Repulsion Energy =            196.8884983939718722
    One-Electron Energy =                -705.0293078100861521
    Two-Electron Energy =                 275.9116187782693146
    Total Energy =                       -232.2291906378449653
  Basis Set: (AUG-CC-PVTZ AUX)
    Blend: AUG-CC-PVTZ-RI
    Molecular point group: c1

    Geometry (in Angstrom), charge = 0, multiplicity = 1:

       Center              X                  Y                   Z               Mass
    ------------   -----------------  -----------------  -----------------  -----------------
         O            0.670383196636    -0.556797242675    -0.342569580858    15.994914619570
         C           -0.403494803364     0.006753657325     0.316256719142    12.000000000000
         C           -0.667659803364     1.473163757325    -0.084057580858    12.000000000000
         C           -1.632251803364    -0.854804242675     0.009953419142    12.000000000000
         C            1.927848196636    -0.080928242675     0.108256419142    12.000000000000
         H           -0.249838803364    -0.008665242675     1.425938419142     1.007825032230
         H           -1.555958803364     1.882043757325     0.407139419142     1.007825032230
         H            0.180201196636     2.112295757325     0.174719419142     1.007825032230
         H           -0.815319803364     1.514195757325    -1.167014580858     1.007825032230
         H           -2.532851803364    -0.499472242675     0.518992419142     1.007825032230
         H           -1.433943803364    -1.884382242675     0.315816419142     1.007825032230
         H           -1.809988803364    -0.842182242675    -1.068877580858     1.007825032230
         H            2.102429196636     0.968523757325    -0.158886580858     1.007825032230
         H            2.683464196636    -0.697471242675    -0.381052580858     1.007825032230
         H            2.026778196636    -0.187626242675     1.197793419142     1.007825032230

  Basis Set: AUG-CC-PVTZ
    Blend: AUG-CC-PVTZ
  Basis Set: (AUG-CC-PVTZ AUX)
    Blend: AUG-CC-PVTZ-JKFIT
	 Reference Energy          =    -232.2291906378449653 [Eh]
	 Singles Energy            =      -0.0000000000000000 [Eh]
	 Same-Spin Energy          =      -0.2317401918744257 [Eh]
	 Opposite-Spin Energy      =      -0.8248213882734867 [Eh]
	 Correlation Energy        =      -1.0565615801479125 [Eh]
	 Total Energy              =    -233.2857522179928651 [Eh]

	 ================> DF-SCS-MP2 Energies <==================
	-----------------------------------------------------------
	 SCS Same-Spin Scale       =       0.3333333333333333 [-]
	 SCS Opposite-Spin Scale   =       1.2000000000000000 [-]
	 SCS Same-Spin Energy      =      -0.0772467306248086 [Eh]
	 SCS Opposite-Spin Energy  =      -0.9897856659281841 [Eh]
	 SCS Correlation Energy    =      -1.0670323965529926 [Eh]
	 SCS Total Energy          =    -233.2962230343979684 [Eh]
	-----------------------------------------------------------

  Dipole Moment: [D]
     X:     0.2542      Y:     0.8358      Z:     0.8818     Total:     1.2413

*** Psi4 exiting successfully. Buy a developer a beer!
