                               Psi4 1.3.2 release

  ==> Input File <==

--------------------------------------------------------------------------
#psi4
#
memory 32 gb

molecule  {
0 1
  O       -0.6467090    -0.6144430     0.3058120
  C        0.2878088    -0.0277852    -0.2345286
  C        0.5644410     1.5011670     0.1737700
  C        1.6750880    -0.7518830    -0.0055480
  C       -1.9198900    -0.2034790    -0.1611150
  H        0.2726320     0.0717710    -1.4127660
  H        1.4331760     1.9888470    -0.2778400
  H       -0.3172630     2.0976310    -0.0716710
  H        0.6895750     1.4983760     1.2598990
  H        2.5618320    -0.3160490    -0.4739570
  H        1.5508300    -1.7754430    -0.3646470
  H        1.8280100    -0.7808700     1.0763770
  H       -2.1698190     0.8207490     0.1407760
  H       -2.6461150    -0.8861890     0.2817560
  H       -1.9832420    -0.2722450    -1.2561780
units angstrom
no_reorient  #important for SAPT in psi4, default
symmetry c1  #important for SAPT in psi4, default
}

set PROPERTIES_ORIGIN ["COM"]
properties('MP2/aug-cc-pvtz', properties = ['dipole'])
--------------------------------------------------------------------------

    Molecular point group: c1
  Charge       = 0
  Multiplicity = 1
  Basis Set: AUG-CC-PVTZ
    Blend: AUG-CC-PVTZ
  Basis Set: (AUG-CC-PVTZ AUX)
    Blend: AUG-CC-PVTZ-JKFIT

    Orbital Energies [Eh]
    ---------------------

    Doubly Occupied:

       1A    -20.573408     2A    -11.283869     3A    -11.282509
       4A    -11.205168     5A    -11.204007     6A     -1.461847
       7A     -1.033033     8A     -0.952017     9A     -0.914904
      10A     -0.793663    11A     -0.698304    12A     -0.669054
      13A     -0.650295    14A     -0.581541    15A     -0.548732
      16A     -0.539021    17A     -0.528255    18A     -0.521380
      19A     -0.501364    20A     -0.420120    21A     -0.386470

  @DF-RHF Final Energy:  -232.18811221228881

   => Energetics <=

    Nuclear Repulsion Energy =            198.6403262769880484
    One-Electron Energy =                -708.1589517727543353
    Two-Electron Energy =                 277.3305132834775009
    Total Energy =                       -232.1881122122887859
  Basis Set: (AUG-CC-PVTZ AUX)
    Blend: AUG-CC-PVTZ-RI
    Molecular point group: c1

    Geometry (in Angstrom), charge = 0, multiplicity = 1:

       Center              X                  Y                   Z               Mass
    ------------   -----------------  -----------------  -----------------  -----------------
         O           -0.622064149120    -0.598971767297     0.291562132575    15.994914619570
         C            0.312453650880    -0.012313967297    -0.248778467425    12.000000000000
         C            0.589085850880     1.516638232703     0.159520132575    12.000000000000
         C            1.699732850880    -0.736411767297    -0.019797867425    12.000000000000
         C           -1.895245149120    -0.188007767297    -0.175364867425    12.000000000000
         H            0.297276850880     0.087242232703    -1.427015867425     1.007825032230
         H            1.457820850880     2.004318232703    -0.292089867425     1.007825032230
         H           -0.292618149120     2.113102232703    -0.085920867425     1.007825032230
         H            0.714219850880     1.513847232703     1.245649132575     1.007825032230
         H            2.586476850880    -0.300577767297    -0.488206867425     1.007825032230
         H            1.575474850880    -1.759971767297    -0.378896867425     1.007825032230
         H            1.852654850880    -0.765398767297     1.062127132575     1.007825032230
         H           -2.145174149120     0.836220232703     0.126526132575     1.007825032230
         H           -2.621470149120    -0.870717767297     0.267506132575     1.007825032230
         H           -1.958597149120    -0.256773767297    -1.270427867425     1.007825032230

  Basis Set: AUG-CC-PVTZ
    Blend: AUG-CC-PVTZ
  Basis Set: (AUG-CC-PVTZ AUX)
    Blend: AUG-CC-PVTZ-JKFIT
	 Reference Energy          =    -232.1881122122888144 [Eh]
	 Singles Energy            =      -0.0000000000000000 [Eh]
	 Same-Spin Energy          =      -0.2326531625791996 [Eh]
	 Opposite-Spin Energy      =      -0.8248617934469387 [Eh]
	 Correlation Energy        =      -1.0575149560261383 [Eh]
	 Total Energy              =    -233.2456271683149396 [Eh]

	 ================> DF-SCS-MP2 Energies <==================
	-----------------------------------------------------------
	 SCS Same-Spin Scale       =       0.3333333333333333 [-]
	 SCS Opposite-Spin Scale   =       1.2000000000000000 [-]
	 SCS Same-Spin Energy      =      -0.0775510541930665 [Eh]
	 SCS Opposite-Spin Energy  =      -0.9898341521363263 [Eh]
	 SCS Correlation Energy    =      -1.0673852063293929 [Eh]
	 SCS Total Energy          =    -233.2554974186182051 [Eh]
	-----------------------------------------------------------

  Dipole Moment: [D]
     X:    -0.9717      Y:     0.5292      Z:    -0.6388     Total:     1.2776

*** Psi4 exiting successfully. Buy a developer a beer!
