                               Psi4 1.3.2 release

  ==> Input File <==

--------------------------------------------------------------------------
#psi4
#
memory 32 gb

molecule  {
0 1
  O       -0.6389758    -0.5478049     0.3374835
  C        0.4399360     0.0677150    -0.3224890
  C        0.5644410     1.5011670     0.1737700
  C        1.6750880    -0.7518830    -0.0055480
  C       -1.9198900    -0.2034790    -0.1611150
  H        0.2726320     0.0717710    -1.4127660
  H        1.4331760     1.9888470    -0.2778400
  H       -0.3172630     2.0976310    -0.0716710
  H        0.6895750     1.4983760     1.2598990
  H        2.5618320    -0.3160490    -0.4739570
  H        1.5508300    -1.7754430    -0.3646470
  H        1.8280100    -0.7808700     1.0763770
  H       -2.1190576     0.8236663     0.1674431
  H       -2.6461150    -0.8861890     0.2817560
  H       -1.9832420    -0.2722450    -1.2561780
units angstrom
no_reorient  #important for SAPT in psi4, default
symmetry c1  #important for SAPT in psi4, default
}

set PROPERTIES_ORIGIN ["COM"]
properties('MP2/aug-cc-pvtz', properties = ['dipole'])
--------------------------------------------------------------------------

    Molecular point group: c1
  Charge       = 0
  Multiplicity = 1
  Basis Set: AUG-CC-PVTZ
    Blend: AUG-CC-PVTZ
  Basis Set: (AUG-CC-PVTZ AUX)
    Blend: AUG-CC-PVTZ-JKFIT

    Orbital Energies [Eh]
    ---------------------

    Doubly Occupied:

       1A    -20.546630     2A    -11.274486     3A    -11.268066
       4A    -11.209895     5A    -11.208401     6A     -1.371549
       7A     -1.050054     8A     -0.938884     9A     -0.913032
      10A     -0.789651    11A     -0.668625    12A     -0.639307
      13A     -0.634830    14A     -0.585076    15A     -0.546322
      16A     -0.538663    17A     -0.528493    18A     -0.500102
      19A     -0.489892    20A     -0.458432    21A     -0.411035

  @DF-RHF Final Energy:  -232.22942482354199

   => Energetics <=

    Nuclear Repulsion Energy =            197.3020118401852301
    One-Electron Energy =                -705.9200220268394332
    Two-Electron Energy =                 276.3885853631122131
    Total Energy =                       -232.2294248235419900
  Basis Set: (AUG-CC-PVTZ AUX)
    Blend: AUG-CC-PVTZ-RI
    Molecular point group: c1

    Geometry (in Angstrom), charge = 0, multiplicity = 1:

       Center              X                  Y                   Z               Mass
    ------------   -----------------  -----------------  -----------------  -----------------
         O           -0.641336368490    -0.562234013118     0.330281611301    15.994914619570
         C            0.437575431510     0.053285886882    -0.329690888699    12.000000000000
         C            0.562080431510     1.486737886882     0.166568111301    12.000000000000
         C            1.672727431510    -0.766312113118    -0.012749888699    12.000000000000
         C           -1.922250568490    -0.217908113118    -0.168316888699    12.000000000000
         H            0.270271431510     0.057341886882    -1.419967888699     1.007825032230
         H            1.430815431510     1.974417886882    -0.285041888699     1.007825032230
         H           -0.319623568490     2.083201886882    -0.078872888699     1.007825032230
         H            0.687214431510     1.483946886882     1.252697111301     1.007825032230
         H            2.559471431510    -0.330478113118    -0.481158888699     1.007825032230
         H            1.548469431510    -1.789872113118    -0.371848888699     1.007825032230
         H            1.825649431510    -0.795299113118     1.069175111301     1.007825032230
         H           -2.121418168490     0.809237186882     0.160241211301     1.007825032230
         H           -2.648475568490    -0.900618113118     0.274554111301     1.007825032230
         H           -1.985602568490    -0.286674113118    -1.263379888699     1.007825032230

  Basis Set: AUG-CC-PVTZ
    Blend: AUG-CC-PVTZ
  Basis Set: (AUG-CC-PVTZ AUX)
    Blend: AUG-CC-PVTZ-JKFIT
	 Reference Energy          =    -232.2294248235419900 [Eh]
	 Singles Energy            =      -0.0000000000000000 [Eh]
	 Same-Spin Energy          =      -0.2318069252334764 [Eh]
	 Opposite-Spin Energy      =      -0.8248959439366279 [Eh]
	 Correlation Energy        =      -1.0567028691701044 [Eh]
	 Total Energy              =    -233.2861276927120855 [Eh]

	 ================> DF-SCS-MP2 Energies <==================
	-----------------------------------------------------------
	 SCS Same-Spin Scale       =       0.3333333333333333 [-]
	 SCS Opposite-Spin Scale   =       1.2000000000000000 [-]
	 SCS Same-Spin Energy      =      -0.0772689750778255 [Eh]
	 SCS Opposite-Spin Energy  =      -0.9898751327239534 [Eh]
	 SCS Correlation Energy    =      -1.0671441078017789 [Eh]
	 SCS Total Energy          =    -233.2965689313437565 [Eh]
	-----------------------------------------------------------

  Dipole Moment: [D]
     X:    -0.1717      Y:     0.7560      Z:    -0.9707     Total:     1.2423

*** Psi4 exiting successfully. Buy a developer a beer!
