                               Psi4 1.3.2 release

  ==> Input File <==

--------------------------------------------------------------------------
#psi4
#
memory 32 gb

molecule  {
0 1
  O       -0.6467090    -0.6144430     0.3058120
  C        0.5920632     0.1632152    -0.4104494
  C        0.5644410     1.5011670     0.1737700
  C        1.6750880    -0.7518830    -0.0055480
  C       -1.9198900    -0.2034790    -0.1611150
  H        0.2726320     0.0717710    -1.4127660
  H        1.4331760     1.9888470    -0.2778400
  H       -0.3172630     2.0976310    -0.0716710
  H        0.6895750     1.4983760     1.2598990
  H        2.5618320    -0.3160490    -0.4739570
  H        1.5508300    -1.7754430    -0.3646470
  H        1.8280100    -0.7808700     1.0763770
  H       -2.1698190     0.8207490     0.1407760
  H       -2.6461150    -0.8861890     0.2817560
  H       -1.9832420    -0.2722450    -1.2561780
units angstrom
no_reorient  #important for SAPT in psi4, default
symmetry c1  #important for SAPT in psi4, default
}

set PROPERTIES_ORIGIN ["COM"]
properties('MP2/aug-cc-pvtz', properties = ['dipole'])
--------------------------------------------------------------------------

    Molecular point group: c1
  Charge       = 0
  Multiplicity = 1
  Basis Set: AUG-CC-PVTZ
    Blend: AUG-CC-PVTZ
  Basis Set: (AUG-CC-PVTZ AUX)
    Blend: AUG-CC-PVTZ-JKFIT

    Orbital Energies [Eh]
    ---------------------

    Doubly Occupied:

       1A    -20.523984     2A    -11.284939     3A    -11.251927
       4A    -11.221269     5A    -11.216181     6A     -1.305902
       7A     -1.074896     8A     -0.953789     9A     -0.888507
      10A     -0.798244    11A     -0.653120    12A     -0.636572
      13A     -0.608421    14A     -0.582677    15A     -0.562495
      16A     -0.543680    17A     -0.526768    18A     -0.510607
      19A     -0.489743    20A     -0.426291    21A     -0.407179

  @DF-RHF Final Energy:  -232.19802749573486

   => Energetics <=

    Nuclear Repulsion Energy =            194.9388709153029140
    One-Electron Energy =                -701.3394153822306407
    Two-Electron Energy =                 274.2025169711928925
    Total Energy =                       -232.1980274957348342
  Basis Set: (AUG-CC-PVTZ AUX)
    Blend: AUG-CC-PVTZ-RI
    Molecular point group: c1

    Geometry (in Angstrom), charge = 0, multiplicity = 1:

       Center              X                  Y                   Z               Mass
    ------------   -----------------  -----------------  -----------------  -----------------
         O           -0.671353966868    -0.629914211862     0.320061651958    15.994914619570
         C            0.567418233132     0.147743988138    -0.396199748042    12.000000000000
         C            0.539796033132     1.485695788138     0.188019651958    12.000000000000
         C            1.650443033132    -0.767354211862     0.008701651958    12.000000000000
         C           -1.944534966868    -0.218950211862    -0.146865348042    12.000000000000
         H            0.247987033132     0.056299788138    -1.398516348042     1.007825032230
         H            1.408531033132     1.973375788138    -0.263590348042     1.007825032230
         H           -0.341907966868     2.082159788138    -0.057421348042     1.007825032230
         H            0.664930033132     1.482904788138     1.274148651958     1.007825032230
         H            2.537187033132    -0.331520211862    -0.459707348042     1.007825032230
         H            1.526185033132    -1.790914211862    -0.350397348042     1.007825032230
         H            1.803365033132    -0.796341211862     1.090626651958     1.007825032230
         H           -2.194463966868     0.805277788138     0.155025651958     1.007825032230
         H           -2.670759966868    -0.901660211862     0.296005651958     1.007825032230
         H           -2.007886966868    -0.287716211862    -1.241928348042     1.007825032230

  Basis Set: AUG-CC-PVTZ
    Blend: AUG-CC-PVTZ
  Basis Set: (AUG-CC-PVTZ AUX)
    Blend: AUG-CC-PVTZ-JKFIT
	 Reference Energy          =    -232.1980274957348627 [Eh]
	 Singles Energy            =      -0.0000000000000000 [Eh]
	 Same-Spin Energy          =      -0.2340365606633349 [Eh]
	 Opposite-Spin Energy      =      -0.8306253480294299 [Eh]
	 Correlation Energy        =      -1.0646619086927649 [Eh]
	 Total Energy              =    -233.2626894044276185 [Eh]

	 ================> DF-SCS-MP2 Energies <==================
	-----------------------------------------------------------
	 SCS Same-Spin Scale       =       0.3333333333333333 [-]
	 SCS Opposite-Spin Scale   =       1.2000000000000000 [-]
	 SCS Same-Spin Energy      =      -0.0780121868877783 [Eh]
	 SCS Opposite-Spin Energy  =      -0.9967504176353158 [Eh]
	 SCS Correlation Energy    =      -1.0747626045230940 [Eh]
	 SCS Total Energy          =    -233.2727901002579642 [Eh]
	-----------------------------------------------------------

  Dipole Moment: [D]
     X:     0.5685      Y:     1.2187      Z:    -1.0551     Total:     1.7093

*** Psi4 exiting successfully. Buy a developer a beer!
