                               Psi4 1.4a3.dev225

  ==> Input File <==

--------------------------------------------------------------------------
#psi4
#
memory 32 gb

molecule  {
0 1
  O        0.6924960    -0.5875230    -0.3608950
  C       -0.4047244    -0.0117224     0.3122519
  C       -0.6455470     1.4424380    -0.1023830
  C       -1.6101390    -0.8855300    -0.0083720
  C        1.9499610    -0.1116540     0.0899310
  H       -0.2277260    -0.0393910     1.4076130
  H       -1.5338460     1.8513180     0.3888140
  H        0.2023140     2.0815700     0.1563940
  H       -0.7932070     1.4834700    -1.1853400
  H       -2.5107390    -0.5301980     0.5006670
  H       -1.4118310    -1.9151080     0.2974910
  H       -1.7878760    -0.8729080    -1.0872030
  H        2.1245420     0.9377980    -0.1772120
  H        2.7055770    -0.7281970    -0.3993780
  H        2.0488910    -0.2183520     1.1794680
units angstrom
no_reorient  #important for SAPT in psi4, default
symmetry c1  #important for SAPT in psi4, default
}

set PROPERTIES_ORIGIN ["COM"]
properties('MP2/aug-cc-pvtz', properties = ['dipole'])
--------------------------------------------------------------------------

    Molecular point group: c1
  Charge       = 0
  Multiplicity = 1
  Basis Set: AUG-CC-PVTZ
    Blend: AUG-CC-PVTZ
  Basis Set: (AUG-CC-PVTZ AUX)
    Blend: AUG-CC-PVTZ-JKFIT

    Orbital Energies [Eh]
    ---------------------

    Doubly Occupied:

       1A    -20.552030     2A    -11.276942     3A    -11.268295
       4A    -11.212898     5A    -11.208510     6A     -1.372093
       7A     -1.048005     8A     -0.939957     9A     -0.912140
      10A     -0.789457    11A     -0.669800    12A     -0.635561
      13A     -0.633473    14A     -0.586979    15A     -0.548541
      16A     -0.539054    17A     -0.526278    18A     -0.497031
      19A     -0.491198    20A     -0.458051    21A     -0.415389

  @DF-RHF Final Energy:  -232.23053749802801

   => Energetics <=

    Nuclear Repulsion Energy =            196.6127689890620616
    One-Electron Energy =                -704.5232540644440178
    Two-Electron Energy =                 275.6799475773539712
    Total Energy =                       -232.2305374980280135
  Basis Set: (AUG-CC-PVTZ AUX)
    Blend: AUG-CC-PVTZ-RI
    Molecular point group: c1

    Geometry (in Angstrom), charge = 0, multiplicity = 1:

       Center              X                  Y                   Z               Mass
    ------------   -----------------  -----------------  -----------------  -----------------
         O            0.674164711848    -0.558781718431    -0.344889546532    15.994914619570
         C           -0.423055688152     0.017018881569     0.328257353468    12.000000000000
         C           -0.663878288152     1.471179281569    -0.086377546532    12.000000000000
         C           -1.628470288152    -0.856788718431     0.007633453468    12.000000000000
         C            1.931629711848    -0.082912718431     0.105936453468    12.000000000000
         H           -0.246057288152    -0.010649718431     1.423618453468     1.007825032230
         H           -1.552177288152     1.880059281569     0.404819453468     1.007825032230
         H            0.183982711848     2.110311281569     0.172399453468     1.007825032230
         H           -0.811538288152     1.512211281569    -1.169334546532     1.007825032230
         H           -2.529070288152    -0.501456718431     0.516672453468     1.007825032230
         H           -1.430162288152    -1.886366718431     0.313496453468     1.007825032230
         H           -1.806207288152    -0.844166718431    -1.071197546532     1.007825032230
         H            2.106210711848     0.966539281569    -0.161206546532     1.007825032230
         H            2.687245711848    -0.699455718431    -0.383372546532     1.007825032230
         H            2.030559711848    -0.189610718431     1.195473453468     1.007825032230

  Basis Set: AUG-CC-PVTZ
    Blend: AUG-CC-PVTZ
  Basis Set: (AUG-CC-PVTZ AUX)
    Blend: AUG-CC-PVTZ-JKFIT
	 Reference Energy          =    -232.2305374980280135 [Eh]
	 Singles Energy            =      -0.0000000000000000 [Eh]
	 Same-Spin Energy          =      -0.2317917484841470 [Eh]
	 Opposite-Spin Energy      =      -0.8251882106368005 [Eh]
	 Correlation Energy        =      -1.0569799591209474 [Eh]
	 Total Energy              =    -233.2875174571489651 [Eh]

	 ================> DF-SCS-MP2 Energies <==================
	-----------------------------------------------------------
	 SCS Same-Spin Scale       =       0.3333333333333333 [-]
	 SCS Opposite-Spin Scale   =       1.2000000000000000 [-]
	 SCS Same-Spin Energy      =      -0.0772639161613823 [Eh]
	 SCS Opposite-Spin Energy  =      -0.9902258527641605 [Eh]
	 SCS Correlation Energy    =      -1.0674897689255429 [Eh]
	 SCS Total Energy          =    -233.2980272669535680 [Eh]
	-----------------------------------------------------------

  Dipole Moment: [D]
     X:     0.1357      Y:     0.8790      Z:     0.9190     Total:     1.2789

*** Psi4 exiting successfully. Buy a developer a beer!
