                               Psi4 1.3.2 release

  ==> Input File <==

--------------------------------------------------------------------------
#psi4
#
memory 32 gb

molecule  {
0 1
  O       -0.6538049    -0.6582537     0.2839811
  C        0.4399360     0.0677150    -0.3224890
  C        0.5644410     1.5011670     0.1737700
  C        1.6750880    -0.7518830    -0.0055480
  C       -1.9198900    -0.2034790    -0.1611150
  H        0.2726320     0.0717710    -1.4127660
  H        1.4331760     1.9888470    -0.2778400
  H       -0.3172630     2.0976310    -0.0716710
  H        0.6895750     1.4983760     1.2598990
  H        2.5618320    -0.3160490    -0.4739570
  H        1.5508300    -1.7754430    -0.3646470
  H        1.8280100    -0.7808700     1.0763770
  H       -2.2032879     0.8172437     0.1225336
  H       -2.6461150    -0.8861890     0.2817560
  H       -1.9832420    -0.2722450    -1.2561780
units angstrom
no_reorient  #important for SAPT in psi4, default
symmetry c1  #important for SAPT in psi4, default
}

set PROPERTIES_ORIGIN ["COM"]
properties('MP2/aug-cc-pvtz', properties = ['dipole'])
--------------------------------------------------------------------------

    Molecular point group: c1
  Charge       = 0
  Multiplicity = 1
  Basis Set: AUG-CC-PVTZ
    Blend: AUG-CC-PVTZ
  Basis Set: (AUG-CC-PVTZ AUX)
    Blend: AUG-CC-PVTZ-JKFIT

    Orbital Energies [Eh]
    ---------------------

    Doubly Occupied:

       1A    -20.551777     2A    -11.278130     3A    -11.265530
       4A    -11.215484     5A    -11.209043     6A     -1.361133
       7A     -1.051652     8A     -0.941721     9A     -0.908784
      10A     -0.790568    11A     -0.666927    12A     -0.635261
      13A     -0.626042    14A     -0.588785    15A     -0.550382
      16A     -0.541115    17A     -0.524592    18A     -0.494718
      19A     -0.487037    20A     -0.462495    21A     -0.418881

  @DF-RHF Final Energy:  -232.22862966082278

   => Energetics <=

    Nuclear Repulsion Energy =            196.0920861666073165
    One-Electron Energy =                -703.5013190251947890
    Two-Electron Energy =                 275.1806031977646967
    Total Energy =                       -232.2286296608227758
  Basis Set: (AUG-CC-PVTZ AUX)
    Blend: AUG-CC-PVTZ-RI
    Molecular point group: c1

    Geometry (in Angstrom), charge = 0, multiplicity = 1:

       Center              X                  Y                   Z               Mass
    ------------   -----------------  -----------------  -----------------  -----------------
         O           -0.651817340616    -0.648745777563     0.288943228310    15.994914619570
         C            0.441923559384     0.077222922437    -0.317526871690    12.000000000000
         C            0.566428559384     1.510674922437     0.178732128310    12.000000000000
         C            1.677075559384    -0.742375077563    -0.000585871690    12.000000000000
         C           -1.917902440616    -0.193971077563    -0.156152871690    12.000000000000
         H            0.274619559384     0.081278922437    -1.407803871690     1.007825032230
         H            1.435163559384     1.998354922437    -0.272877871690     1.007825032230
         H           -0.315275440616     2.107138922437    -0.066708871690     1.007825032230
         H            0.691562559384     1.507883922437     1.264861128310     1.007825032230
         H            2.563819559384    -0.306541077563    -0.468994871690     1.007825032230
         H            1.552817559384    -1.765935077563    -0.359684871690     1.007825032230
         H            1.829997559384    -0.771362077563     1.081339128310     1.007825032230
         H           -2.201300340616     0.826751622437     0.127495728310     1.007825032230
         H           -2.644127440616    -0.876681077563     0.286718128310     1.007825032230
         H           -1.981254440616    -0.262737077563    -1.251215871690     1.007825032230

  Basis Set: AUG-CC-PVTZ
    Blend: AUG-CC-PVTZ
  Basis Set: (AUG-CC-PVTZ AUX)
    Blend: AUG-CC-PVTZ-JKFIT
	 Reference Energy          =    -232.2286296608227758 [Eh]
	 Singles Energy            =      -0.0000000000000000 [Eh]
	 Same-Spin Energy          =      -0.2320585395856078 [Eh]
	 Opposite-Spin Energy      =      -0.8260352070477048 [Eh]
	 Correlation Energy        =      -1.0580937466333127 [Eh]
	 Total Energy              =    -233.2867234074560940 [Eh]

	 ================> DF-SCS-MP2 Energies <==================
	-----------------------------------------------------------
	 SCS Same-Spin Scale       =       0.3333333333333333 [-]
	 SCS Opposite-Spin Scale   =       1.2000000000000000 [-]
	 SCS Same-Spin Energy      =      -0.0773528465285359 [Eh]
	 SCS Opposite-Spin Energy  =      -0.9912422484572457 [Eh]
	 SCS Correlation Energy    =      -1.0685950949857816 [Eh]
	 SCS Total Energy          =    -233.2972247558085712 [Eh]
	-----------------------------------------------------------

  Dipole Moment: [D]
     X:    -0.0360      Y:     1.0528      Z:    -0.8632     Total:     1.3619

*** Psi4 exiting successfully. Buy a developer a beer!
