                               Psi4 1.3.2 release

  ==> Input File <==

--------------------------------------------------------------------------
#psi4
#
memory 32 gb

molecule  {
0 1
  O       -0.6611864    -0.5519138     0.3442108
  C        0.4399360     0.0677150    -0.3224890
  C        0.5016763     1.4880279     0.2210720
  C        1.6750880    -0.7518830    -0.0055480
  C       -1.9198900    -0.2034790    -0.1611150
  H        0.2726320     0.0717710    -1.4127660
  H        1.4331760     1.9888470    -0.2778400
  H       -0.3172630     2.0976310    -0.0716710
  H        0.6895750     1.4983760     1.2598990
  H        2.5618320    -0.3160490    -0.4739570
  H        1.5508300    -1.7754430    -0.3646470
  H        1.8280100    -0.7808700     1.0763770
  H       -2.1698190     0.8207490     0.1407760
  H       -2.6461150    -0.8861890     0.2817560
  H       -1.9832420    -0.2722450    -1.2561780
units angstrom
no_reorient  #important for SAPT in psi4, default
symmetry c1  #important for SAPT in psi4, default
}

set PROPERTIES_ORIGIN ["COM"]
properties('MP2/aug-cc-pvtz', properties = ['dipole'])
--------------------------------------------------------------------------

    Molecular point group: c1
  Charge       = 0
  Multiplicity = 1
  Basis Set: AUG-CC-PVTZ
    Blend: AUG-CC-PVTZ
  Basis Set: (AUG-CC-PVTZ AUX)
    Blend: AUG-CC-PVTZ-JKFIT

    Orbital Energies [Eh]
    ---------------------

    Doubly Occupied:

       1A    -20.545710     2A    -11.277990     3A    -11.264807
       4A    -11.212360     5A    -11.211252     6A     -1.369637
       7A     -1.051627     8A     -0.939982     9A     -0.911442
      10A     -0.792017    11A     -0.668381    12A     -0.637865
      13A     -0.635261    14A     -0.590254    15A     -0.554490
      16A     -0.534493    17A     -0.523087    18A     -0.500355
      19A     -0.483864    20A     -0.463146    21A     -0.410030

  @DF-RHF Final Energy:  -232.22305539376251

   => Energetics <=

    Nuclear Repulsion Energy =            197.2141023088823317
    One-Electron Energy =                -705.7182096894642882
    Two-Electron Energy =                 276.2810519868194206
    Total Energy =                       -232.2230553937625359
  Basis Set: (AUG-CC-PVTZ AUX)
    Blend: AUG-CC-PVTZ-RI
    Molecular point group: c1

    Geometry (in Angstrom), charge = 0, multiplicity = 1:

       Center              X                  Y                   Z               Mass
    ------------   -----------------  -----------------  -----------------  -----------------
         O           -0.647892288943    -0.563287409377     0.328256067830    15.994914619570
         C            0.453230111057     0.056341390623    -0.338443732170    12.000000000000
         C            0.514970411057     1.476654290623     0.205117267830    12.000000000000
         C            1.688382111057    -0.763256609377    -0.021502732170    12.000000000000
         C           -1.906595888943    -0.214852609377    -0.177069732170    12.000000000000
         H            0.285926111057     0.060397390623    -1.428720732170     1.007825032230
         H            1.446470111057     1.977473390623    -0.293794732170     1.007825032230
         H           -0.303968888943     2.086257390623    -0.087625732170     1.007825032230
         H            0.702869111057     1.487002390623     1.243944267830     1.007825032230
         H            2.575126111057    -0.327422609377    -0.489911732170     1.007825032230
         H            1.564124111057    -1.786816609377    -0.380601732170     1.007825032230
         H            1.841304111057    -0.792243609377     1.060422267830     1.007825032230
         H           -2.156524888943     0.809375390623     0.124821267830     1.007825032230
         H           -2.632820888943    -0.897562609377     0.265801267830     1.007825032230
         H           -1.969947888943    -0.283618609377    -1.272132732170     1.007825032230

  Basis Set: AUG-CC-PVTZ
    Blend: AUG-CC-PVTZ
  Basis Set: (AUG-CC-PVTZ AUX)
    Blend: AUG-CC-PVTZ-JKFIT
	 Reference Energy          =    -232.2230553937625075 [Eh]
	 Singles Energy            =      -0.0000000000000000 [Eh]
	 Same-Spin Energy          =      -0.2318847765502922 [Eh]
	 Opposite-Spin Energy      =      -0.8252696742059089 [Eh]
	 Correlation Energy        =      -1.0571544507562010 [Eh]
	 Total Energy              =    -233.2802098445187085 [Eh]

	 ================> DF-SCS-MP2 Energies <==================
	-----------------------------------------------------------
	 SCS Same-Spin Scale       =       0.3333333333333333 [-]
	 SCS Opposite-Spin Scale   =       1.2000000000000000 [-]
	 SCS Same-Spin Energy      =      -0.0772949255167640 [Eh]
	 SCS Opposite-Spin Energy  =      -0.9903236090470906 [Eh]
	 SCS Correlation Energy    =      -1.0676185345638547 [Eh]
	 SCS Total Energy          =    -233.2906739283263562 [Eh]
	-----------------------------------------------------------

  Dipole Moment: [D]
     X:    -0.0363      Y:     0.7548      Z:    -0.9644     Total:     1.2252

*** Psi4 exiting successfully. Buy a developer a beer!
