                               Psi4 1.3.2 release

  ==> Input File <==

--------------------------------------------------------------------------
#psi4
#
memory 32 gb

molecule  {
0 1
  O       -0.6252041    -0.6061492     0.3500305
  C        0.4399360     0.0677150    -0.3224890
  C        0.5644410     1.5011670     0.1737700
  C        1.6750880    -0.7518830    -0.0055480
  C       -1.9198900    -0.2034790    -0.1611150
  H        0.3056321     0.0911301    -1.4170781
  H        1.4331760     1.9888470    -0.2778400
  H       -0.3172630     2.0976310    -0.0716710
  H        0.6895750     1.4983760     1.2598990
  H        2.5618320    -0.3160490    -0.4739570
  H        1.5508300    -1.7754430    -0.3646470
  H        1.8280100    -0.7808700     1.0763770
  H       -2.1698190     0.8207490     0.1407760
  H       -2.6461150    -0.8861890     0.2817560
  H       -1.9832420    -0.2722450    -1.2561780
units angstrom
no_reorient  #important for SAPT in psi4, default
symmetry c1  #important for SAPT in psi4, default
}

set PROPERTIES_ORIGIN ["COM"]
properties('MP2/aug-cc-pvtz', properties = ['dipole'])
--------------------------------------------------------------------------

    Molecular point group: c1
  Charge       = 0
  Multiplicity = 1
  Basis Set: AUG-CC-PVTZ
    Blend: AUG-CC-PVTZ
  Basis Set: (AUG-CC-PVTZ AUX)
    Blend: AUG-CC-PVTZ-JKFIT

    Orbital Energies [Eh]
    ---------------------

    Doubly Occupied:

       1A    -20.552510     2A    -11.275240     3A    -11.269928
       4A    -11.211542     5A    -11.207014     6A     -1.358107
       7A     -1.047772     8A     -0.939961     9A     -0.911486
      10A     -0.788682    11A     -0.665622    12A     -0.631529
      13A     -0.628842    14A     -0.583930    15A     -0.547764
      16A     -0.539133    17A     -0.523489    18A     -0.497600
      19A     -0.488774    20A     -0.461795    21A     -0.417833

  @DF-RHF Final Energy:  -232.22736859261266

   => Energetics <=

    Nuclear Repulsion Energy =            196.2583156622131639
    One-Electron Energy =                -703.8742616872800681
    Two-Electron Energy =                 275.3885774324542695
    Total Energy =                       -232.2273685926126632
  Basis Set: (AUG-CC-PVTZ AUX)
    Blend: AUG-CC-PVTZ-RI
    Molecular point group: c1

    Geometry (in Angstrom), charge = 0, multiplicity = 1:

       Center              X                  Y                   Z               Mass
    ------------   -----------------  -----------------  -----------------  -----------------
         O           -0.630296789942    -0.608203499107     0.340540784386    15.994914619570
         C            0.434843310058     0.065660700893    -0.331978715614    12.000000000000
         C            0.559348310058     1.499112700893     0.164280284386    12.000000000000
         C            1.669995310058    -0.753937299107    -0.015037715614    12.000000000000
         C           -1.924982689942    -0.205533299107    -0.170604715614    12.000000000000
         H            0.300539410058     0.089075800893    -1.426567815614     1.007825032230
         H            1.428083310058     1.986792700893    -0.287329715614     1.007825032230
         H           -0.322355689942     2.095576700893    -0.081160715614     1.007825032230
         H            0.684482310058     1.496321700893     1.250409284386     1.007825032230
         H            2.556739310058    -0.318103299107    -0.483446715614     1.007825032230
         H            1.545737310058    -1.777497299107    -0.374136715614     1.007825032230
         H            1.822917310058    -0.782924299107     1.066887284386     1.007825032230
         H           -2.174911689942     0.818694700893     0.131286284386     1.007825032230
         H           -2.651207689942    -0.888243299107     0.272266284386     1.007825032230
         H           -1.988334689942    -0.274299299107    -1.265667715614     1.007825032230

  Basis Set: AUG-CC-PVTZ
    Blend: AUG-CC-PVTZ
  Basis Set: (AUG-CC-PVTZ AUX)
    Blend: AUG-CC-PVTZ-JKFIT
	 Reference Energy          =    -232.2273685926126632 [Eh]
	 Singles Energy            =      -0.0000000000000000 [Eh]
	 Same-Spin Energy          =      -0.2321753693198073 [Eh]
	 Opposite-Spin Energy      =      -0.8265851418306284 [Eh]
	 Correlation Energy        =      -1.0587605111504357 [Eh]
	 Total Energy              =    -233.2861291037631020 [Eh]

	 ================> DF-SCS-MP2 Energies <==================
	-----------------------------------------------------------
	 SCS Same-Spin Scale       =       0.3333333333333333 [-]
	 SCS Opposite-Spin Scale   =       1.2000000000000000 [-]
	 SCS Same-Spin Energy      =      -0.0773917897732691 [Eh]
	 SCS Opposite-Spin Energy  =      -0.9919021701967540 [Eh]
	 SCS Correlation Energy    =      -1.0692939599700231 [Eh]
	 SCS Total Energy          =    -233.2966625525826885 [Eh]
	-----------------------------------------------------------

  Dipole Moment: [D]
     X:    -0.2244      Y:     0.9179      Z:    -1.0164     Total:     1.3878

*** Psi4 exiting successfully. Buy a developer a beer!
