                               Psi4 1.3.2 release

  ==> Input File <==

--------------------------------------------------------------------------
#psi4
#
memory 32 gb

molecule  {
0 1
  O       -0.6518793    -0.6163870     0.2946356
  C        0.4399360     0.0677150    -0.3224890
  C        0.5644410     1.5011670     0.1737700
  C        1.6750880    -0.7518830    -0.0055480
  C       -1.9198900    -0.2034790    -0.1611150
  H        0.2644123     0.0669295    -1.4114802
  H        1.4331760     1.9888470    -0.2778400
  H       -0.3172630     2.0976310    -0.0716710
  H        0.6895750     1.4983760     1.2598990
  H        2.5618320    -0.3160490    -0.4739570
  H        1.5508300    -1.7754430    -0.3646470
  H        1.8280100    -0.7808700     1.0763770
  H       -2.1698190     0.8207490     0.1407760
  H       -2.6461150    -0.8861890     0.2817560
  H       -1.9832420    -0.2722450    -1.2561780
units angstrom
no_reorient  #important for SAPT in psi4, default
symmetry c1  #important for SAPT in psi4, default
}

set PROPERTIES_ORIGIN ["COM"]
properties('MP2/aug-cc-pvtz', properties = ['dipole'])
--------------------------------------------------------------------------

    Molecular point group: c1
  Charge       = 0
  Multiplicity = 1
  Basis Set: AUG-CC-PVTZ
    Blend: AUG-CC-PVTZ
  Basis Set: (AUG-CC-PVTZ AUX)
    Blend: AUG-CC-PVTZ-JKFIT

    Orbital Energies [Eh]
    ---------------------

    Doubly Occupied:

       1A    -20.549044     2A    -11.276849     3A    -11.265843
       4A    -11.213581     5A    -11.209136     6A     -1.367451
       7A     -1.051679     8A     -0.940873     9A     -0.910300
      10A     -0.790499    11A     -0.668515    12A     -0.636005
      13A     -0.631862    14A     -0.588209    15A     -0.548914
      16A     -0.540599    17A     -0.526469    18A     -0.497084
      19A     -0.488878    20A     -0.459665    21A     -0.415855

  @DF-RHF Final Energy:  -232.23091278769164

   => Energetics <=

    Nuclear Repulsion Energy =            196.6840664788616095
    One-Electron Energy =                -704.6753373499329882
    Two-Electron Energy =                 275.7603580833797423
    Total Energy =                       -232.2309127876916364
  Basis Set: (AUG-CC-PVTZ AUX)
    Blend: AUG-CC-PVTZ-RI
    Molecular point group: c1

    Geometry (in Angstrom), charge = 0, multiplicity = 1:

       Center              X                  Y                   Z               Mass
    ------------   -----------------  -----------------  -----------------  -----------------
         O           -0.650651078812    -0.615901341384     0.297031362653    15.994914619570
         C            0.441164221188     0.068200658616    -0.320093237347    12.000000000000
         C            0.565669221188     1.501652658616     0.176165762653    12.000000000000
         C            1.676316221188    -0.751397341384    -0.003152237347    12.000000000000
         C           -1.918661778812    -0.202993341384    -0.158719237347    12.000000000000
         H            0.265640521188     0.067415158616    -1.409084437347     1.007825032230
         H            1.434404221188     1.989332658616    -0.275444237347     1.007825032230
         H           -0.316034778812     2.098116658616    -0.069275237347     1.007825032230
         H            0.690803221188     1.498861658616     1.262294762653     1.007825032230
         H            2.563060221188    -0.315563341384    -0.471561237347     1.007825032230
         H            1.552058221188    -1.774957341384    -0.362251237347     1.007825032230
         H            1.829238221188    -0.780384341384     1.078772762653     1.007825032230
         H           -2.168590778812     0.821234658616     0.143171762653     1.007825032230
         H           -2.644886778812    -0.885703341384     0.284151762653     1.007825032230
         H           -1.982013778812    -0.271759341384    -1.253782237347     1.007825032230

  Basis Set: AUG-CC-PVTZ
    Blend: AUG-CC-PVTZ
  Basis Set: (AUG-CC-PVTZ AUX)
    Blend: AUG-CC-PVTZ-JKFIT
	 Reference Energy          =    -232.2309127876916364 [Eh]
	 Singles Energy            =      -0.0000000000000000 [Eh]
	 Same-Spin Energy          =      -0.2318441072101471 [Eh]
	 Opposite-Spin Energy      =      -0.8251876164087847 [Eh]
	 Correlation Energy        =      -1.0570317236189317 [Eh]
	 Total Energy              =    -233.2879445113105703 [Eh]

	 ================> DF-SCS-MP2 Energies <==================
	-----------------------------------------------------------
	 SCS Same-Spin Scale       =       0.3333333333333333 [-]
	 SCS Opposite-Spin Scale   =       1.2000000000000000 [-]
	 SCS Same-Spin Energy      =      -0.0772813690700490 [Eh]
	 SCS Opposite-Spin Energy  =      -0.9902251396905416 [Eh]
	 SCS Correlation Energy    =      -1.0675065087605906 [Eh]
	 SCS Total Energy          =    -233.2984192964522379 [Eh]
	-----------------------------------------------------------

  Dipole Moment: [D]
     X:    -0.0644      Y:     0.9395      Z:    -0.8777     Total:     1.2873

*** Psi4 exiting successfully. Buy a developer a beer!
