                               Psi4 1.3.2 release

  ==> Input File <==

--------------------------------------------------------------------------
#psi4
#
memory 32 gb

molecule  {
0 1
  O       -0.6353999    -0.6551008     0.2792494
  C        0.4399360     0.0677150    -0.3224890
  C        0.6061051     1.5077454     0.1414715
  C        1.6750880    -0.7518830    -0.0055480
  C       -1.9198900    -0.2034790    -0.1611150
  H        0.2726320     0.0717710    -1.4127660
  H        1.4331760     1.9888470    -0.2778400
  H       -0.3172630     2.0976310    -0.0716710
  H        0.6895750     1.4983760     1.2598990
  H        2.5618320    -0.3160490    -0.4739570
  H        1.5508300    -1.7754430    -0.3646470
  H        1.8280100    -0.7808700     1.0763770
  H       -2.1698190     0.8207490     0.1407760
  H       -2.6461150    -0.8861890     0.2817560
  H       -1.9832420    -0.2722450    -1.2561780
units angstrom
no_reorient  #important for SAPT in psi4, default
symmetry c1  #important for SAPT in psi4, default
}

set PROPERTIES_ORIGIN ["COM"]
properties('MP2/aug-cc-pvtz', properties = ['dipole'])
--------------------------------------------------------------------------

    Molecular point group: c1
  Charge       = 0
  Multiplicity = 1
  Basis Set: AUG-CC-PVTZ
    Blend: AUG-CC-PVTZ
  Basis Set: (AUG-CC-PVTZ AUX)
    Blend: AUG-CC-PVTZ-JKFIT

    Orbital Energies [Eh]
    ---------------------

    Doubly Occupied:

       1A    -20.552914     2A    -11.276042     3A    -11.268341
       4A    -11.215059     5A    -11.207052     6A     -1.362849
       7A     -1.050688     8A     -0.942036     9A     -0.909899
      10A     -0.789870    11A     -0.668342    12A     -0.634086
      13A     -0.628681    14A     -0.585966    15A     -0.561919
      16A     -0.533651    17A     -0.522177    18A     -0.494090
      19A     -0.491110    20A     -0.457547    21A     -0.418741

  @DF-RHF Final Energy:  -232.22548207318445

   => Energetics <=

    Nuclear Repulsion Energy =            196.1981652083716199
    One-Electron Energy =                -703.7051750022454826
    Two-Electron Energy =                 275.2815277206893825
    Total Energy =                       -232.2254820731844802
  Basis Set: (AUG-CC-PVTZ AUX)
    Blend: AUG-CC-PVTZ-RI
    Molecular point group: c1

    Geometry (in Angstrom), charge = 0, multiplicity = 1:

       Center              X                  Y                   Z               Mass
    ------------   -----------------  -----------------  -----------------  -----------------
         O           -0.644591644207    -0.647387102172     0.290217481890    15.994914619570
         C            0.430744255793     0.075428697828    -0.311520918110    12.000000000000
         C            0.596913355793     1.515459097828     0.152439581890    12.000000000000
         C            1.665896255793    -0.744169302172     0.005420081890    12.000000000000
         C           -1.929081744207    -0.195765302172    -0.150146918110    12.000000000000
         H            0.263440255793     0.079484697828    -1.401797918110     1.007825032230
         H            1.423984255793     1.996560697828    -0.266871918110     1.007825032230
         H           -0.326454744207     2.105344697828    -0.060702918110     1.007825032230
         H            0.680383255793     1.506089697828     1.270867081890     1.007825032230
         H            2.552640255793    -0.308335302172    -0.462988918110     1.007825032230
         H            1.541638255793    -1.767729302172    -0.353678918110     1.007825032230
         H            1.818818255793    -0.773156302172     1.087345081890     1.007825032230
         H           -2.179010744207     0.828462697828     0.151744081890     1.007825032230
         H           -2.655306744207    -0.878475302172     0.292724081890     1.007825032230
         H           -1.992433744207    -0.264531302172    -1.245209918110     1.007825032230

  Basis Set: AUG-CC-PVTZ
    Blend: AUG-CC-PVTZ
  Basis Set: (AUG-CC-PVTZ AUX)
    Blend: AUG-CC-PVTZ-JKFIT
	 Reference Energy          =    -232.2254820731844518 [Eh]
	 Singles Energy            =      -0.0000000000000000 [Eh]
	 Same-Spin Energy          =      -0.2321350739080452 [Eh]
	 Opposite-Spin Energy      =      -0.8261782336938602 [Eh]
	 Correlation Energy        =      -1.0583133076019053 [Eh]
	 Total Energy              =    -233.2837953807863585 [Eh]

	 ================> DF-SCS-MP2 Energies <==================
	-----------------------------------------------------------
	 SCS Same-Spin Scale       =       0.3333333333333333 [-]
	 SCS Opposite-Spin Scale   =       1.2000000000000000 [-]
	 SCS Same-Spin Energy      =      -0.0773783579693484 [Eh]
	 SCS Opposite-Spin Energy  =      -0.9914138804326322 [Eh]
	 SCS Correlation Energy    =      -1.0687922384019806 [Eh]
	 SCS Total Energy          =    -233.2942743115864346 [Eh]
	-----------------------------------------------------------

  Dipole Moment: [D]
     X:    -0.1594      Y:     1.0312      Z:    -0.8652     Total:     1.3554

*** Psi4 exiting successfully. Buy a developer a beer!
