                               Psi4 1.4a3.dev225

  ==> Input File <==

--------------------------------------------------------------------------
#psi4
#
memory 32 gb

molecule  {
0 1
  O        0.6924960    -0.5875230    -0.3608950
  C       -0.4591900     0.0168601     0.3456667
  C       -0.6455470     1.4424380    -0.1023830
  C       -1.6101390    -0.8855300    -0.0083720
  C        1.9499610    -0.1116540     0.0899310
  H       -0.2277260    -0.0393910     1.4076130
  H       -1.5338460     1.8513180     0.3888140
  H        0.2023140     2.0815700     0.1563940
  H       -0.7932070     1.4834700    -1.1853400
  H       -2.5107390    -0.5301980     0.5006670
  H       -1.4118310    -1.9151080     0.2974910
  H       -1.7878760    -0.8729080    -1.0872030
  H        2.1245420     0.9377980    -0.1772120
  H        2.7055770    -0.7281970    -0.3993780
  H        2.0488910    -0.2183520     1.1794680
units angstrom
no_reorient  #important for SAPT in psi4, default
symmetry c1  #important for SAPT in psi4, default
}

set PROPERTIES_ORIGIN ["COM"]
properties('MP2/aug-cc-pvtz', properties = ['dipole'])
--------------------------------------------------------------------------

    Molecular point group: c1
  Charge       = 0
  Multiplicity = 1
  Basis Set: AUG-CC-PVTZ
    Blend: AUG-CC-PVTZ
  Basis Set: (AUG-CC-PVTZ AUX)
    Blend: AUG-CC-PVTZ-JKFIT

    Orbital Energies [Eh]
    ---------------------

    Doubly Occupied:

       1A    -20.543923     2A    -11.277717     3A    -11.263090
       4A    -11.215406     5A    -11.210509     6A     -1.347298
       7A     -1.056146     8A     -0.942827     9A     -0.904982
      10A     -0.791338    11A     -0.661987    12A     -0.633612
      13A     -0.623992    14A     -0.587265    15A     -0.549347
      16A     -0.543103    17A     -0.524816    18A     -0.499573
      19A     -0.483931    20A     -0.460413    21A     -0.416872

  @DF-RHF Final Energy:  -232.22725824487242

   => Energetics <=

    Nuclear Repulsion Energy =            196.0030485471245640
    One-Electron Energy =                -703.3843196358033083
    Two-Electron Energy =                 275.1540128438063562
    Total Energy =                       -232.2272582448724165
  Basis Set: (AUG-CC-PVTZ AUX)
    Blend: AUG-CC-PVTZ-RI
    Molecular point group: c1

    Geometry (in Angstrom), charge = 0, multiplicity = 1:

       Center              X                  Y                   Z               Mass
    ------------   -----------------  -----------------  -----------------  -----------------
         O            0.682988247341    -0.563412140261    -0.350302810570    15.994914619570
         C           -0.468697752659     0.040970959739     0.356258889430    12.000000000000
         C           -0.655054752659     1.466548859739    -0.091790810570    12.000000000000
         C           -1.619646752659    -0.861419140261     0.002220189430    12.000000000000
         C            1.940453247341    -0.087543140261     0.100523189430    12.000000000000
         H           -0.237233752659    -0.015280140261     1.418205189430     1.007825032230
         H           -1.543353752659     1.875428859739     0.399406189430     1.007825032230
         H            0.192806247341     2.105680859739     0.166986189430     1.007825032230
         H           -0.802714752659     1.507580859739    -1.174747810570     1.007825032230
         H           -2.520246752659    -0.506087140261     0.511259189430     1.007825032230
         H           -1.421338752659    -1.890997140261     0.308083189430     1.007825032230
         H           -1.797383752659    -0.848797140261    -1.076610810570     1.007825032230
         H            2.115034247341     0.961908859739    -0.166619810570     1.007825032230
         H            2.696069247341    -0.704086140261    -0.388785810570     1.007825032230
         H            2.039383247341    -0.194241140261     1.190060189430     1.007825032230

  Basis Set: AUG-CC-PVTZ
    Blend: AUG-CC-PVTZ
  Basis Set: (AUG-CC-PVTZ AUX)
    Blend: AUG-CC-PVTZ-JKFIT
	 Reference Energy          =    -232.2272582448724165 [Eh]
	 Singles Energy            =      -0.0000000000000000 [Eh]
	 Same-Spin Energy          =      -0.2321763815611220 [Eh]
	 Opposite-Spin Energy      =      -0.8264692681405539 [Eh]
	 Correlation Energy        =      -1.0586456497016759 [Eh]
	 Total Energy              =    -233.2859038945740906 [Eh]

	 ================> DF-SCS-MP2 Energies <==================
	-----------------------------------------------------------
	 SCS Same-Spin Scale       =       0.3333333333333333 [-]
	 SCS Opposite-Spin Scale   =       1.2000000000000000 [-]
	 SCS Same-Spin Energy      =      -0.0773921271870407 [Eh]
	 SCS Opposite-Spin Energy  =      -0.9917631217686647 [Eh]
	 SCS Correlation Energy    =      -1.0691552489557052 [Eh]
	 SCS Total Energy          =    -233.2964134938281120 [Eh]
	-----------------------------------------------------------

  Dipole Moment: [D]
     X:    -0.1230      Y:     0.9710      Z:     0.9945     Total:     1.3953

*** Psi4 exiting successfully. Buy a developer a beer!
