                               Psi4 1.3.2 release

  ==> Input File <==

--------------------------------------------------------------------------
#psi4
#
memory 32 gb

molecule  {
0 1
  O       -0.6451771    -0.6034100     0.3111818
  C        0.4399360     0.0677150    -0.3224890
  C        0.5644410     1.5011670     0.1737700
  C        1.6750880    -0.7518830    -0.0055480
  C       -1.9198900    -0.2034790    -0.1611150
  H        0.2726320     0.0717710    -1.4127660
  H        1.4331760     1.9888470    -0.2778400
  H       -0.3172630     2.0976310    -0.0716710
  H        0.6895750     1.4983760     1.2598990
  H        2.5618320    -0.3160490    -0.4739570
  H        1.5508300    -1.7754430    -0.3646470
  H        1.8280100    -0.7808700     1.0763770
  H       -2.1614026     0.8214305     0.1452800
  H       -2.6461150    -0.8861890     0.2817560
  H       -1.9832420    -0.2722450    -1.2561780
units angstrom
no_reorient  #important for SAPT in psi4, default
symmetry c1  #important for SAPT in psi4, default
}

set PROPERTIES_ORIGIN ["COM"]
properties('MP2/aug-cc-pvtz', properties = ['dipole'])
--------------------------------------------------------------------------

    Molecular point group: c1
  Charge       = 0
  Multiplicity = 1
  Basis Set: AUG-CC-PVTZ
    Blend: AUG-CC-PVTZ
  Basis Set: (AUG-CC-PVTZ AUX)
    Blend: AUG-CC-PVTZ-JKFIT

    Orbital Energies [Eh]
    ---------------------

    Doubly Occupied:

       1A    -20.549227     2A    -11.276143     3A    -11.266892
       4A    -11.212607     5A    -11.208641     6A     -1.366569
       7A     -1.050730     8A     -0.940391     9A     -0.910924
      10A     -0.790055    11A     -0.668087    12A     -0.635072
      13A     -0.632549    14A     -0.586983    15A     -0.548222
      16A     -0.540081    17A     -0.526276    18A     -0.497762
      19A     -0.488874    20A     -0.460018    21A     -0.415577

  @DF-RHF Final Energy:  -232.23073365043837

   => Energetics <=

    Nuclear Repulsion Energy =            196.7199225043203796
    One-Electron Energy =                -704.7579480932668048
    Two-Electron Energy =                 275.8072919385080581
    Total Energy =                       -232.2307336504383670
  Basis Set: (AUG-CC-PVTZ AUX)
    Blend: AUG-CC-PVTZ-RI
    Molecular point group: c1

    Geometry (in Angstrom), charge = 0, multiplicity = 1:

       Center              X                  Y                   Z               Mass
    ------------   -----------------  -----------------  -----------------  -----------------
         O           -0.645622459181    -0.605801661731     0.309960889341    15.994914619570
         C            0.439490640819     0.065323338269    -0.323709910659    12.000000000000
         C            0.563995640819     1.498775338269     0.172549089341    12.000000000000
         C            1.674642640819    -0.754274661731    -0.006768910659    12.000000000000
         C           -1.920335359181    -0.205870661731    -0.162335910659    12.000000000000
         H            0.272186640819     0.069379338269    -1.413986910659     1.007825032230
         H            1.432730640819     1.986455338269    -0.279060910659     1.007825032230
         H           -0.317708359181     2.095239338269    -0.072891910659     1.007825032230
         H            0.689129640819     1.495984338269     1.258678089341     1.007825032230
         H            2.561386640819    -0.318440661731    -0.475177910659     1.007825032230
         H            1.550384640819    -1.777834661731    -0.365867910659     1.007825032230
         H            1.827564640819    -0.783261661731     1.075156089341     1.007825032230
         H           -2.161847959181     0.819038838269     0.144059089341     1.007825032230
         H           -2.646560359181    -0.888580661731     0.280535089341     1.007825032230
         H           -1.983687359181    -0.274636661731    -1.257398910659     1.007825032230

  Basis Set: AUG-CC-PVTZ
    Blend: AUG-CC-PVTZ
  Basis Set: (AUG-CC-PVTZ AUX)
    Blend: AUG-CC-PVTZ-JKFIT
	 Reference Energy          =    -232.2307336504383670 [Eh]
	 Singles Energy            =      -0.0000000000000000 [Eh]
	 Same-Spin Energy          =      -0.2318680221396879 [Eh]
	 Opposite-Spin Energy      =      -0.8253174778876617 [Eh]
	 Correlation Energy        =      -1.0571855000273496 [Eh]
	 Total Energy              =    -233.2879191504657115 [Eh]

	 ================> DF-SCS-MP2 Energies <==================
	-----------------------------------------------------------
	 SCS Same-Spin Scale       =       0.3333333333333333 [-]
	 SCS Opposite-Spin Scale   =       1.2000000000000000 [-]
	 SCS Same-Spin Energy      =      -0.0772893407132293 [Eh]
	 SCS Opposite-Spin Energy  =      -0.9903809734651940 [Eh]
	 SCS Correlation Energy    =      -1.0676703141784234 [Eh]
	 SCS Total Energy          =    -233.2984039646167957 [Eh]
	-----------------------------------------------------------

  Dipole Moment: [D]
     X:    -0.1104      Y:     0.9059      Z:    -0.9173     Total:     1.2940

*** Psi4 exiting successfully. Buy a developer a beer!
