                               Psi4 1.3.2 release

  ==> Input File <==

--------------------------------------------------------------------------
#psi4
#
memory 32 gb

molecule  {
0 1
  O       -0.6668899    -0.6219056     0.2608280
  C        0.4399360     0.0677150    -0.3224890
  C        0.5644410     1.5011670     0.1737700
  C        1.6750880    -0.7518830    -0.0055480
  C       -1.9198900    -0.2034790    -0.1611150
  H        0.2398357     0.0524070    -1.4071256
  H        1.4331760     1.9888470    -0.2778400
  H       -0.3172630     2.0976310    -0.0716710
  H        0.6895750     1.4983760     1.2598990
  H        2.5618320    -0.3160490    -0.4739570
  H        1.5508300    -1.7754430    -0.3646470
  H        1.8280100    -0.7808700     1.0763770
  H       -2.1698190     0.8207490     0.1407760
  H       -2.6461150    -0.8861890     0.2817560
  H       -1.9832420    -0.2722450    -1.2561780
units angstrom
no_reorient  #important for SAPT in psi4, default
symmetry c1  #important for SAPT in psi4, default
}

set PROPERTIES_ORIGIN ["COM"]
properties('MP2/aug-cc-pvtz', properties = ['dipole'])
--------------------------------------------------------------------------

    Molecular point group: c1
  Charge       = 0
  Multiplicity = 1
  Basis Set: AUG-CC-PVTZ
    Blend: AUG-CC-PVTZ
  Basis Set: (AUG-CC-PVTZ AUX)
    Blend: AUG-CC-PVTZ-JKFIT

    Orbital Energies [Eh]
    ---------------------

    Doubly Occupied:

       1A    -20.546936     2A    -11.277884     3A    -11.263567
       4A    -11.214810     5A    -11.210420     6A     -1.373448
       7A     -1.054029     8A     -0.941523     9A     -0.909859
      10A     -0.791486    11A     -0.670453    12A     -0.638722
      13A     -0.633819    14A     -0.590731    15A     -0.549776
      16A     -0.541476    17A     -0.528202    18A     -0.496767
      19A     -0.490265    20A     -0.456586    21A     -0.414068

  @DF-RHF Final Energy:  -232.23070735005214

   => Energetics <=

    Nuclear Repulsion Energy =            196.9450692354342038
    One-Electron Energy =                -705.1619001049269855
    Two-Electron Energy =                 275.9861235194406390
    Total Energy =                       -232.2307073500521710
  Basis Set: (AUG-CC-PVTZ AUX)
    Blend: AUG-CC-PVTZ-RI
    Molecular point group: c1

    Geometry (in Angstrom), charge = 0, multiplicity = 1:

       Center              X                  Y                   Z               Mass
    ------------   -----------------  -----------------  -----------------  -----------------
         O           -0.662085995522    -0.620030697722     0.270464725032    15.994914619570
         C            0.444739904478     0.069589902278    -0.312852274968    12.000000000000
         C            0.569244904478     1.503041902278     0.183406725032    12.000000000000
         C            1.679891904478    -0.750008097722     0.004088725032    12.000000000000
         C           -1.915086095522    -0.201604097722    -0.151478274968    12.000000000000
         H            0.244639604478     0.054281902278    -1.397488874968     1.007825032230
         H            1.437979904478     1.990721902278    -0.268203274968     1.007825032230
         H           -0.312459095522     2.099505902278    -0.062034274968     1.007825032230
         H            0.694378904478     1.500250902278     1.269535725032     1.007825032230
         H            2.566635904478    -0.314174097722    -0.464320274968     1.007825032230
         H            1.555633904478    -1.773568097722    -0.355010274968     1.007825032230
         H            1.832813904478    -0.778995097722     1.086013725032     1.007825032230
         H           -2.165015095522     0.822623902278     0.150412725032     1.007825032230
         H           -2.641311095522    -0.884314097722     0.291392725032     1.007825032230
         H           -1.978438095522    -0.270370097722    -1.246541274968     1.007825032230

  Basis Set: AUG-CC-PVTZ
    Blend: AUG-CC-PVTZ
  Basis Set: (AUG-CC-PVTZ AUX)
    Blend: AUG-CC-PVTZ-JKFIT
	 Reference Energy          =    -232.2307073500521426 [Eh]
	 Singles Energy            =      -0.0000000000000000 [Eh]
	 Same-Spin Energy          =      -0.2317326640713675 [Eh]
	 Opposite-Spin Energy      =      -0.8245291664791203 [Eh]
	 Correlation Energy        =      -1.0562618305504878 [Eh]
	 Total Energy              =    -233.2869691806026253 [Eh]

	 ================> DF-SCS-MP2 Energies <==================
	-----------------------------------------------------------
	 SCS Same-Spin Scale       =       0.3333333333333333 [-]
	 SCS Opposite-Spin Scale   =       1.2000000000000000 [-]
	 SCS Same-Spin Energy      =      -0.0772442213571225 [Eh]
	 SCS Opposite-Spin Energy  =      -0.9894349997749443 [Eh]
	 SCS Correlation Energy    =      -1.0666792211320668 [Eh]
	 SCS Total Energy          =    -233.2973865711842052 [Eh]
	-----------------------------------------------------------

  Dipole Moment: [D]
     X:     0.0320      Y:     0.9498      Z:    -0.7880     Total:     1.2346

*** Psi4 exiting successfully. Buy a developer a beer!
