                               Psi4 1.3.2 release

  ==> Input File <==

--------------------------------------------------------------------------
#psi4
#
memory 32 gb

molecule  {
0 1
  N        0.0402460     1.4416600     0.0000620
  C        0.0039250     0.1554150    -0.0002990
  C       -1.3400130    -0.5204670     0.0000250
  C        1.2044320    -0.7598545     0.1500030
  H       -2.1277100     0.2335740    -0.0000130
  H       -1.4495710    -1.1615970    -0.8813460
  H       -1.4493400    -1.1611390     0.8817800
  H        2.1385520    -0.1918070    -0.0030740
  H        1.1876380    -1.4127410    -0.8791240
  H        1.1905740    -1.4078120     0.8828600
  H        1.0180780     1.7593200     0.0001080
units angstrom
no_reorient  #important for SAPT in psi4, default
symmetry c1  #important for SAPT in psi4, default
}

set PROPERTIES_ORIGIN ["COM"]
properties('MP2/aug-cc-pvtz', properties = ['dipole'])
--------------------------------------------------------------------------

    Molecular point group: c1
  Charge       = 0
  Multiplicity = 1
  Basis Set: AUG-CC-PVTZ
    Blend: AUG-CC-PVTZ
  Basis Set: (AUG-CC-PVTZ AUX)
    Blend: AUG-CC-PVTZ-JKFIT

    Orbital Energies [Eh]
    ---------------------

    Doubly Occupied:

       1A    -15.542616     2A    -11.290549     3A    -11.240814
       4A    -11.224367     5A     -1.204927     6A     -1.012459
       7A     -0.958812     8A     -0.743156     9A     -0.656930
      10A     -0.629505    11A     -0.589713    12A     -0.549970
      13A     -0.534886    14A     -0.508724    15A     -0.420649
      16A     -0.404180

  @DF-RHF Final Energy:  -172.15912787961000

   => Energetics <=

    Nuclear Repulsion Energy =            119.9674648983672256
    One-Electron Energy =                -469.2286707624098199
    Two-Electron Energy =                 177.1020779844326114
    Total Energy =                       -172.1591278796099971
  Basis Set: (AUG-CC-PVTZ AUX)
    Blend: AUG-CC-PVTZ-RI
    Molecular point group: c1

    Geometry (in Angstrom), charge = 0, multiplicity = 1:

       Center              X                  Y                   Z               Mass
    ------------   -----------------  -----------------  -----------------  -----------------
         N            0.049081005958     1.383465748452    -0.031464188499    14.003074004430
         C            0.012760005958     0.097220748452    -0.031825188499    12.000000000000
         C           -1.331177994042    -0.578661251548    -0.031501188499    12.000000000000
         C            1.213267005958    -0.818048751548     0.118476811501    12.000000000000
         H           -2.118874994042     0.175379748452    -0.031539188499     1.007825032230
         H           -1.440735994042    -1.219791251548    -0.912872188499     1.007825032230
         H           -1.440504994042    -1.219333251548     0.850253811501     1.007825032230
         H            2.147387005958    -0.250001251548    -0.034600188499     1.007825032230
         H            1.196473005958    -1.470935251548    -0.910650188499     1.007825032230
         H            1.199409005958    -1.466006251548     0.851333811501     1.007825032230
         H            1.026913005958     1.701125748452    -0.031418188499     1.007825032230

  Basis Set: AUG-CC-PVTZ
    Blend: AUG-CC-PVTZ
  Basis Set: (AUG-CC-PVTZ AUX)
    Blend: AUG-CC-PVTZ-JKFIT
	 Reference Energy          =    -172.1591278796099971 [Eh]
	 Singles Energy            =      -0.0000000000000000 [Eh]
	 Same-Spin Energy          =      -0.1778448767452047 [Eh]
	 Opposite-Spin Energy      =      -0.6281646536436732 [Eh]
	 Correlation Energy        =      -0.8060095303888780 [Eh]
	 Total Energy              =    -172.9651374099988743 [Eh]

	 ================> DF-SCS-MP2 Energies <==================
	-----------------------------------------------------------
	 SCS Same-Spin Scale       =       0.3333333333333333 [-]
	 SCS Opposite-Spin Scale   =       1.2000000000000000 [-]
	 SCS Same-Spin Energy      =      -0.0592816255817349 [Eh]
	 SCS Opposite-Spin Energy  =      -0.7537975843724078 [Eh]
	 SCS Correlation Energy    =      -0.8130792099541427 [Eh]
	 SCS Total Energy          =    -172.9722070895641366 [Eh]
	-----------------------------------------------------------

  Dipole Moment: [D]
     X:     1.2008      Y:    -2.1268      Z:     0.1050     Total:     2.4446

*** Psi4 exiting successfully. Buy a developer a beer!
