                               Psi4 1.3.2 release

  ==> Input File <==

--------------------------------------------------------------------------
#psi4
#
memory 32 gb

molecule  {
0 1
  N        0.0402460     1.4416600     0.0000620
  C        0.0039250     0.1554150    -0.0002990
  C       -1.3400130    -0.5204670     0.0000250
  C        1.2044316    -0.7598533     0.1000030
  H       -2.1277100     0.2335740    -0.0000130
  H       -1.4495710    -1.1615970    -0.8813460
  H       -1.4493400    -1.1611390     0.8817800
  H        2.1385520    -0.1918070    -0.0030740
  H        1.1876380    -1.4127410    -0.8791240
  H        1.1905740    -1.4078120     0.8828600
  H        1.0180780     1.7593200     0.0001080
units angstrom
no_reorient  #important for SAPT in psi4, default
symmetry c1  #important for SAPT in psi4, default
}

set PROPERTIES_ORIGIN ["COM"]
properties('MP2/aug-cc-pvtz', properties = ['dipole'])
--------------------------------------------------------------------------

    Molecular point group: c1
  Charge       = 0
  Multiplicity = 1
  Basis Set: AUG-CC-PVTZ
    Blend: AUG-CC-PVTZ
  Basis Set: (AUG-CC-PVTZ AUX)
    Blend: AUG-CC-PVTZ-JKFIT

    Orbital Energies [Eh]
    ---------------------

    Doubly Occupied:

       1A    -15.542333     2A    -11.289373     3A    -11.239013
       4A    -11.224229     5A     -1.204703     6A     -1.011823
       7A     -0.957900     8A     -0.742054     9A     -0.651335
      10A     -0.623505    11A     -0.592847    12A     -0.550266
      13A     -0.538092    14A     -0.513943    15A     -0.418337
      16A     -0.407038

  @DF-RHF Final Energy:  -172.17188308962156

   => Energetics <=

    Nuclear Repulsion Energy =            120.0074641296952507
    One-Electron Energy =                -469.3451099450837773
    Two-Electron Energy =                 177.1657627257669958
    Total Energy =                       -172.1718830896215593
  Basis Set: (AUG-CC-PVTZ AUX)
    Blend: AUG-CC-PVTZ-RI
    Molecular point group: c1

    Geometry (in Angstrom), charge = 0, multiplicity = 1:

       Center              X                  Y                   Z               Mass
    ------------   -----------------  -----------------  -----------------  -----------------
         N            0.049081090083     1.383465496077    -0.020948545024    14.003074004430
         C            0.012760090083     0.097220496077    -0.021309545024    12.000000000000
         C           -1.331177909917    -0.578661503923    -0.020985545024    12.000000000000
         C            1.213266690083    -0.818047803923     0.078992454976    12.000000000000
         H           -2.118874909917     0.175379496077    -0.021023545024     1.007825032230
         H           -1.440735909917    -1.219791503923    -0.902356545024     1.007825032230
         H           -1.440504909917    -1.219333503923     0.860769454976     1.007825032230
         H            2.147387090083    -0.250001503923    -0.024084545024     1.007825032230
         H            1.196473090083    -1.470935503923    -0.900134545024     1.007825032230
         H            1.199409090083    -1.466006503923     0.861849454976     1.007825032230
         H            1.026913090083     1.701125496077    -0.020902545024     1.007825032230

  Basis Set: AUG-CC-PVTZ
    Blend: AUG-CC-PVTZ
  Basis Set: (AUG-CC-PVTZ AUX)
    Blend: AUG-CC-PVTZ-JKFIT
	 Reference Energy          =    -172.1718830896215593 [Eh]
	 Singles Energy            =      -0.0000000000000000 [Eh]
	 Same-Spin Energy          =      -0.1776879856813873 [Eh]
	 Opposite-Spin Energy      =      -0.6275779634995982 [Eh]
	 Correlation Energy        =      -0.8052659491809855 [Eh]
	 Total Energy              =    -172.9771490388025370 [Eh]

	 ================> DF-SCS-MP2 Energies <==================
	-----------------------------------------------------------
	 SCS Same-Spin Scale       =       0.3333333333333333 [-]
	 SCS Opposite-Spin Scale   =       1.2000000000000000 [-]
	 SCS Same-Spin Energy      =      -0.0592293285604624 [Eh]
	 SCS Opposite-Spin Energy  =      -0.7530935561995178 [Eh]
	 SCS Correlation Energy    =      -0.8123228847599802 [Eh]
	 SCS Total Energy          =    -172.9842059743815526 [Eh]
	-----------------------------------------------------------

  Dipole Moment: [D]
     X:     1.2086      Y:    -2.1430      Z:     0.0715     Total:     2.4614

*** Psi4 exiting successfully. Buy a developer a beer!
