                               Psi4 1.3.2 release

  ==> Input File <==

--------------------------------------------------------------------------
#psi4
#
memory 32 gb

molecule  {
0 1
  N        0.0402460     1.4416600     0.0000620
  C        0.0039250     0.1554150    -0.0002990
  C       -1.3400130    -0.5204670     0.0000250
  C        1.2044323    -0.7598557     0.2000030
  H       -2.1277100     0.2335740    -0.0000130
  H       -1.4495710    -1.1615970    -0.8813460
  H       -1.4493400    -1.1611390     0.8817800
  H        2.1385520    -0.1918070    -0.0030740
  H        1.1876380    -1.4127410    -0.8791240
  H        1.1905740    -1.4078120     0.8828600
  H        1.0180780     1.7593200     0.0001080
units angstrom
no_reorient  #important for SAPT in psi4, default
symmetry c1  #important for SAPT in psi4, default
}

set PROPERTIES_ORIGIN ["COM"]
properties('MP2/aug-cc-pvtz', properties = ['dipole'])
--------------------------------------------------------------------------

    Molecular point group: c1
  Charge       = 0
  Multiplicity = 1
  Basis Set: AUG-CC-PVTZ
    Blend: AUG-CC-PVTZ
  Basis Set: (AUG-CC-PVTZ AUX)
    Blend: AUG-CC-PVTZ-JKFIT

    Orbital Energies [Eh]
    ---------------------

    Doubly Occupied:

       1A    -15.543002     2A    -11.292176     3A    -11.243324
       4A    -11.224562     5A     -1.205231     6A     -1.013397
       7A     -0.960115     8A     -0.744869     9A     -0.665700
      10A     -0.631908    11A     -0.587937    12A     -0.549924
      13A     -0.532090    14A     -0.501412    15A     -0.422904
      16A     -0.401111

  @DF-RHF Final Energy:  -172.14105212814741

   => Energetics <=

    Nuclear Repulsion Energy =            119.9119389063065029
    One-Electron Energy =                -469.0666587604931124
    Two-Electron Energy =                 177.0136677260392162
    Total Energy =                       -172.1410521281474075
  Basis Set: (AUG-CC-PVTZ AUX)
    Blend: AUG-CC-PVTZ-RI
    Molecular point group: c1

    Geometry (in Angstrom), charge = 0, multiplicity = 1:

       Center              X                  Y                   Z               Mass
    ------------   -----------------  -----------------  -----------------  -----------------
         N            0.049080942864     1.383466000828    -0.041979831975    14.003074004430
         C            0.012759942864     0.097221000828    -0.042340831975    12.000000000000
         C           -1.331178057136    -0.578660999172    -0.042016831975    12.000000000000
         C            1.213267242864    -0.818049699172     0.157961168025    12.000000000000
         H           -2.118875057136     0.175380000828    -0.042054831975     1.007825032230
         H           -1.440736057136    -1.219790999172    -0.923387831975     1.007825032230
         H           -1.440505057136    -1.219332999172     0.839738168025     1.007825032230
         H            2.147386942864    -0.250000999172    -0.045115831975     1.007825032230
         H            1.196472942864    -1.470934999172    -0.921165831975     1.007825032230
         H            1.199408942864    -1.466005999172     0.840818168025     1.007825032230
         H            1.026912942864     1.701126000828    -0.041933831975     1.007825032230

  Basis Set: AUG-CC-PVTZ
    Blend: AUG-CC-PVTZ
  Basis Set: (AUG-CC-PVTZ AUX)
    Blend: AUG-CC-PVTZ-JKFIT
	 Reference Energy          =    -172.1410521281474075 [Eh]
	 Singles Energy            =      -0.0000000000000000 [Eh]
	 Same-Spin Energy          =      -0.1780669670352067 [Eh]
	 Opposite-Spin Energy      =      -0.6289956892853614 [Eh]
	 Correlation Energy        =      -0.8070626563205682 [Eh]
	 Total Energy              =    -172.9481147844679754 [Eh]

	 ================> DF-SCS-MP2 Energies <==================
	-----------------------------------------------------------
	 SCS Same-Spin Scale       =       0.3333333333333333 [-]
	 SCS Opposite-Spin Scale   =       1.2000000000000000 [-]
	 SCS Same-Spin Energy      =      -0.0593556556784022 [Eh]
	 SCS Opposite-Spin Energy  =      -0.7547948271424337 [Eh]
	 SCS Correlation Energy    =      -0.8141504828208360 [Eh]
	 SCS Total Energy          =    -172.9552026109682572 [Eh]
	-----------------------------------------------------------

  Dipole Moment: [D]
     X:     1.1898      Y:    -2.1053      Z:     0.1358     Total:     2.4221

*** Psi4 exiting successfully. Buy a developer a beer!
