                               Psi4 1.3.2 release

  ==> Input File <==

--------------------------------------------------------------------------
#psi4
#
memory 32 gb

molecule  {
0 1
  N        0.0402460     1.4416600     0.0000620
  C        0.0039250     0.1554150    -0.0002990
  C       -1.3400130    -0.5204670     0.0000250
  C        1.2044326    -0.7598568     0.2500030
  H       -2.1277100     0.2335740    -0.0000130
  H       -1.4495710    -1.1615970    -0.8813460
  H       -1.4493400    -1.1611390     0.8817800
  H        2.1385520    -0.1918070    -0.0030740
  H        1.1876380    -1.4127410    -0.8791240
  H        1.1905740    -1.4078120     0.8828600
  H        1.0180780     1.7593200     0.0001080
units angstrom
no_reorient  #important for SAPT in psi4, default
symmetry c1  #important for SAPT in psi4, default
}

set PROPERTIES_ORIGIN ["COM"]
properties('MP2/aug-cc-pvtz', properties = ['dipole'])
--------------------------------------------------------------------------

    Molecular point group: c1
  Charge       = 0
  Multiplicity = 1
  Basis Set: AUG-CC-PVTZ
    Blend: AUG-CC-PVTZ
  Basis Set: (AUG-CC-PVTZ AUX)
    Blend: AUG-CC-PVTZ-JKFIT

    Orbital Energies [Eh]
    ---------------------

    Doubly Occupied:

       1A    -15.543483     2A    -11.294231     3A    -11.246529
       4A    -11.224814     5A     -1.205610     6A     -1.014683
       7A     -0.961819     8A     -0.747334     9A     -0.675577
      10A     -0.631976    11A     -0.587015    12A     -0.550052
      13A     -0.529842    14A     -0.492896    15A     -0.425045
      16A     -0.397844

  @DF-RHF Final Energy:  -172.11749531862966

   => Energetics <=

    Nuclear Repulsion Energy =            119.8412281926324567
    One-Electron Energy =                -468.8599443388547456
    Two-Electron Energy =                 176.9012208275926241
    Total Energy =                       -172.1174953186296648
  Basis Set: (AUG-CC-PVTZ AUX)
    Blend: AUG-CC-PVTZ-RI
    Molecular point group: c1

    Geometry (in Angstrom), charge = 0, multiplicity = 1:

       Center              X                  Y                   Z               Mass
    ------------   -----------------  -----------------  -----------------  -----------------
         N            0.049080879771     1.383466232172    -0.052495475451    14.003074004430
         C            0.012759879771     0.097221232172    -0.052856475451    12.000000000000
         C           -1.331178120229    -0.578660767828    -0.052532475451    12.000000000000
         C            1.213267479771    -0.818050567828     0.197445524549    12.000000000000
         H           -2.118875120229     0.175380232172    -0.052570475451     1.007825032230
         H           -1.440736120229    -1.219790767828    -0.933903475451     1.007825032230
         H           -1.440505120229    -1.219332767828     0.829222524549     1.007825032230
         H            2.147386879771    -0.250000767828    -0.055631475451     1.007825032230
         H            1.196472879771    -1.470934767828    -0.931681475451     1.007825032230
         H            1.199408879771    -1.466005767828     0.830302524549     1.007825032230
         H            1.026912879771     1.701126232172    -0.052449475451     1.007825032230

  Basis Set: AUG-CC-PVTZ
    Blend: AUG-CC-PVTZ
  Basis Set: (AUG-CC-PVTZ AUX)
    Blend: AUG-CC-PVTZ-JKFIT
	 Reference Energy          =    -172.1174953186296648 [Eh]
	 Singles Energy            =      -0.0000000000000000 [Eh]
	 Same-Spin Energy          =      -0.1783562032405543 [Eh]
	 Opposite-Spin Energy      =      -0.6300771620264141 [Eh]
	 Correlation Energy        =      -0.8084333652669684 [Eh]
	 Total Energy              =    -172.9259286838966432 [Eh]

	 ================> DF-SCS-MP2 Energies <==================
	-----------------------------------------------------------
	 SCS Same-Spin Scale       =       0.3333333333333333 [-]
	 SCS Opposite-Spin Scale   =       1.2000000000000000 [-]
	 SCS Same-Spin Energy      =      -0.0594520677468514 [Eh]
	 SCS Opposite-Spin Energy  =      -0.7560925944316969 [Eh]
	 SCS Correlation Energy    =      -0.8155446621785483 [Eh]
	 SCS Total Energy          =    -172.9330399808082177 [Eh]
	-----------------------------------------------------------

  Dipole Moment: [D]
     X:     1.1755      Y:    -2.0797      Z:     0.1629     Total:     2.3945

*** Psi4 exiting successfully. Buy a developer a beer!
