                               Psi4 1.3.2 release

  ==> Input File <==

--------------------------------------------------------------------------
#psi4
#
memory 32 gb

molecule  {
0 1
  N        0.0402460     1.4416600     0.0000620
  C        0.0039250     0.1554150    -0.0002990
  C       -1.3400130    -0.5204670     0.0000250
  C        1.2044329    -0.7598580     0.3000030
  H       -2.1277100     0.2335740    -0.0000130
  H       -1.4495710    -1.1615970    -0.8813460
  H       -1.4493400    -1.1611390     0.8817800
  H        2.1385520    -0.1918070    -0.0030740
  H        1.1876380    -1.4127410    -0.8791240
  H        1.1905740    -1.4078120     0.8828600
  H        1.0180780     1.7593200     0.0001080
units angstrom
no_reorient  #important for SAPT in psi4, default
symmetry c1  #important for SAPT in psi4, default
}

set PROPERTIES_ORIGIN ["COM"]
properties('MP2/aug-cc-pvtz', properties = ['dipole'])
--------------------------------------------------------------------------

    Molecular point group: c1
  Charge       = 0
  Multiplicity = 1
  Basis Set: AUG-CC-PVTZ
    Blend: AUG-CC-PVTZ
  Basis Set: (AUG-CC-PVTZ AUX)
    Blend: AUG-CC-PVTZ-JKFIT

    Orbital Energies [Eh]
    ---------------------

    Doubly Occupied:

       1A    -15.544049     2A    -11.296685     3A    -11.250405
       4A    -11.225125     5A     -1.206051     6A     -1.016379
       7A     -0.963914     8A     -0.750645     9A     -0.684806
      10A     -0.630820    11A     -0.586626    12A     -0.550301
      13A     -0.527896    14A     -0.484108    15A     -0.427009
      16A     -0.394376

  @DF-RHF Final Energy:  -172.08832902437459

   => Energetics <=

    Nuclear Repulsion Energy =            119.7556211816096123
    One-Electron Energy =                -468.6095120146463273
    Two-Electron Energy =                 176.7655618086621132
    Total Energy =                       -172.0883290243745876
  Basis Set: (AUG-CC-PVTZ AUX)
    Blend: AUG-CC-PVTZ-RI
    Molecular point group: c1

    Geometry (in Angstrom), charge = 0, multiplicity = 1:

       Center              X                  Y                   Z               Mass
    ------------   -----------------  -----------------  -----------------  -----------------
         N            0.049080816677     1.383466484547    -0.063011118927    14.003074004430
         C            0.012759816677     0.097221484547    -0.063372118927    12.000000000000
         C           -1.331178183323    -0.578660515453    -0.063048118927    12.000000000000
         C            1.213267716677    -0.818051515453     0.236929881073    12.000000000000
         H           -2.118875183323     0.175380484547    -0.063086118927     1.007825032230
         H           -1.440736183323    -1.219790515453    -0.944419118927     1.007825032230
         H           -1.440505183323    -1.219332515453     0.818706881073     1.007825032230
         H            2.147386816677    -0.250000515453    -0.066147118927     1.007825032230
         H            1.196472816677    -1.470934515453    -0.942197118927     1.007825032230
         H            1.199408816677    -1.466005515453     0.819786881073     1.007825032230
         H            1.026912816677     1.701126484547    -0.062965118927     1.007825032230

  Basis Set: AUG-CC-PVTZ
    Blend: AUG-CC-PVTZ
  Basis Set: (AUG-CC-PVTZ AUX)
    Blend: AUG-CC-PVTZ-JKFIT
	 Reference Energy          =    -172.0883290243745876 [Eh]
	 Singles Energy            =      -0.0000000000000000 [Eh]
	 Same-Spin Energy          =      -0.1787150781785772 [Eh]
	 Opposite-Spin Energy      =      -0.6314141388967633 [Eh]
	 Correlation Energy        =      -0.8101292170753406 [Eh]
	 Total Energy              =    -172.8984582414499300 [Eh]

	 ================> DF-SCS-MP2 Energies <==================
	-----------------------------------------------------------
	 SCS Same-Spin Scale       =       0.3333333333333333 [-]
	 SCS Opposite-Spin Scale   =       1.2000000000000000 [-]
	 SCS Same-Spin Energy      =      -0.0595716927261924 [Eh]
	 SCS Opposite-Spin Energy  =      -0.7576969666761160 [Eh]
	 SCS Correlation Energy    =      -0.8172686594023084 [Eh]
	 SCS Total Energy          =    -172.9055976837769038 [Eh]
	-----------------------------------------------------------

  Dipole Moment: [D]
     X:     1.1576      Y:    -2.0515      Z:     0.1849     Total:     2.3628

*** Psi4 exiting successfully. Buy a developer a beer!
