                               Psi4 1.3.2 release

  ==> Input File <==

--------------------------------------------------------------------------
#psi4
#
memory 32 gb

molecule  {
0 1
  N        0.0402460     1.4416600     0.0000620
  C        0.0039250     0.1554150    -0.0002990
  C       -1.3400130    -0.5204670     0.0000250
  C        1.2044313    -0.7598522     0.0500030
  H       -2.1277100     0.2335740    -0.0000130
  H       -1.4495710    -1.1615970    -0.8813460
  H       -1.4493400    -1.1611390     0.8817800
  H        2.1385520    -0.1918070    -0.0030740
  H        1.1876380    -1.4127410    -0.8791240
  H        1.1905740    -1.4078120     0.8828600
  H        1.0180780     1.7593200     0.0001080
units angstrom
no_reorient  #important for SAPT in psi4, default
symmetry c1  #important for SAPT in psi4, default
}

set PROPERTIES_ORIGIN ["COM"]
properties('MP2/aug-cc-pvtz', properties = ['dipole'])
--------------------------------------------------------------------------

    Molecular point group: c1
  Charge       = 0
  Multiplicity = 1
  Basis Set: AUG-CC-PVTZ
    Blend: AUG-CC-PVTZ
  Basis Set: (AUG-CC-PVTZ AUX)
    Blend: AUG-CC-PVTZ-JKFIT

    Orbital Energies [Eh]
    ---------------------

    Doubly Occupied:

       1A    -15.542158     2A    -11.288663     3A    -11.237931
       4A    -11.224147     5A     -1.204566     6A     -1.011455
       7A     -0.957363     8A     -0.741444     9A     -0.648942
      10A     -0.614880    11A     -0.597878    12A     -0.550774
      13A     -0.540714    14A     -0.516844    15A     -0.416099
      16A     -0.409586

  @DF-RHF Final Energy:  -172.17946606050620

   => Energetics <=

    Nuclear Repulsion Energy =            120.0316207458676843
    One-Electron Energy =                -469.4152855594450102
    Two-Electron Energy =                 177.2041987530710969
    Total Energy =                       -172.1794660605062006
  Basis Set: (AUG-CC-PVTZ AUX)
    Blend: AUG-CC-PVTZ-RI
    Molecular point group: c1

    Geometry (in Angstrom), charge = 0, multiplicity = 1:

       Center              X                  Y                   Z               Mass
    ------------   -----------------  -----------------  -----------------  -----------------
         N            0.049081153177     1.383465264733    -0.010432901548    14.003074004430
         C            0.012760153177     0.097220264733    -0.010793901548    12.000000000000
         C           -1.331177846823    -0.578661735267    -0.010469901548    12.000000000000
         C            1.213266453177    -0.818046935267     0.039508098452    12.000000000000
         H           -2.118874846823     0.175379264733    -0.010507901548     1.007825032230
         H           -1.440735846823    -1.219791735267    -0.891840901548     1.007825032230
         H           -1.440504846823    -1.219333735267     0.871285098452     1.007825032230
         H            2.147387153177    -0.250001735267    -0.013568901548     1.007825032230
         H            1.196473153177    -1.470935735267    -0.889618901548     1.007825032230
         H            1.199409153177    -1.466006735267     0.872365098452     1.007825032230
         H            1.026913153177     1.701125264733    -0.010386901548     1.007825032230

  Basis Set: AUG-CC-PVTZ
    Blend: AUG-CC-PVTZ
  Basis Set: (AUG-CC-PVTZ AUX)
    Blend: AUG-CC-PVTZ-JKFIT
	 Reference Energy          =    -172.1794660605062006 [Eh]
	 Singles Energy            =      -0.0000000000000000 [Eh]
	 Same-Spin Energy          =      -0.1775947197492494 [Eh]
	 Opposite-Spin Energy      =      -0.6272292618115551 [Eh]
	 Correlation Energy        =      -0.8048239815608045 [Eh]
	 Total Energy              =    -172.9842900420670162 [Eh]

	 ================> DF-SCS-MP2 Energies <==================
	-----------------------------------------------------------
	 SCS Same-Spin Scale       =       0.3333333333333333 [-]
	 SCS Opposite-Spin Scale   =       1.2000000000000000 [-]
	 SCS Same-Spin Energy      =      -0.0591982399164165 [Eh]
	 SCS Opposite-Spin Energy  =      -0.7526751141738661 [Eh]
	 SCS Correlation Energy    =      -0.8118733540902826 [Eh]
	 SCS Total Energy          =    -172.9913394145964958 [Eh]
	-----------------------------------------------------------

  Dipole Moment: [D]
     X:     1.2132      Y:    -2.1531      Z:     0.0364     Total:     2.4717

*** Psi4 exiting successfully. Buy a developer a beer!
