                               Psi4 1.3.2 release

  ==> Input File <==

--------------------------------------------------------------------------
#psi4
#
memory 32 gb

molecule  {
0 1
 Br       -3.5713820     0.2354630    -0.0000030
 Br        3.5713810    -0.2354650    -0.0000030
  O       -1.7063930    -1.8556370     0.0000010
  O        1.7063960     1.8556390     0.0000010
  C       -0.6782962     0.3467419     0.0500100
  C        0.6782960    -0.3467390     0.0000100
  C       -1.7955640    -0.6603920     0.0000020
  C        1.7955640     0.6603950     0.0000020
  H       -0.8053490     0.9949230    -0.8734510
  H       -0.8053540     0.9949110     0.8734800
  H        0.8053470    -0.9949190    -0.8734520
  H        0.8053530    -0.9949090     0.8734780
units angstrom
no_reorient  #important for SAPT in psi4, default
symmetry c1  #important for SAPT in psi4, default
}

set PROPERTIES_ORIGIN ["COM"]
properties('MP2/aug-cc-pvtz', properties = ['dipole'])
--------------------------------------------------------------------------

    Molecular point group: c1
  Charge       = 0
  Multiplicity = 1
  Basis Set: AUG-CC-PVTZ
    Blend: AUG-CC-PVTZ
  Basis Set: (AUG-CC-PVTZ AUX)
    Blend: AUG-CC-PVTZ-JKFIT

    Orbital Energies [Eh]
    ---------------------

    Doubly Occupied:

       1A   -490.042259     2A   -490.042240     3A    -65.182137
       4A    -65.182117     5A    -58.537343     6A    -58.537324
       7A    -58.536083     8A    -58.536063     9A    -58.535948
      10A    -58.535928    11A    -20.618149    12A    -20.618120
      13A    -11.429317    14A    -11.429185    15A    -11.297970
      16A    -11.297340    17A     -9.854782    18A     -9.854763
      19A     -7.465905    20A     -7.465887    21A     -7.459916
      22A     -7.459896    23A     -7.459359    24A     -7.459338
      25A     -3.209425    26A     -3.209407    27A     -3.206512
      28A     -3.206493    29A     -3.205748    30A     -3.205729
      31A     -3.198108    32A     -3.198089    33A     -3.198086
      34A     -3.198067    35A     -1.459756    36A     -1.458396
      37A     -1.139256    38A     -1.068525    39A     -1.038214
      40A     -0.965950    41A     -0.788550    42A     -0.787429
      43A     -0.713239    44A     -0.701712    45A     -0.684186
      46A     -0.650933    47A     -0.639284    48A     -0.622923
      49A     -0.578216    50A     -0.569561    51A     -0.542059
      52A     -0.460476    53A     -0.443029    54A     -0.438931
      55A     -0.437236    56A     -0.435516    57A     -0.431919

  @DF-RHF Final Energy: -5448.56489933894227

   => Energetics <=

    Nuclear Repulsion Energy =            771.0342319699466316
    One-Electron Energy =               -9115.3416049887709960
    Two-Electron Energy =                2895.7424736798830054
    Total Energy =                      -5448.5648993389413590
  Basis Set: (AUG-CC-PVTZ AUX)
    Blend: AUG-CC-PVTZ-RI
    Molecular point group: c1

    Geometry (in Angstrom), charge = 0, multiplicity = 1:

       Center              X                  Y                   Z               Mass
    ------------   -----------------  -----------------  -----------------  -----------------
         BR          -3.571381849676     0.235463202598    -0.002483390952    78.918337600000
         BR           3.571381150324    -0.235464797402    -0.002483390952    78.918337600000
         O           -1.706392849676    -1.855636797402    -0.002479390952    15.994914619570
         O            1.706396150324     1.855639202598    -0.002479390952    15.994914619570
         C           -0.678296049676     0.346742102598     0.047529609048    12.000000000000
         C            0.678296150324    -0.346738797402    -0.002470390952    12.000000000000
         C           -1.795563849676    -0.660391797402    -0.002478390952    12.000000000000
         C            1.795564150324     0.660395202598    -0.002478390952    12.000000000000
         H           -0.805348849676     0.994923202598    -0.875931390952     1.007825032230
         H           -0.805353849676     0.994911202598     0.870999609048     1.007825032230
         H            0.805347150324    -0.994918797402    -0.875932390952     1.007825032230
         H            0.805353150324    -0.994908797402     0.870997609048     1.007825032230

  Basis Set: AUG-CC-PVTZ
    Blend: AUG-CC-PVTZ
  Basis Set: (AUG-CC-PVTZ AUX)
    Blend: AUG-CC-PVTZ-JKFIT
	 Reference Energy          =   -5448.5648993389422685 [Eh]
	 Singles Energy            =      -0.0000000000000000 [Eh]
	 Same-Spin Energy          =      -0.4824082634697154 [Eh]
	 Opposite-Spin Energy      =      -1.3312817204355425 [Eh]
	 Correlation Energy        =      -1.8136899839052578 [Eh]
	 Total Energy              =   -5450.3785893228478017 [Eh]

	 ================> DF-SCS-MP2 Energies <==================
	-----------------------------------------------------------
	 SCS Same-Spin Scale       =       0.3333333333333333 [-]
	 SCS Opposite-Spin Scale   =       1.2000000000000000 [-]
	 SCS Same-Spin Energy      =      -0.1608027544899051 [Eh]
	 SCS Opposite-Spin Energy  =      -1.5975380645226509 [Eh]
	 SCS Correlation Energy    =      -1.7583408190125560 [Eh]
	 SCS Total Energy          =   -5450.3232401579543875 [Eh]
	-----------------------------------------------------------

  Dipole Moment: [D]
     X:     0.0021      Y:    -0.0013      Z:     0.0234     Total:     0.0235

*** Psi4 exiting successfully. Buy a developer a beer!
