                               Psi4 1.3.2 release

  ==> Input File <==

--------------------------------------------------------------------------
#psi4
#
memory 32 gb

molecule  {
0 1
 Br       -3.5713820     0.2354630    -0.0000030
 Br        3.5713810    -0.2354650    -0.0000030
  O       -1.7063930    -1.8556370     0.0000010
  O        1.7063960     1.8556390     0.0000010
  C       -0.6782971     0.3467415     0.2500100
  C        0.6782960    -0.3467390     0.0000100
  C       -1.7955640    -0.6603920     0.0000020
  C        1.7955640     0.6603950     0.0000020
  H       -0.8053490     0.9949230    -0.8734510
  H       -0.8053540     0.9949110     0.8734800
  H        0.8053470    -0.9949190    -0.8734520
  H        0.8053530    -0.9949090     0.8734780
units angstrom
no_reorient  #important for SAPT in psi4, default
symmetry c1  #important for SAPT in psi4, default
}

set PROPERTIES_ORIGIN ["COM"]
properties('MP2/aug-cc-pvtz', properties = ['dipole'])
--------------------------------------------------------------------------

    Molecular point group: c1
  Charge       = 0
  Multiplicity = 1
  Basis Set: AUG-CC-PVTZ
    Blend: AUG-CC-PVTZ
  Basis Set: (AUG-CC-PVTZ AUX)
    Blend: AUG-CC-PVTZ-JKFIT

    Orbital Energies [Eh]
    ---------------------

    Doubly Occupied:

       1A   -490.042595     2A   -490.042127     3A    -65.182471
       4A    -65.181993     5A    -58.537678     6A    -58.537210
       7A    -58.536416     8A    -58.536281     9A    -58.535931
      10A    -58.535797    11A    -20.618473    12A    -20.617759
      13A    -11.432682    14A    -11.429499    15A    -11.304485
      16A    -11.302274    17A     -9.855115    18A     -9.854635
      19A     -7.466237    20A     -7.465793    21A     -7.460248
      22A     -7.459740    23A     -7.459688    24A     -7.459181
      25A     -3.209758    26A     -3.209332    27A     -3.206845
      28A     -3.206391    29A     -3.206079    30A     -3.205627
      31A     -3.198438    32A     -3.198420    33A     -3.197897
      34A     -3.197878    35A     -1.459806    36A     -1.458441
      37A     -1.138456    38A     -1.068657    39A     -1.038185
      40A     -0.969617    41A     -0.808135    42A     -0.787984
      43A     -0.719231    44A     -0.694412    45A     -0.685011
      46A     -0.653917    47A     -0.642790    48A     -0.624786
      49A     -0.592291    50A     -0.567245    51A     -0.502422
      52A     -0.460236    53A     -0.443053    54A     -0.438895
      55A     -0.437384    56A     -0.434523    57A     -0.429970

  @DF-RHF Final Energy: -5448.50012772999617

   => Energetics <=

    Nuclear Repulsion Energy =            770.5280660649319771
    One-Electron Energy =               -9114.1635486229297385
    Two-Electron Energy =                2895.1353548280026189
    Total Energy =                      -5448.5001277299961657
  Basis Set: (AUG-CC-PVTZ AUX)
    Blend: AUG-CC-PVTZ-RI
    Molecular point group: c1

    Geometry (in Angstrom), charge = 0, multiplicity = 1:

       Center              X                  Y                   Z               Mass
    ------------   -----------------  -----------------  -----------------  -----------------
         BR          -3.571381805022     0.235463222444    -0.012406577034    78.918337600000
         BR           3.571381194978    -0.235464777556    -0.012406577034    78.918337600000
         O           -1.706392805022    -1.855636777556    -0.012402577034    15.994914619570
         O            1.706396194978     1.855639222444    -0.012402577034    15.994914619570
         C           -0.678296905022     0.346741722444     0.237606422966    12.000000000000
         C            0.678296194978    -0.346738777556    -0.012393577034    12.000000000000
         C           -1.795563805022    -0.660391777556    -0.012401577034    12.000000000000
         C            1.795564194978     0.660395222444    -0.012401577034    12.000000000000
         H           -0.805348805022     0.994923222444    -0.885854577034     1.007825032230
         H           -0.805353805022     0.994911222444     0.861076422966     1.007825032230
         H            0.805347194978    -0.994918777556    -0.885855577034     1.007825032230
         H            0.805353194978    -0.994908777556     0.861074422966     1.007825032230

  Basis Set: AUG-CC-PVTZ
    Blend: AUG-CC-PVTZ
  Basis Set: (AUG-CC-PVTZ AUX)
    Blend: AUG-CC-PVTZ-JKFIT
	 Reference Energy          =   -5448.5001277299961657 [Eh]
	 Singles Energy            =      -0.0000000000000000 [Eh]
	 Same-Spin Energy          =      -0.4833866281612738 [Eh]
	 Opposite-Spin Energy      =      -1.3345797672692146 [Eh]
	 Correlation Energy        =      -1.8179663954304883 [Eh]
	 Total Energy              =   -5450.3180941254267964 [Eh]

	 ================> DF-SCS-MP2 Energies <==================
	-----------------------------------------------------------
	 SCS Same-Spin Scale       =       0.3333333333333333 [-]
	 SCS Opposite-Spin Scale   =       1.2000000000000000 [-]
	 SCS Same-Spin Energy      =      -0.1611288760537579 [Eh]
	 SCS Opposite-Spin Energy  =      -1.6014957207230573 [Eh]
	 SCS Correlation Energy    =      -1.7626245967768153 [Eh]
	 SCS Total Energy          =   -5450.2627523267728975 [Eh]
	-----------------------------------------------------------

  Dipole Moment: [D]
     X:     0.0503      Y:    -0.0290      Z:     0.1120     Total:     0.1261

*** Psi4 exiting successfully. Buy a developer a beer!
