                               Psi4 1.3.2 release

  ==> Input File <==

--------------------------------------------------------------------------
#psi4
#
memory 32 gb

molecule  {
0 1
 Br       -3.5713820     0.2354630    -0.0000030
 Br        3.5713810    -0.2354650    -0.0000030
  O       -1.7063930    -1.8556370     0.0000010
  O        1.7063960     1.8556390     0.0000010
  C       -0.6782967     0.3467417     0.1500100
  C        0.6782960    -0.3467390     0.0000100
  C       -1.7955640    -0.6603920     0.0000020
  C        1.7955640     0.6603950     0.0000020
  H       -0.8053490     0.9949230    -0.8734510
  H       -0.8053540     0.9949110     0.8734800
  H        0.8053470    -0.9949190    -0.8734520
  H        0.8053530    -0.9949090     0.8734780
units angstrom
no_reorient  #important for SAPT in psi4, default
symmetry c1  #important for SAPT in psi4, default
}

set PROPERTIES_ORIGIN ["COM"]
properties('MP2/aug-cc-pvtz', properties = ['dipole'])
--------------------------------------------------------------------------

    Molecular point group: c1
  Charge       = 0
  Multiplicity = 1
  Basis Set: AUG-CC-PVTZ
    Blend: AUG-CC-PVTZ
  Basis Set: (AUG-CC-PVTZ AUX)
    Blend: AUG-CC-PVTZ-JKFIT

    Orbital Energies [Eh]
    ---------------------

    Doubly Occupied:

       1A   -490.042372     2A   -490.042200     3A    -65.182249
       4A    -65.182074     5A    -58.537456     6A    -58.537284
       7A    -58.536195     8A    -58.536059     9A    -58.536016
      10A    -58.535882    11A    -20.618261    12A    -20.617999
      13A    -11.430463    14A    -11.429292    15A    -11.300056
      16A    -11.299105    17A     -9.854894    18A     -9.854718
      19A     -7.466016    20A     -7.465853    21A     -7.460028
      22A     -7.459841    23A     -7.459469    24A     -7.459283
      25A     -3.209537    26A     -3.209380    27A     -3.206624
      28A     -3.206457    29A     -3.205859    30A     -3.205693
      31A     -3.198219    32A     -3.198200    33A     -3.198020
      34A     -3.198001    35A     -1.459771    36A     -1.458418
      37A     -1.138973    38A     -1.068548    39A     -1.038200
      40A     -0.967058    41A     -0.795239    42A     -0.788053
      43A     -0.716317    44A     -0.698217    45A     -0.684415
      46A     -0.651774    47A     -0.640750    48A     -0.624187
      49A     -0.587124    50A     -0.568039    51A     -0.524395
      52A     -0.460397    53A     -0.443038    54A     -0.438889
      55A     -0.437320    56A     -0.435183    57A     -0.431338

  @DF-RHF Final Energy: -5448.54349714658565

   => Energetics <=

    Nuclear Repulsion Energy =            770.8646140850778465
    One-Electron Energy =               -9114.9468262171503739
    Two-Electron Energy =                2895.5387149854868767
    Total Energy =                      -5448.5434971465856506
  Basis Set: (AUG-CC-PVTZ AUX)
    Blend: AUG-CC-PVTZ-RI
    Molecular point group: c1

    Geometry (in Angstrom), charge = 0, multiplicity = 1:

       Center              X                  Y                   Z               Mass
    ------------   -----------------  -----------------  -----------------  -----------------
         BR          -3.571381824868     0.235463212521    -0.007444983993    78.918337600000
         BR           3.571381175132    -0.235464787479    -0.007444983993    78.918337600000
         O           -1.706392824868    -1.855636787479    -0.007440983993    15.994914619570
         O            1.706396175132     1.855639212521    -0.007440983993    15.994914619570
         C           -0.678296524868     0.346741912521     0.142568016007    12.000000000000
         C            0.678296175132    -0.346738787479    -0.007431983993    12.000000000000
         C           -1.795563824868    -0.660391787479    -0.007439983993    12.000000000000
         C            1.795564175132     0.660395212521    -0.007439983993    12.000000000000
         H           -0.805348824868     0.994923212521    -0.880892983993     1.007825032230
         H           -0.805353824868     0.994911212521     0.866038016007     1.007825032230
         H            0.805347175132    -0.994918787479    -0.880893983993     1.007825032230
         H            0.805353175132    -0.994908787479     0.866036016007     1.007825032230

  Basis Set: AUG-CC-PVTZ
    Blend: AUG-CC-PVTZ
  Basis Set: (AUG-CC-PVTZ AUX)
    Blend: AUG-CC-PVTZ-JKFIT
	 Reference Energy          =   -5448.5434971465856506 [Eh]
	 Singles Energy            =      -0.0000000000000000 [Eh]
	 Same-Spin Energy          =      -0.4827305907037627 [Eh]
	 Opposite-Spin Energy      =      -1.3323598666310090 [Eh]
	 Correlation Energy        =      -1.8150904573347717 [Eh]
	 Total Energy              =   -5450.3585876039205687 [Eh]

	 ================> DF-SCS-MP2 Energies <==================
	-----------------------------------------------------------
	 SCS Same-Spin Scale       =       0.3333333333333333 [-]
	 SCS Opposite-Spin Scale   =       1.2000000000000000 [-]
	 SCS Same-Spin Energy      =      -0.1609101969012542 [Eh]
	 SCS Opposite-Spin Energy  =      -1.5988318399572108 [Eh]
	 SCS Correlation Energy    =      -1.7597420368584651 [Eh]
	 SCS Total Energy          =   -5450.3032391834440205 [Eh]
	-----------------------------------------------------------

  Dipole Moment: [D]
     X:     0.0188      Y:    -0.0115      Z:     0.0694     Total:     0.0728

*** Psi4 exiting successfully. Buy a developer a beer!
