                               Psi4 1.3.2 release

  ==> Input File <==

--------------------------------------------------------------------------
#psi4
#
memory 32 gb

molecule  {
0 1
 Br       -3.5713820     0.2354630    -0.0000030
 Br        3.5713810    -0.2354650    -0.0000030
  O       -1.7063930    -1.8556370     0.0000010
  O        1.7063960     1.8556390     0.0000010
  C       -0.6782969     0.3467416     0.2000100
  C        0.6782960    -0.3467390     0.0000100
  C       -1.7955640    -0.6603920     0.0000020
  C        1.7955640     0.6603950     0.0000020
  H       -0.8053490     0.9949230    -0.8734510
  H       -0.8053540     0.9949110     0.8734800
  H        0.8053470    -0.9949190    -0.8734520
  H        0.8053530    -0.9949090     0.8734780
units angstrom
no_reorient  #important for SAPT in psi4, default
symmetry c1  #important for SAPT in psi4, default
}

set PROPERTIES_ORIGIN ["COM"]
properties('MP2/aug-cc-pvtz', properties = ['dipole'])
--------------------------------------------------------------------------

    Molecular point group: c1
  Charge       = 0
  Multiplicity = 1
  Basis Set: AUG-CC-PVTZ
    Blend: AUG-CC-PVTZ
  Basis Set: (AUG-CC-PVTZ AUX)
    Blend: AUG-CC-PVTZ-JKFIT

    Orbital Energies [Eh]
    ---------------------

    Doubly Occupied:

       1A   -490.042470     2A   -490.042167     3A    -65.182346
       4A    -65.182037     5A    -58.537553     6A    -58.537250
       7A    -58.536292     8A    -58.536157     9A    -58.535978
      10A    -58.535843    11A    -20.618355    12A    -20.617894
      13A    -11.431446    14A    -11.429384    15A    -11.301980
      16A    -11.300524    17A     -9.854991    18A     -9.854681
      19A     -7.466114    20A     -7.465826    21A     -7.460124
      22A     -7.459796    23A     -7.459566    24A     -7.459237
      25A     -3.209634    26A     -3.209358    27A     -3.206721
      28A     -3.206427    29A     -3.205956    30A     -3.205663
      31A     -3.198315    32A     -3.198297    33A     -3.197965
      34A     -3.197946    35A     -1.459786    36A     -1.458432
      37A     -1.138739    38A     -1.068586    39A     -1.038191
      40A     -0.968125    41A     -0.801179    42A     -0.788031
      43A     -0.717883    44A     -0.696262    45A     -0.684655
      46A     -0.652671    47A     -0.641815    48A     -0.624677
      49A     -0.590237    50A     -0.567637    51A     -0.513513
      52A     -0.460328    53A     -0.443045    54A     -0.438879
      55A     -0.437360    56A     -0.434899    57A     -0.430774

  @DF-RHF Final Energy: -5448.52460033046555

   => Energetics <=

    Nuclear Repulsion Energy =            770.7169634819263138
    One-Electron Energy =               -9114.6031308196634200
    Two-Electron Energy =                2895.3615670072722423
    Total Energy =                      -5448.5246003304655460
  Basis Set: (AUG-CC-PVTZ AUX)
    Blend: AUG-CC-PVTZ-RI
    Molecular point group: c1

    Geometry (in Angstrom), charge = 0, multiplicity = 1:

       Center              X                  Y                   Z               Mass
    ------------   -----------------  -----------------  -----------------  -----------------
         BR          -3.571381814945     0.235463217483    -0.009925780513    78.918337600000
         BR           3.571381185055    -0.235464782517    -0.009925780513    78.918337600000
         O           -1.706392814945    -1.855636782517    -0.009921780513    15.994914619570
         O            1.706396185055     1.855639217483    -0.009921780513    15.994914619570
         C           -0.678296714945     0.346741817483     0.190087219487    12.000000000000
         C            0.678296185055    -0.346738782517    -0.009912780513    12.000000000000
         C           -1.795563814945    -0.660391782517    -0.009920780513    12.000000000000
         C            1.795564185055     0.660395217483    -0.009920780513    12.000000000000
         H           -0.805348814945     0.994923217483    -0.883373780513     1.007825032230
         H           -0.805353814945     0.994911217483     0.863557219487     1.007825032230
         H            0.805347185055    -0.994918782517    -0.883374780513     1.007825032230
         H            0.805353185055    -0.994908782517     0.863555219487     1.007825032230

  Basis Set: AUG-CC-PVTZ
    Blend: AUG-CC-PVTZ
  Basis Set: (AUG-CC-PVTZ AUX)
    Blend: AUG-CC-PVTZ-JKFIT
	 Reference Energy          =   -5448.5246003304655460 [Eh]
	 Singles Energy            =      -0.0000000000000000 [Eh]
	 Same-Spin Energy          =      -0.4830159630129366 [Eh]
	 Opposite-Spin Energy      =      -1.3333239360904710 [Eh]
	 Correlation Energy        =      -1.8163398991034074 [Eh]
	 Total Energy              =   -5450.3409402295692416 [Eh]

	 ================> DF-SCS-MP2 Energies <==================
	-----------------------------------------------------------
	 SCS Same-Spin Scale       =       0.3333333333333333 [-]
	 SCS Opposite-Spin Scale   =       1.2000000000000000 [-]
	 SCS Same-Spin Energy      =      -0.1610053210043122 [Eh]
	 SCS Opposite-Spin Energy  =      -1.5999887233085650 [Eh]
	 SCS Correlation Energy    =      -1.7609940443128771 [Eh]
	 SCS Total Energy          =   -5450.2855943747781566 [Eh]
	-----------------------------------------------------------

  Dipole Moment: [D]
     X:     0.0329      Y:    -0.0196      Z:     0.0914     Total:     0.0991

*** Psi4 exiting successfully. Buy a developer a beer!
