                               Psi4 1.3.2 release

  ==> Input File <==

--------------------------------------------------------------------------
#psi4
#
memory 32 gb

molecule  {
0 1
 Br       -3.5713820     0.2354630    -0.0000030
 Br        3.5713810    -0.2354650    -0.0000030
  O       -1.7063930    -1.8556370     0.0000010
  O        1.7063960     1.8556390     0.0000010
  C       -0.6782964     0.3467418     0.1000100
  C        0.6782960    -0.3467390     0.0000100
  C       -1.7955640    -0.6603920     0.0000020
  C        1.7955640     0.6603950     0.0000020
  H       -0.8053490     0.9949230    -0.8734510
  H       -0.8053540     0.9949110     0.8734800
  H        0.8053470    -0.9949190    -0.8734520
  H        0.8053530    -0.9949090     0.8734780
units angstrom
no_reorient  #important for SAPT in psi4, default
symmetry c1  #important for SAPT in psi4, default
}

set PROPERTIES_ORIGIN ["COM"]
properties('MP2/aug-cc-pvtz', properties = ['dipole'])
--------------------------------------------------------------------------

    Molecular point group: c1
  Charge       = 0
  Multiplicity = 1
  Basis Set: AUG-CC-PVTZ
    Blend: AUG-CC-PVTZ
  Basis Set: (AUG-CC-PVTZ AUX)
    Blend: AUG-CC-PVTZ-JKFIT

    Orbital Energies [Eh]
    ---------------------

    Doubly Occupied:

       1A   -490.042301     2A   -490.042225     3A    -65.182179
       4A    -65.182101     5A    -58.537386     6A    -58.537309
       7A    -58.536125     8A    -58.536045     9A    -58.535990
      10A    -58.535910    11A    -20.618191    12A    -20.618074
      13A    -11.429749    14A    -11.429226    15A    -11.298727
      16A    -11.298031    17A     -9.854824    18A     -9.854745
      19A     -7.465947    20A     -7.465874    21A     -7.459958
      22A     -7.459875    23A     -7.459400    24A     -7.459317
      25A     -3.209467    26A     -3.209397    27A     -3.206554
      28A     -3.206479    29A     -3.205789    30A     -3.205715
      31A     -3.198149    32A     -3.198131    33A     -3.198061
      34A     -3.198042    35A     -1.459761    36A     -1.458405
      37A     -1.139148    38A     -1.068531    39A     -1.038208
      40A     -0.966352    41A     -0.790774    42A     -0.788012
      43A     -0.714662    44A     -0.700139    45A     -0.684266
      46A     -0.651220    47A     -0.639851    48A     -0.623504
      49A     -0.582932    50A     -0.568583    51A     -0.534352
      52A     -0.460446    53A     -0.443032    54A     -0.438911
      55A     -0.437274    56A     -0.435389    57A     -0.431709

  @DF-RHF Final Energy: -5448.55690072414563

   => Energetics <=

    Nuclear Repulsion Energy =            770.9705094930741325
    One-Electron Energy =               -9115.1933099273737753
    Two-Electron Energy =                2895.6658997101535533
    Total Energy =                      -5448.5569007241465442
  Basis Set: (AUG-CC-PVTZ AUX)
    Blend: AUG-CC-PVTZ-RI
    Molecular point group: c1

    Geometry (in Angstrom), charge = 0, multiplicity = 1:

       Center              X                  Y                   Z               Mass
    ------------   -----------------  -----------------  -----------------  -----------------
         BR          -3.571381839753     0.235463207560    -0.004964187473    78.918337600000
         BR           3.571381160247    -0.235464792440    -0.004964187473    78.918337600000
         O           -1.706392839753    -1.855636792440    -0.004960187473    15.994914619570
         O            1.706396160247     1.855639207560    -0.004960187473    15.994914619570
         C           -0.678296239753     0.346742007560     0.095048812527    12.000000000000
         C            0.678296160247    -0.346738792440    -0.004951187473    12.000000000000
         C           -1.795563839753    -0.660391792440    -0.004959187473    12.000000000000
         C            1.795564160247     0.660395207560    -0.004959187473    12.000000000000
         H           -0.805348839753     0.994923207560    -0.878412187473     1.007825032230
         H           -0.805353839753     0.994911207560     0.868518812527     1.007825032230
         H            0.805347160247    -0.994918792440    -0.878413187473     1.007825032230
         H            0.805353160247    -0.994908792440     0.868516812527     1.007825032230

  Basis Set: AUG-CC-PVTZ
    Blend: AUG-CC-PVTZ
  Basis Set: (AUG-CC-PVTZ AUX)
    Blend: AUG-CC-PVTZ-JKFIT
	 Reference Energy          =   -5448.5569007241456347 [Eh]
	 Singles Energy            =      -0.0000000000000000 [Eh]
	 Same-Spin Energy          =      -0.4825285814197181 [Eh]
	 Opposite-Spin Energy      =      -1.3316823155183366 [Eh]
	 Correlation Energy        =      -1.8142108969380546 [Eh]
	 Total Energy              =   -5450.3711116210834007 [Eh]

	 ================> DF-SCS-MP2 Energies <==================
	-----------------------------------------------------------
	 SCS Same-Spin Scale       =       0.3333333333333333 [-]
	 SCS Opposite-Spin Scale   =       1.2000000000000000 [-]
	 SCS Same-Spin Energy      =      -0.1608428604732393 [Eh]
	 SCS Opposite-Spin Energy  =      -1.5980187786220039 [Eh]
	 SCS Correlation Energy    =      -1.7588616390952432 [Eh]
	 SCS Total Energy          =   -5450.3157623632405375 [Eh]
	-----------------------------------------------------------

  Dipole Moment: [D]
     X:     0.0084      Y:    -0.0053      Z:     0.0466     Total:     0.0476

*** Psi4 exiting successfully. Buy a developer a beer!
