                               Psi4 1.3.2 release

  ==> Input File <==

--------------------------------------------------------------------------
#psi4
#
memory 32 gb

molecule  {
0 1
  O        1.7312310    -0.2769730     0.0000590
  O       -1.7312320     0.2769720     0.0000220
  O        0.5576720     1.6786530    -0.0001670
  O       -0.5576690    -1.6786520    -0.0003240
  C        2.9581590     0.5011960     0.0001010
  C       -2.9581610    -0.5011970    -0.0000370
  C        4.0961590    -0.4920900     0.0002650
  C       -4.0961600     0.4920910     0.0001910
  C        0.6121100     0.4612570    -0.0000760
  C       -0.6121227    -0.4612479     0.1498560
  H        2.9624380     1.1440920    -0.8842080
  H        2.9622950     1.1442210     0.8843180
  H       -2.9624180    -1.1440100    -0.8844060
  H       -2.9623190    -1.1443030     0.8841200
  H        5.0512870     0.0405180     0.0003010
  H        4.0503980    -1.1272370     0.8870460
  H        4.0505370    -1.1273680    -0.8864290
  H       -5.0512890    -0.0405160     0.0001540
  H       -4.0504200     1.1271560     0.8870320
  H       -4.0505160     1.1274510    -0.8864430
units angstrom
no_reorient  #important for SAPT in psi4, default
symmetry c1  #important for SAPT in psi4, default
}

set PROPERTIES_ORIGIN ["COM"]
properties('MP2/aug-cc-pvtz', properties = ['dipole'])
--------------------------------------------------------------------------

    Molecular point group: c1
  Charge       = 0
  Multiplicity = 1
  Basis Set: AUG-CC-PVTZ
    Blend: AUG-CC-PVTZ
  Basis Set: (AUG-CC-PVTZ AUX)
    Blend: AUG-CC-PVTZ-JKFIT

    Orbital Energies [Eh]
    ---------------------

    Doubly Occupied:

       1A    -20.619670     2A    -20.618752     3A    -20.574194
       4A    -20.572343     5A    -11.410318     6A    -11.409372
       7A    -11.299759     8A    -11.298754     9A    -11.230027
      10A    -11.229359    11A     -1.485632    12A     -1.457232
      13A     -1.380484    14A     -1.364199    15A     -1.060862
      16A     -1.047051    17A     -0.944355    18A     -0.874788
      19A     -0.830998    20A     -0.786719    21A     -0.742860
      22A     -0.703375    23A     -0.701078    24A     -0.683170
      25A     -0.679157    26A     -0.611233    27A     -0.608042
      28A     -0.578130    29A     -0.574785    30A     -0.559899
      31A     -0.547154    32A     -0.524369    33A     -0.523567
      34A     -0.521847    35A     -0.519706    36A     -0.510130
      37A     -0.475081    38A     -0.465167    39A     -0.447571

  @DF-RHF Final Energy:  -532.68499974582289

   => Energetics <=

    Nuclear Repulsion Energy =            540.1014480441189107
    One-Electron Energy =               -1800.6305203130646078
    Two-Electron Energy =                 727.8440725231226907
    Total Energy =                       -532.6849997458228927
  Basis Set: (AUG-CC-PVTZ AUX)
    Blend: AUG-CC-PVTZ-RI
    Molecular point group: c1

    Geometry (in Angstrom), charge = 0, multiplicity = 1:

       Center              X                  Y                   Z               Mass
    ------------   -----------------  -----------------  -----------------  -----------------
         O            1.731232119179    -0.276973775249    -0.012254874134    15.994914619570
         O           -1.731230880821     0.276971224751    -0.012291874134    15.994914619570
         O            0.557673119179     1.678652224751    -0.012480874134    15.994914619570
         O           -0.557667880821    -1.678652775249    -0.012637874134    15.994914619570
         C            2.958160119179     0.501195224751    -0.012212874134    12.000000000000
         C           -2.958159880821    -0.501197775249    -0.012350874134    12.000000000000
         C            4.096160119179    -0.492090775249    -0.012048874134    12.000000000000
         C           -4.096158880821     0.492090224751    -0.012122874134    12.000000000000
         C            0.612111119179     0.461256224751    -0.012389874134    12.000000000000
         C           -0.612121580821    -0.461248675249     0.137542125866    12.000000000000
         H            2.962439119179     1.144091224751    -0.896521874134     1.007825032230
         H            2.962296119179     1.144220224751     0.872004125866     1.007825032230
         H           -2.962416880821    -1.144010775249    -0.896719874134     1.007825032230
         H           -2.962317880821    -1.144303775249     0.871806125866     1.007825032230
         H            5.051288119179     0.040517224751    -0.012012874134     1.007825032230
         H            4.050399119179    -1.127237775249     0.874732125866     1.007825032230
         H            4.050538119179    -1.127368775249    -0.898742874134     1.007825032230
         H           -5.051287880821    -0.040516775249    -0.012159874134     1.007825032230
         H           -4.050418880821     1.127155224751     0.874718125866     1.007825032230
         H           -4.050514880821     1.127450224751    -0.898756874134     1.007825032230

  Basis Set: AUG-CC-PVTZ
    Blend: AUG-CC-PVTZ
  Basis Set: (AUG-CC-PVTZ AUX)
    Blend: AUG-CC-PVTZ-JKFIT
	 Reference Energy          =    -532.6849997458228927 [Eh]
	 Singles Energy            =      -0.0000000000000000 [Eh]
	 Same-Spin Energy          =      -0.5163657080823112 [Eh]
	 Opposite-Spin Energy      =      -1.6284027219065109 [Eh]
	 Correlation Energy        =      -2.1447684299888223 [Eh]
	 Total Energy              =    -534.8297681758117506 [Eh]

	 ================> DF-SCS-MP2 Energies <==================
	-----------------------------------------------------------
	 SCS Same-Spin Scale       =       0.3333333333333333 [-]
	 SCS Opposite-Spin Scale   =       1.2000000000000000 [-]
	 SCS Same-Spin Energy      =      -0.1721219026941037 [Eh]
	 SCS Opposite-Spin Energy  =      -1.9540832662878129 [Eh]
	 SCS Correlation Energy    =      -2.1262051689819166 [Eh]
	 SCS Total Energy          =    -534.8112049148047618 [Eh]
	-----------------------------------------------------------

  Dipole Moment: [D]
     X:     0.0445      Y:    -0.0077      Z:     0.1857     Total:     0.1911

*** Psi4 exiting successfully. Buy a developer a beer!
