                               Psi4 1.3.2 release

  ==> Input File <==

--------------------------------------------------------------------------
#psi4
#
memory 32 gb

molecule  {
0 1
  O        1.7312310    -0.2769730     0.0000590
  O       -1.7312320     0.2769720     0.0000220
  O        0.5576720     1.6786530    -0.0001670
  O       -0.5576690    -1.6786520    -0.0003240
  C        2.9581590     0.5011960     0.0001010
  C       -2.9581610    -0.5011970    -0.0000370
  C        4.0961590    -0.4920900     0.0002650
  C       -4.0961600     0.4920910     0.0001910
  C        0.6121100     0.4612570    -0.0000760
  C       -0.6121319    -0.4612418     0.2498560
  H        2.9624380     1.1440920    -0.8842080
  H        2.9622950     1.1442210     0.8843180
  H       -2.9624180    -1.1440100    -0.8844060
  H       -2.9623190    -1.1443030     0.8841200
  H        5.0512870     0.0405180     0.0003010
  H        4.0503980    -1.1272370     0.8870460
  H        4.0505370    -1.1273680    -0.8864290
  H       -5.0512890    -0.0405160     0.0001540
  H       -4.0504200     1.1271560     0.8870320
  H       -4.0505160     1.1274510    -0.8864430
units angstrom
no_reorient  #important for SAPT in psi4, default
symmetry c1  #important for SAPT in psi4, default
}

set PROPERTIES_ORIGIN ["COM"]
properties('MP2/aug-cc-pvtz', properties = ['dipole'])
--------------------------------------------------------------------------

    Molecular point group: c1
  Charge       = 0
  Multiplicity = 1
  Basis Set: AUG-CC-PVTZ
    Blend: AUG-CC-PVTZ
  Basis Set: (AUG-CC-PVTZ AUX)
    Blend: AUG-CC-PVTZ-JKFIT

    Orbital Energies [Eh]
    ---------------------

    Doubly Occupied:

       1A    -20.620054     2A    -20.617363     3A    -20.578049
       4A    -20.572944     5A    -11.414334     6A    -11.412493
       7A    -11.300169     8A    -11.297357     9A    -11.230318
      10A    -11.228442    11A     -1.483202    12A     -1.453057
      13A     -1.378638    14A     -1.358384    15A     -1.059400
      16A     -1.045724    17A     -0.941505    18A     -0.873712
      19A     -0.830327    20A     -0.785952    21A     -0.738808
      22A     -0.702741    23A     -0.699235    24A     -0.681426
      25A     -0.677279    26A     -0.610929    27A     -0.606143
      28A     -0.577502    29A     -0.573065    30A     -0.559496
      31A     -0.546026    32A     -0.524587    33A     -0.522998
      34A     -0.521181    35A     -0.518540    36A     -0.508106
      37A     -0.474445    38A     -0.462820    39A     -0.446606

  @DF-RHF Final Energy:  -532.66589437045775

   => Energetics <=

    Nuclear Repulsion Energy =            539.3939090017166791
    One-Electron Energy =               -1799.2528929411755598
    Two-Electron Energy =                 727.1930895690012449
    Total Energy =                       -532.6658943704577496
  Basis Set: (AUG-CC-PVTZ AUX)
    Blend: AUG-CC-PVTZ-RI
    Molecular point group: c1

    Geometry (in Angstrom), charge = 0, multiplicity = 1:

       Center              X                  Y                   Z               Mass
    ------------   -----------------  -----------------  -----------------  -----------------
         O            1.731232875044    -0.276974276420    -0.020470793489    15.994914619570
         O           -1.731230124956     0.276970723580    -0.020507793489    15.994914619570
         O            0.557673875044     1.678651723580    -0.020696793489    15.994914619570
         O           -0.557667124956    -1.678653276420    -0.020853793489    15.994914619570
         C            2.958160875044     0.501194723580    -0.020428793489    12.000000000000
         C           -2.958159124956    -0.501198276420    -0.020566793489    12.000000000000
         C            4.096160875044    -0.492091276420    -0.020264793489    12.000000000000
         C           -4.096158124956     0.492089723580    -0.020338793489    12.000000000000
         C            0.612111875044     0.461255723580    -0.020605793489    12.000000000000
         C           -0.612130024956    -0.461243076420     0.229326206511    12.000000000000
         H            2.962439875044     1.144090723580    -0.904737793489     1.007825032230
         H            2.962296875044     1.144219723580     0.863788206511     1.007825032230
         H           -2.962416124956    -1.144011276420    -0.904935793489     1.007825032230
         H           -2.962317124956    -1.144304276420     0.863590206511     1.007825032230
         H            5.051288875044     0.040516723580    -0.020228793489     1.007825032230
         H            4.050399875044    -1.127238276420     0.866516206511     1.007825032230
         H            4.050538875044    -1.127369276420    -0.906958793489     1.007825032230
         H           -5.051287124956    -0.040517276420    -0.020375793489     1.007825032230
         H           -4.050418124956     1.127154723580     0.866502206511     1.007825032230
         H           -4.050514124956     1.127449723580    -0.906972793489     1.007825032230

  Basis Set: AUG-CC-PVTZ
    Blend: AUG-CC-PVTZ
  Basis Set: (AUG-CC-PVTZ AUX)
    Blend: AUG-CC-PVTZ-JKFIT
	 Reference Energy          =    -532.6658943704577496 [Eh]
	 Singles Energy            =      -0.0000000000000000 [Eh]
	 Same-Spin Energy          =      -0.5176607010252574 [Eh]
	 Opposite-Spin Energy      =      -1.6318177494612500 [Eh]
	 Correlation Energy        =      -2.1494784504865074 [Eh]
	 Total Energy              =    -534.8153728209442761 [Eh]

	 ================> DF-SCS-MP2 Energies <==================
	-----------------------------------------------------------
	 SCS Same-Spin Scale       =       0.3333333333333333 [-]
	 SCS Opposite-Spin Scale   =       1.2000000000000000 [-]
	 SCS Same-Spin Energy      =      -0.1725535670084191 [Eh]
	 SCS Opposite-Spin Energy  =      -1.9581812993534999 [Eh]
	 SCS Correlation Energy    =      -2.1307348663619190 [Eh]
	 SCS Total Energy          =    -534.7966292368196264 [Eh]
	-----------------------------------------------------------

  Dipole Moment: [D]
     X:     0.1277      Y:    -0.0196      Z:     0.2954     Total:     0.3224

*** Psi4 exiting successfully. Buy a developer a beer!
