                               Psi4 1.3.2 release

  ==> Input File <==

--------------------------------------------------------------------------
#psi4
#
memory 32 gb

molecule  {
0 1
  O        1.7312310    -0.2769730     0.0000590
  O       -1.7312320     0.2769720     0.0000220
  O        0.5576720     1.6786530    -0.0001670
  O       -0.5576690    -1.6786520    -0.0003240
  C        2.9581590     0.5011960     0.0001010
  C       -2.9581610    -0.5011970    -0.0000370
  C        4.0961590    -0.4920900     0.0002650
  C       -4.0961600     0.4920910     0.0001910
  C        0.6121100     0.4612570    -0.0000760
  C       -0.6121273    -0.4612449     0.1998560
  H        2.9624380     1.1440920    -0.8842080
  H        2.9622950     1.1442210     0.8843180
  H       -2.9624180    -1.1440100    -0.8844060
  H       -2.9623190    -1.1443030     0.8841200
  H        5.0512870     0.0405180     0.0003010
  H        4.0503980    -1.1272370     0.8870460
  H        4.0505370    -1.1273680    -0.8864290
  H       -5.0512890    -0.0405160     0.0001540
  H       -4.0504200     1.1271560     0.8870320
  H       -4.0505160     1.1274510    -0.8864430
units angstrom
no_reorient  #important for SAPT in psi4, default
symmetry c1  #important for SAPT in psi4, default
}

set PROPERTIES_ORIGIN ["COM"]
properties('MP2/aug-cc-pvtz', properties = ['dipole'])
--------------------------------------------------------------------------

    Molecular point group: c1
  Charge       = 0
  Multiplicity = 1
  Basis Set: AUG-CC-PVTZ
    Blend: AUG-CC-PVTZ
  Basis Set: (AUG-CC-PVTZ AUX)
    Blend: AUG-CC-PVTZ-JKFIT

    Orbital Energies [Eh]
    ---------------------

    Doubly Occupied:

       1A    -20.619831     2A    -20.618158     3A    -20.575875
       4A    -20.572594     5A    -11.412124     6A    -11.410754
       7A    -11.299936     8A    -11.298142     9A    -11.230152
      10A    -11.228958    11A     -1.484457    12A     -1.455495
      13A     -1.379455    14A     -1.361799    15A     -1.060180
      16A     -1.046497    17A     -0.943092    18A     -0.874308
      19A     -0.830702    20A     -0.786355    21A     -0.741093
      22A     -0.703082    23A     -0.700202    24A     -0.682436
      25A     -0.678362    26A     -0.611104    27A     -0.607159
      28A     -0.577944    29A     -0.573959    30A     -0.559713
      31A     -0.546668    32A     -0.524447    33A     -0.523403
      34A     -0.521503    35A     -0.519168    36A     -0.509228
      37A     -0.474703    38A     -0.464218    39A     -0.447135

  @DF-RHF Final Energy:  -532.67664501911952

   => Energetics <=

    Nuclear Repulsion Energy =            539.7893207433763791
    One-Electron Energy =               -1800.0231533235953520
    Two-Electron Energy =                 727.5571875610993402
    Total Energy =                       -532.6766450191195190
  Basis Set: (AUG-CC-PVTZ AUX)
    Blend: AUG-CC-PVTZ-RI
    Molecular point group: c1

    Geometry (in Angstrom), charge = 0, multiplicity = 1:

       Center              X                  Y                   Z               Mass
    ------------   -----------------  -----------------  -----------------  -----------------
         O            1.731232497111    -0.276974021727    -0.016362833812    15.994914619570
         O           -1.731230502889     0.276970978273    -0.016399833812    15.994914619570
         O            0.557673497111     1.678651978273    -0.016588833812    15.994914619570
         O           -0.557667502889    -1.678653021727    -0.016745833812    15.994914619570
         C            2.958160497111     0.501194978273    -0.016320833812    12.000000000000
         C           -2.958159502889    -0.501198021727    -0.016458833812    12.000000000000
         C            4.096160497111    -0.492091021727    -0.016156833812    12.000000000000
         C           -4.096158502889     0.492089978273    -0.016230833812    12.000000000000
         C            0.612111497111     0.461255978273    -0.016497833812    12.000000000000
         C           -0.612125802889    -0.461245921727     0.183434166188    12.000000000000
         H            2.962439497111     1.144090978273    -0.900629833812     1.007825032230
         H            2.962296497111     1.144219978273     0.867896166188     1.007825032230
         H           -2.962416502889    -1.144011021727    -0.900827833812     1.007825032230
         H           -2.962317502889    -1.144304021727     0.867698166188     1.007825032230
         H            5.051288497111     0.040516978273    -0.016120833812     1.007825032230
         H            4.050399497111    -1.127238021727     0.870624166188     1.007825032230
         H            4.050538497111    -1.127369021727    -0.902850833812     1.007825032230
         H           -5.051287502889    -0.040517021727    -0.016267833812     1.007825032230
         H           -4.050418502889     1.127154978273     0.870610166188     1.007825032230
         H           -4.050514502889     1.127449978273    -0.902864833812     1.007825032230

  Basis Set: AUG-CC-PVTZ
    Blend: AUG-CC-PVTZ
  Basis Set: (AUG-CC-PVTZ AUX)
    Blend: AUG-CC-PVTZ-JKFIT
	 Reference Energy          =    -532.6766450191195190 [Eh]
	 Singles Energy            =      -0.0000000000000000 [Eh]
	 Same-Spin Energy          =      -0.5169329364434396 [Eh]
	 Opposite-Spin Energy      =      -1.6298672951700706 [Eh]
	 Correlation Energy        =      -2.1468002316135104 [Eh]
	 Total Energy              =    -534.8234452507330161 [Eh]

	 ================> DF-SCS-MP2 Energies <==================
	-----------------------------------------------------------
	 SCS Same-Spin Scale       =       0.3333333333333333 [-]
	 SCS Opposite-Spin Scale   =       1.2000000000000000 [-]
	 SCS Same-Spin Energy      =      -0.1723109788144799 [Eh]
	 SCS Opposite-Spin Energy  =      -1.9558407542040845 [Eh]
	 SCS Correlation Energy    =      -2.1281517330185644 [Eh]
	 SCS Total Energy          =    -534.8047967521380315 [Eh]
	-----------------------------------------------------------

  Dipole Moment: [D]
     X:     0.0803      Y:    -0.0132      Z:     0.2426     Total:     0.2558

*** Psi4 exiting successfully. Buy a developer a beer!
