                               Psi4 1.3.2 release

  ==> Input File <==

--------------------------------------------------------------------------
#psi4
#
memory 32 gb

molecule  {
0 1
  O        1.7312310    -0.2769730     0.0000590
  O       -1.7312320     0.2769720     0.0000220
  O        0.5576720     1.6786530    -0.0001670
  O       -0.5576690    -1.6786520    -0.0003240
  C        2.9581590     0.5011960     0.0001010
  C       -2.9581610    -0.5011970    -0.0000370
  C        4.0961590    -0.4920900     0.0002650
  C       -4.0961600     0.4920910     0.0001910
  C        0.6121100     0.4612570    -0.0000760
  C       -0.6121136    -0.4612540     0.0498560
  H        2.9624380     1.1440920    -0.8842080
  H        2.9622950     1.1442210     0.8843180
  H       -2.9624180    -1.1440100    -0.8844060
  H       -2.9623190    -1.1443030     0.8841200
  H        5.0512870     0.0405180     0.0003010
  H        4.0503980    -1.1272370     0.8870460
  H        4.0505370    -1.1273680    -0.8864290
  H       -5.0512890    -0.0405160     0.0001540
  H       -4.0504200     1.1271560     0.8870320
  H       -4.0505160     1.1274510    -0.8864430
units angstrom
no_reorient  #important for SAPT in psi4, default
symmetry c1  #important for SAPT in psi4, default
}

set PROPERTIES_ORIGIN ["COM"]
properties('MP2/aug-cc-pvtz', properties = ['dipole'])
--------------------------------------------------------------------------

    Molecular point group: c1
  Charge       = 0
  Multiplicity = 1
  Basis Set: AUG-CC-PVTZ
    Blend: AUG-CC-PVTZ
  Basis Set: (AUG-CC-PVTZ AUX)
    Blend: AUG-CC-PVTZ-JKFIT

    Orbital Energies [Eh]
    ---------------------

    Doubly Occupied:

       1A    -20.619502     2A    -20.619404     3A    -20.572286
       4A    -20.572081     5A    -11.408246     6A    -11.407672
       7A    -11.299564     8A    -11.299453     9A    -11.229889
      10A    -11.229816    11A     -1.487204    12A     -1.459028
      13A     -1.382242    14A     -1.366513    15A     -1.061722
      16A     -1.047637    17A     -0.945829    18A     -0.875354
      19A     -0.831344    20A     -0.787193    21A     -0.744859
      22A     -0.703704    23A     -0.702257    24A     -0.683947
      25A     -0.680014    26A     -0.611307    27A     -0.609222
      28A     -0.577963    29A     -0.576076    30A     -0.560129
      31A     -0.547689    32A     -0.524168    33A     -0.523565
      34A     -0.522514    35A     -0.520383    36A     -0.511187
      37A     -0.475747    38A     -0.466056    39A     -0.448099

  @DF-RHF Final Energy:  -532.69452958791408

   => Energetics <=

    Nuclear Repulsion Energy =            540.4631989259065676
    One-Electron Energy =               -1801.3337231747420901
    Two-Electron Energy =                 728.1759946609213330
    Total Energy =                       -532.6945295879140758
  Basis Set: (AUG-CC-PVTZ AUX)
    Blend: AUG-CC-PVTZ-RI
    Molecular point group: c1

    Geometry (in Angstrom), charge = 0, multiplicity = 1:

       Center              X                  Y                   Z               Mass
    ------------   -----------------  -----------------  -----------------  -----------------
         O            1.731231371530    -0.276973274078    -0.004038954778    15.994914619570
         O           -1.731231628470     0.276971725922    -0.004075954778    15.994914619570
         O            0.557672371530     1.678652725922    -0.004264954778    15.994914619570
         O           -0.557668628470    -1.678652274078    -0.004421954778    15.994914619570
         C            2.958159371530     0.501195725922    -0.003996954778    12.000000000000
         C           -2.958160628470    -0.501197274078    -0.004134954778    12.000000000000
         C            4.096159371530    -0.492090274078    -0.003832954778    12.000000000000
         C           -4.096159628470     0.492090725922    -0.003906954778    12.000000000000
         C            0.612110371530     0.461256725922    -0.004173954778    12.000000000000
         C           -0.612113228470    -0.461254274078     0.045758045222    12.000000000000
         H            2.962438371530     1.144091725922    -0.888305954778     1.007825032230
         H            2.962295371530     1.144220725922     0.880220045222     1.007825032230
         H           -2.962417628470    -1.144010274078    -0.888503954778     1.007825032230
         H           -2.962318628470    -1.144303274078     0.880022045222     1.007825032230
         H            5.051287371530     0.040517725922    -0.003796954778     1.007825032230
         H            4.050398371530    -1.127237274078     0.882948045222     1.007825032230
         H            4.050537371530    -1.127368274078    -0.890526954778     1.007825032230
         H           -5.051288628470    -0.040516274078    -0.003943954778     1.007825032230
         H           -4.050419628470     1.127155725922     0.882934045222     1.007825032230
         H           -4.050515628470     1.127450725922    -0.890540954778     1.007825032230

  Basis Set: AUG-CC-PVTZ
    Blend: AUG-CC-PVTZ
  Basis Set: (AUG-CC-PVTZ AUX)
    Blend: AUG-CC-PVTZ-JKFIT
	 Reference Energy          =    -532.6945295879140758 [Eh]
	 Singles Energy            =      -0.0000000000000000 [Eh]
	 Same-Spin Energy          =      -0.5157182032041354 [Eh]
	 Opposite-Spin Energy      =      -1.6268501317320951 [Eh]
	 Correlation Energy        =      -2.1425683349362306 [Eh]
	 Total Energy              =    -534.8370979228502620 [Eh]

	 ================> DF-SCS-MP2 Energies <==================
	-----------------------------------------------------------
	 SCS Same-Spin Scale       =       0.3333333333333333 [-]
	 SCS Opposite-Spin Scale   =       1.2000000000000000 [-]
	 SCS Same-Spin Energy      =      -0.1719060677347118 [Eh]
	 SCS Opposite-Spin Energy  =      -1.9522201580785141 [Eh]
	 SCS Correlation Energy    =      -2.1241262258132259 [Eh]
	 SCS Total Energy          =    -534.8186558137273323 [Eh]
	-----------------------------------------------------------

  Dipole Moment: [D]
     X:     0.0048      Y:    -0.0009      Z:     0.0636     Total:     0.0638

*** Psi4 exiting successfully. Buy a developer a beer!
