                               Psi4 1.3.2 release

  ==> Input File <==

--------------------------------------------------------------------------
#psi4
#
memory 32 gb

molecule  {
0 1
  O        1.7312310    -0.2769730     0.0000590
  O       -1.7312320     0.2769720     0.0000220
  O        0.5576720     1.6786530    -0.0001670
  O       -0.5576690    -1.6786520    -0.0003240
  C        2.9581590     0.5011960     0.0001010
  C       -2.9581610    -0.5011970    -0.0000370
  C        4.0961590    -0.4920900     0.0002650
  C       -4.0961600     0.4920910     0.0001910
  C        0.6121100     0.4612570    -0.0000760
  C       -0.6121181    -0.4612509     0.0998560
  H        2.9624380     1.1440920    -0.8842080
  H        2.9622950     1.1442210     0.8843180
  H       -2.9624180    -1.1440100    -0.8844060
  H       -2.9623190    -1.1443030     0.8841200
  H        5.0512870     0.0405180     0.0003010
  H        4.0503980    -1.1272370     0.8870460
  H        4.0505370    -1.1273680    -0.8864290
  H       -5.0512890    -0.0405160     0.0001540
  H       -4.0504200     1.1271560     0.8870320
  H       -4.0505160     1.1274510    -0.8864430
units angstrom
no_reorient  #important for SAPT in psi4, default
symmetry c1  #important for SAPT in psi4, default
}

set PROPERTIES_ORIGIN ["COM"]
properties('MP2/aug-cc-pvtz', properties = ['dipole'])
--------------------------------------------------------------------------

    Molecular point group: c1
  Charge       = 0
  Multiplicity = 1
  Basis Set: AUG-CC-PVTZ
    Blend: AUG-CC-PVTZ
  Basis Set: (AUG-CC-PVTZ AUX)
    Blend: AUG-CC-PVTZ-JKFIT

    Orbital Energies [Eh]
    ---------------------

    Doubly Occupied:

       1A    -20.619563     2A    -20.619163     3A    -20.572999
       4A    -20.572176     5A    -11.409008     6A    -11.408341
       7A    -11.299636     8A    -11.299191     9A    -11.229940
      10A    -11.229645    11A     -1.486585    12A     -1.458379
      13A     -1.381501    14A     -1.365707    15A     -1.061390
      16A     -1.047423    17A     -0.945272    18A     -0.875140
      19A     -0.831214    20A     -0.787008    21A     -0.744113
      22A     -0.703587    23A     -0.701787    24A     -0.683664
      25A     -0.679699    26A     -0.611297    27A     -0.608748
      28A     -0.578109    29A     -0.575513    30A     -0.560040
      31A     -0.547491    32A     -0.524283    33A     -0.523590
      34A     -0.522201    35A     -0.520122    36A     -0.510788
      37A     -0.475466    38A     -0.465750    39A     -0.447897

  @DF-RHF Final Energy:  -532.69095881654937

   => Energetics <=

    Nuclear Repulsion Energy =            540.3269085835115675
    One-Electron Energy =               -1801.0688820002410466
    Two-Electron Energy =                 728.0510146001801104
    Total Energy =                       -532.6909588165493687
  Basis Set: (AUG-CC-PVTZ AUX)
    Blend: AUG-CC-PVTZ-RI
    Molecular point group: c1

    Geometry (in Angstrom), charge = 0, multiplicity = 1:

       Center              X                  Y                   Z               Mass
    ------------   -----------------  -----------------  -----------------  -----------------
         O            1.731231741247    -0.276973528772    -0.008146914456    15.994914619570
         O           -1.731231258753     0.276971471228    -0.008183914456    15.994914619570
         O            0.557672741247     1.678652471228    -0.008372914456    15.994914619570
         O           -0.557668258753    -1.678652528772    -0.008529914456    15.994914619570
         C            2.958159741247     0.501195471228    -0.008104914456    12.000000000000
         C           -2.958160258753    -0.501197528772    -0.008242914456    12.000000000000
         C            4.096159741247    -0.492090528772    -0.007940914456    12.000000000000
         C           -4.096159258753     0.492090471228    -0.008014914456    12.000000000000
         C            0.612110741247     0.461256471228    -0.008281914456    12.000000000000
         C           -0.612117358753    -0.461251428772     0.091650085544    12.000000000000
         H            2.962438741247     1.144091471228    -0.892413914456     1.007825032230
         H            2.962295741247     1.144220471228     0.876112085544     1.007825032230
         H           -2.962417258753    -1.144010528772    -0.892611914456     1.007825032230
         H           -2.962318258753    -1.144303528772     0.875914085544     1.007825032230
         H            5.051287741247     0.040517471228    -0.007904914456     1.007825032230
         H            4.050398741247    -1.127237528772     0.878840085544     1.007825032230
         H            4.050537741247    -1.127368528772    -0.894634914456     1.007825032230
         H           -5.051288258753    -0.040516528772    -0.008051914456     1.007825032230
         H           -4.050419258753     1.127155471228     0.878826085544     1.007825032230
         H           -4.050515258753     1.127450471228    -0.894648914456     1.007825032230

  Basis Set: AUG-CC-PVTZ
    Blend: AUG-CC-PVTZ
  Basis Set: (AUG-CC-PVTZ AUX)
    Blend: AUG-CC-PVTZ-JKFIT
	 Reference Energy          =    -532.6909588165493687 [Eh]
	 Singles Energy            =      -0.0000000000000000 [Eh]
	 Same-Spin Energy          =      -0.5159606991280355 [Eh]
	 Opposite-Spin Energy      =      -1.6274093316922869 [Eh]
	 Correlation Energy        =      -2.1433700308203223 [Eh]
	 Total Energy              =    -534.8343288473696475 [Eh]

	 ================> DF-SCS-MP2 Energies <==================
	-----------------------------------------------------------
	 SCS Same-Spin Scale       =       0.3333333333333333 [-]
	 SCS Opposite-Spin Scale   =       1.2000000000000000 [-]
	 SCS Same-Spin Energy      =      -0.1719868997093452 [Eh]
	 SCS Opposite-Spin Energy  =      -1.9528911980307442 [Eh]
	 SCS Correlation Energy    =      -2.1248780977400892 [Eh]
	 SCS Total Energy          =    -534.8158369142894344 [Eh]
	-----------------------------------------------------------

  Dipole Moment: [D]
     X:     0.0195      Y:    -0.0035      Z:     0.1257     Total:     0.1273

*** Psi4 exiting successfully. Buy a developer a beer!
