                               Psi4 1.3.2 release

  ==> Input File <==

--------------------------------------------------------------------------
#psi4
#
memory 32 gb

molecule  {
0 1
  O        1.7312310    -0.2769730     0.0000590
  O       -1.7312320     0.2769720     0.0000220
  O        0.5576720     1.6786530    -0.0001670
  O       -0.5576690    -1.6786520    -0.0003240
  C        2.9581590     0.5011960     0.0001010
  C       -2.9581610    -0.5011970    -0.0000370
  C        4.0961590    -0.4920900     0.0002650
  C       -4.0961600     0.4920910     0.0001910
  C        0.6121100     0.4612570    -0.0000760
  C       -0.6121090    -0.4612570    -0.0001440
  H        2.9624380     1.1440920    -0.8842080
  H        2.9622950     1.1442210     0.8843180
  H       -2.9624180    -1.1440100    -0.8844060
  H       -2.9623190    -1.1443030     0.8841200
  H        5.0512870     0.0405180     0.0003010
  H        4.0503980    -1.1272370     0.8870460
  H        4.0505370    -1.1273680    -0.8864290
  H       -5.0512890    -0.0405160     0.0001540
  H       -4.0504200     1.1271560     0.8870320
  H       -4.0505160     1.1274510    -0.8864430
units angstrom
no_reorient  #important for SAPT in psi4, default
symmetry c1  #important for SAPT in psi4, default
}

set PROPERTIES_ORIGIN ["COM"]
properties('MP2/aug-cc-pvtz', properties = ['dipole'])
--------------------------------------------------------------------------

    Molecular point group: c1
  Charge       = 0
  Multiplicity = 1
  Basis Set: AUG-CC-PVTZ
    Blend: AUG-CC-PVTZ
  Basis Set: (AUG-CC-PVTZ AUX)
    Blend: AUG-CC-PVTZ-JKFIT

    Orbital Energies [Eh]
    ---------------------

    Doubly Occupied:

       1A    -20.619482     2A    -20.619481     3A    -20.572050
       4A    -20.572050     5A    -11.408003     6A    -11.407434
       7A    -11.299540     8A    -11.299540     9A    -11.229872
      10A    -11.229872    11A     -1.487418    12A     -1.459238
      13A     -1.382514    14A     -1.366766    15A     -1.061835
      16A     -1.047706    17A     -0.946015    18A     -0.875426
      19A     -0.831387    20A     -0.787257    21A     -0.745106
      22A     -0.703740    23A     -0.702423    24A     -0.684039
      25A     -0.680118    26A     -0.611300    27A     -0.609394
      28A     -0.577865    29A     -0.576311    30A     -0.560159
      31A     -0.547754    32A     -0.524105    33A     -0.523544
      34A     -0.522655    35A     -0.520472    36A     -0.511322
      37A     -0.475850    38A     -0.466151    39A     -0.448168

  @DF-RHF Final Energy:  -532.69571912794527

   => Energetics <=

    Nuclear Repulsion Energy =            540.5087802935184982
    One-Electron Energy =               -1801.4222747600699677
    Two-Electron Energy =                 728.2177753386063159
    Total Energy =                       -532.6957191279452672
  Basis Set: (AUG-CC-PVTZ AUX)
    Blend: AUG-CC-PVTZ-RI
    Molecular point group: c1

    Geometry (in Angstrom), charge = 0, multiplicity = 1:

       Center              X                  Y                   Z               Mass
    ------------   -----------------  -----------------  -----------------  -----------------
         O            1.731230993598    -0.276973027601     0.000069004900    15.994914619570
         O           -1.731232006402     0.276971972399     0.000032004900    15.994914619570
         O            0.557671993598     1.678652972399    -0.000156995100    15.994914619570
         O           -0.557669006402    -1.678652027601    -0.000313995100    15.994914619570
         C            2.958158993598     0.501195972399     0.000111004900    12.000000000000
         C           -2.958161006402    -0.501197027601    -0.000026995100    12.000000000000
         C            4.096158993598    -0.492090027601     0.000275004900    12.000000000000
         C           -4.096160006402     0.492090972399     0.000201004900    12.000000000000
         C            0.612109993598     0.461256972399    -0.000065995100    12.000000000000
         C           -0.612109006402    -0.461257027601    -0.000133995100    12.000000000000
         H            2.962437993598     1.144091972399    -0.884197995100     1.007825032230
         H            2.962294993598     1.144220972399     0.884328004900     1.007825032230
         H           -2.962418006402    -1.144010027601    -0.884395995100     1.007825032230
         H           -2.962319006402    -1.144303027601     0.884130004900     1.007825032230
         H            5.051286993598     0.040517972399     0.000311004900     1.007825032230
         H            4.050397993598    -1.127237027601     0.887056004900     1.007825032230
         H            4.050536993598    -1.127368027601    -0.886418995100     1.007825032230
         H           -5.051289006402    -0.040516027601     0.000164004900     1.007825032230
         H           -4.050420006402     1.127155972399     0.887042004900     1.007825032230
         H           -4.050516006402     1.127450972399    -0.886432995100     1.007825032230

  Basis Set: AUG-CC-PVTZ
    Blend: AUG-CC-PVTZ
  Basis Set: (AUG-CC-PVTZ AUX)
    Blend: AUG-CC-PVTZ-JKFIT
	 Reference Energy          =    -532.6957191279452672 [Eh]
	 Singles Energy            =      -0.0000000000000000 [Eh]
	 Same-Spin Energy          =      -0.5156374636506444 [Eh]
	 Opposite-Spin Energy      =      -1.6266728223212881 [Eh]
	 Correlation Energy        =      -2.1423102859719325 [Eh]
	 Total Energy              =    -534.8380294139171838 [Eh]

	 ================> DF-SCS-MP2 Energies <==================
	-----------------------------------------------------------
	 SCS Same-Spin Scale       =       0.3333333333333333 [-]
	 SCS Opposite-Spin Scale   =       1.2000000000000000 [-]
	 SCS Same-Spin Energy      =      -0.1718791545502148 [Eh]
	 SCS Opposite-Spin Energy  =      -1.9520073867855456 [Eh]
	 SCS Correlation Energy    =      -2.1238865413357604 [Eh]
	 SCS Total Energy          =    -534.8196056692810316 [Eh]
	-----------------------------------------------------------

  Dipole Moment: [D]
     X:    -0.0000      Y:    -0.0000      Z:     0.0005     Total:     0.0005

*** Psi4 exiting successfully. Buy a developer a beer!
