                               Psi4 1.3.2 release

  ==> Input File <==

--------------------------------------------------------------------------
#psi4
#
memory 32 gb

molecule  {
-1 1
  C        0.2864700    -1.2064390    -0.0000050
  C       -1.1050350    -1.1994800     0.0000040
  C       -1.8315300     0.0000000    -0.0000020
  C       -1.1050350     1.1994800     0.0000050
  C        0.2864700     1.2064400    -0.0000060
  C        1.0822590     0.0000000    -0.0000150
  O        2.3571420     0.0000000     0.0000100
  H        0.8322390    -2.1510540     0.0000040
  H       -1.6412820    -2.1526450     0.0000040
  H       -2.9206448    -0.0000010     0.0500130
  H       -1.6412830     2.1526450     0.0000060
  H        0.8322370     2.1510550     0.0000020
units angstrom
no_reorient  #important for SAPT in psi4, default
symmetry c1  #important for SAPT in psi4, default
}

set PROPERTIES_ORIGIN ["COM"]
properties('MP2/aug-cc-pvtz', properties = ['dipole'])
--------------------------------------------------------------------------

    Molecular point group: c1
  Charge       = -1
  Multiplicity = 1
  Basis Set: AUG-CC-PVTZ
    Blend: AUG-CC-PVTZ
  Basis Set: (AUG-CC-PVTZ AUX)
    Blend: AUG-CC-PVTZ-JKFIT

    Orbital Energies [Eh]
    ---------------------

    Doubly Occupied:

       1A    -20.289612     2A    -11.108117     3A    -11.077657
       4A    -11.077644     5A    -11.050965     6A    -11.041107
       7A    -11.041097     8A     -1.114357     9A     -0.953535
      10A     -0.835448    11A     -0.796124    12A     -0.645123
      13A     -0.620287    14A     -0.513033    15A     -0.456714
      16A     -0.453669    17A     -0.407477    18A     -0.389957
      19A     -0.348678    20A     -0.336781    21A     -0.323274
      22A     -0.269006    23A     -0.197284    24A     -0.172964
      25A     -0.089095

  @DF-RHF Final Energy:  -305.08913013345961

   => Energetics <=

    Nuclear Repulsion Energy =            258.9569962015294209
    One-Electron Energy =                -936.8742410189714747
    Two-Electron Energy =                 372.8281146839823919
    Total Energy =                       -305.0891301334596051
  Basis Set: (AUG-CC-PVTZ AUX)
    Blend: AUG-CC-PVTZ-RI
    Molecular point group: c1

    Geometry (in Angstrom), charge = -1, multiplicity = 1:

       Center              X                  Y                   Z               Mass
    ------------   -----------------  -----------------  -----------------  -----------------
         C            0.238194943811    -1.206439128985    -0.000546225855    12.000000000000
         C           -1.153310056189    -1.199480128985    -0.000537225855    12.000000000000
         C           -1.879805056189    -0.000000128985    -0.000543225855    12.000000000000
         C           -1.153310056189     1.199479871015    -0.000536225855    12.000000000000
         C            0.238194943811     1.206439871015    -0.000547225855    12.000000000000
         C            1.033983943811    -0.000000128985    -0.000556225855    12.000000000000
         O            2.308866943811    -0.000000128985    -0.000531225855    15.994914619570
         H            0.783963943811    -2.151054128985    -0.000537225855     1.007825032230
         H           -1.689557056189    -2.152645128985    -0.000537225855     1.007825032230
         H           -2.968919856189    -0.000001128985     0.049471774145     1.007825032230
         H           -1.689558056189     2.152644871015    -0.000535225855     1.007825032230
         H            0.783961943811     2.151054871015    -0.000539225855     1.007825032230

  Basis Set: AUG-CC-PVTZ
    Blend: AUG-CC-PVTZ
  Basis Set: (AUG-CC-PVTZ AUX)
    Blend: AUG-CC-PVTZ-JKFIT
	 Reference Energy          =    -305.0891301334596051 [Eh]
	 Singles Energy            =      -0.0000000000000000 [Eh]
	 Same-Spin Energy          =      -0.3337229597025826 [Eh]
	 Opposite-Spin Energy      =      -1.0140308201464658 [Eh]
	 Correlation Energy        =      -1.3477537798490484 [Eh]
	 Total Energy              =    -306.4368839133086340 [Eh]

	 ================> DF-SCS-MP2 Energies <==================
	-----------------------------------------------------------
	 SCS Same-Spin Scale       =       0.3333333333333333 [-]
	 SCS Opposite-Spin Scale   =       1.2000000000000000 [-]
	 SCS Same-Spin Energy      =      -0.1112409865675275 [Eh]
	 SCS Opposite-Spin Energy  =      -1.2168369841757589 [Eh]
	 SCS Correlation Energy    =      -1.3280779707432864 [Eh]
	 SCS Total Energy          =    -306.4172081042028708 [Eh]
	-----------------------------------------------------------

  Dipole Moment: [D]
     X:    -4.2848      Y:     0.0000      Z:     0.0443     Total:     4.2850

*** Psi4 exiting successfully. Buy a developer a beer!
