                               Psi4 1.3.2 release

  ==> Input File <==

--------------------------------------------------------------------------
#psi4
#
memory 32 gb

molecule  {
-1 1
  C        0.2864700    -1.2064390    -0.0000050
  C       -1.1050350    -1.1994800     0.0000040
  C       -1.8315300     0.0000000    -0.0000020
  C       -1.1050350     1.1994800     0.0000050
  C        0.2864700     1.2064400    -0.0000060
  C        1.0822590     0.0000000    -0.0000150
  O        2.3571420     0.0000000     0.0000100
  H        0.8322390    -2.1510540     0.0000040
  H       -1.6412811    -2.1526441     0.3000040
  H       -2.9206450    -0.0000010     0.0000130
  H       -1.6412830     2.1526450     0.0000060
  H        0.8322370     2.1510550     0.0000020
units angstrom
no_reorient  #important for SAPT in psi4, default
symmetry c1  #important for SAPT in psi4, default
}

set PROPERTIES_ORIGIN ["COM"]
properties('MP2/aug-cc-pvtz', properties = ['dipole'])
--------------------------------------------------------------------------

    Molecular point group: c1
  Charge       = -1
  Multiplicity = 1
  Basis Set: AUG-CC-PVTZ
    Blend: AUG-CC-PVTZ
  Basis Set: (AUG-CC-PVTZ AUX)
    Blend: AUG-CC-PVTZ-JKFIT

    Orbital Energies [Eh]
    ---------------------

    Doubly Occupied:

       1A    -20.289964     2A    -11.108639     3A    -11.081695
       4A    -11.078181     5A    -11.051810     6A    -11.042169
       7A    -11.042009     8A     -1.114780     9A     -0.953851
      10A     -0.834860    11A     -0.796643    12A     -0.643833
      13A     -0.618899    14A     -0.512191    15A     -0.454661
      16A     -0.453237    17A     -0.404817    18A     -0.390419
      19A     -0.349696    20A     -0.336586    21A     -0.322212
      22A     -0.268486    23A     -0.197891    24A     -0.172500
      25A     -0.089510

  @DF-RHF Final Energy:  -305.08301914673348

   => Energetics <=

    Nuclear Repulsion Energy =            258.8145836226254914
    One-Electron Energy =                -936.5761297402469836
    Two-Electron Energy =                 372.6785269708880151
    Total Energy =                       -305.0830191467334771
  Basis Set: (AUG-CC-PVTZ AUX)
    Blend: AUG-CC-PVTZ-RI
    Molecular point group: c1

    Geometry (in Angstrom), charge = -1, multiplicity = 1:

       Center              X                  Y                   Z               Mass
    ------------   -----------------  -----------------  -----------------  -----------------
         C            0.238194936228    -1.206439138735    -0.003254441672    12.000000000000
         C           -1.153310063772    -1.199480138735    -0.003245441672    12.000000000000
         C           -1.879805063772    -0.000000138735    -0.003251441672    12.000000000000
         C           -1.153310063772     1.199479861265    -0.003244441672    12.000000000000
         C            0.238194936228     1.206439861265    -0.003255441672    12.000000000000
         C            1.033983936228    -0.000000138735    -0.003264441672    12.000000000000
         O            2.308866936228    -0.000000138735    -0.003239441672    15.994914619570
         H            0.783963936228    -2.151054138735    -0.003245441672     1.007825032230
         H           -1.689556163772    -2.152644238735     0.296754558328     1.007825032230
         H           -2.968920063772    -0.000001138735    -0.003236441672     1.007825032230
         H           -1.689558063772     2.152644861265    -0.003243441672     1.007825032230
         H            0.783961936228     2.151054861265    -0.003247441672     1.007825032230

  Basis Set: AUG-CC-PVTZ
    Blend: AUG-CC-PVTZ
  Basis Set: (AUG-CC-PVTZ AUX)
    Blend: AUG-CC-PVTZ-JKFIT
	 Reference Energy          =    -305.0830191467334771 [Eh]
	 Singles Energy            =      -0.0000000000000000 [Eh]
	 Same-Spin Energy          =      -0.3341443567612079 [Eh]
	 Opposite-Spin Energy      =      -1.0150501339111710 [Eh]
	 Correlation Energy        =      -1.3491944906723790 [Eh]
	 Total Energy              =    -306.4322136374058800 [Eh]

	 ================> DF-SCS-MP2 Energies <==================
	-----------------------------------------------------------
	 SCS Same-Spin Scale       =       0.3333333333333333 [-]
	 SCS Opposite-Spin Scale   =       1.2000000000000000 [-]
	 SCS Same-Spin Energy      =      -0.1113814522537359 [Eh]
	 SCS Opposite-Spin Energy  =      -1.2180601606934052 [Eh]
	 SCS Correlation Energy    =      -1.3294416129471411 [Eh]
	 SCS Total Energy          =    -306.4124607596806413 [Eh]
	-----------------------------------------------------------

  Dipole Moment: [D]
     X:    -4.2264      Y:     0.1011      Z:     0.1866     Total:     4.2317

*** Psi4 exiting successfully. Buy a developer a beer!
