                               Psi4 1.3.2 release

  ==> Input File <==

--------------------------------------------------------------------------
#psi4
#
memory 32 gb

molecule  {
-1 1
  C        0.2864700    -1.2064390    -0.0000050
  C       -1.1050350    -1.1994800     0.0000040
  C       -1.8315300     0.0000000    -0.0000020
  C       -1.1050350     1.1994800     0.0000050
  C        0.2864700     1.2064400    -0.0000060
  C        1.0822590     0.0000000    -0.0000150
  O        2.3571420     0.0000000     0.0000100
  H        0.8322390    -2.1510540     0.0000040
  H       -1.6412815    -2.1526445     0.1500040
  H       -2.9206450    -0.0000010     0.0000130
  H       -1.6412830     2.1526450     0.0000060
  H        0.8322370     2.1510550     0.0000020
units angstrom
no_reorient  #important for SAPT in psi4, default
symmetry c1  #important for SAPT in psi4, default
}

set PROPERTIES_ORIGIN ["COM"]
properties('MP2/aug-cc-pvtz', properties = ['dipole'])
--------------------------------------------------------------------------

    Molecular point group: c1
  Charge       = -1
  Multiplicity = 1
  Basis Set: AUG-CC-PVTZ
    Blend: AUG-CC-PVTZ
  Basis Set: (AUG-CC-PVTZ AUX)
    Blend: AUG-CC-PVTZ-JKFIT

    Orbital Energies [Eh]
    ---------------------

    Doubly Occupied:

       1A    -20.289660     2A    -11.108213     3A    -11.078661
       4A    -11.077763     5A    -11.051104     6A    -11.041352
       7A    -11.041312     8A     -1.114429     9A     -0.953601
      10A     -0.835263    11A     -0.796273    12A     -0.644722
      13A     -0.619959    14A     -0.512899    15A     -0.455945
      16A     -0.453755    17A     -0.406819    18A     -0.390104
      19A     -0.348873    20A     -0.336803    21A     -0.323015
      22A     -0.268898    23A     -0.197408    24A     -0.172822
      25A     -0.089175

  @DF-RHF Final Energy:  -305.08780557324451

   => Energetics <=

    Nuclear Repulsion Energy =            258.9234054602640640
    One-Electron Energy =                -936.8047634055858452
    Two-Electron Energy =                 372.7935523720772153
    Total Energy =                       -305.0878055732445091
  Basis Set: (AUG-CC-PVTZ AUX)
    Blend: AUG-CC-PVTZ-RI
    Molecular point group: c1

    Geometry (in Angstrom), charge = -1, multiplicity = 1:

       Center              X                  Y                   Z               Mass
    ------------   -----------------  -----------------  -----------------  -----------------
         C            0.238194940561    -1.206439134401    -0.001629512181    12.000000000000
         C           -1.153310059439    -1.199480134401    -0.001620512181    12.000000000000
         C           -1.879805059439    -0.000000134401    -0.001626512181    12.000000000000
         C           -1.153310059439     1.199479865599    -0.001619512181    12.000000000000
         C            0.238194940561     1.206439865599    -0.001630512181    12.000000000000
         C            1.033983940561    -0.000000134401    -0.001639512181    12.000000000000
         O            2.308866940561    -0.000000134401    -0.001614512181    15.994914619570
         H            0.783963940561    -2.151054134401    -0.001620512181     1.007825032230
         H           -1.689556559439    -2.152644634401     0.148379487819     1.007825032230
         H           -2.968920059439    -0.000001134401    -0.001611512181     1.007825032230
         H           -1.689558059439     2.152644865599    -0.001618512181     1.007825032230
         H            0.783961940561     2.151054865599    -0.001622512181     1.007825032230

  Basis Set: AUG-CC-PVTZ
    Blend: AUG-CC-PVTZ
  Basis Set: (AUG-CC-PVTZ AUX)
    Blend: AUG-CC-PVTZ-JKFIT
	 Reference Energy          =    -305.0878055732445091 [Eh]
	 Singles Energy            =      -0.0000000000000000 [Eh]
	 Same-Spin Energy          =      -0.3338321342904638 [Eh]
	 Opposite-Spin Energy      =      -1.0142809221843923 [Eh]
	 Correlation Energy        =      -1.3481130564748560 [Eh]
	 Total Energy              =    -306.4359186297193673 [Eh]

	 ================> DF-SCS-MP2 Energies <==================
	-----------------------------------------------------------
	 SCS Same-Spin Scale       =       0.3333333333333333 [-]
	 SCS Opposite-Spin Scale   =       1.2000000000000000 [-]
	 SCS Same-Spin Energy      =      -0.1112773780968213 [Eh]
	 SCS Opposite-Spin Energy  =      -1.2171371066212706 [Eh]
	 SCS Correlation Energy    =      -1.3284144847180919 [Eh]
	 SCS Total Energy          =    -306.4162200579626187 [Eh]
	-----------------------------------------------------------

  Dipole Moment: [D]
     X:    -4.2730      Y:     0.0258      Z:     0.0975     Total:     4.2742

*** Psi4 exiting successfully. Buy a developer a beer!
