                               Psi4 1.3.2 release

  ==> Input File <==

--------------------------------------------------------------------------
#psi4
#
memory 32 gb

molecule  {
-1 1
  C        0.2864700    -1.2064390    -0.0000050
  C       -1.1050350    -1.1994800     0.0000040
  C       -1.8315300     0.0000000    -0.0000020
  C       -1.1050350     1.1994800     0.0000050
  C        0.2864700     1.2064400    -0.0000060
  C        1.0822590     0.0000000    -0.0000150
  O        2.3571420     0.0000000     0.0000100
  H        0.8322384    -2.1510553    -0.1499960
  H       -1.6412820    -2.1526450     0.0000040
  H       -2.9206450    -0.0000010     0.0000130
  H       -1.6412830     2.1526450     0.0000060
  H        0.8322370     2.1510550     0.0000020
units angstrom
no_reorient  #important for SAPT in psi4, default
symmetry c1  #important for SAPT in psi4, default
}

set PROPERTIES_ORIGIN ["COM"]
properties('MP2/aug-cc-pvtz', properties = ['dipole'])
--------------------------------------------------------------------------

    Molecular point group: c1
  Charge       = -1
  Multiplicity = 1
  Basis Set: AUG-CC-PVTZ
    Blend: AUG-CC-PVTZ
  Basis Set: (AUG-CC-PVTZ AUX)
    Blend: AUG-CC-PVTZ-JKFIT

    Orbital Energies [Eh]
    ---------------------

    Doubly Occupied:

       1A    -20.289769     2A    -11.108295     3A    -11.077884
       4A    -11.077830     5A    -11.051042     6A    -11.042015
       7A    -11.041294     8A     -1.114460     9A     -0.953687
      10A     -0.835357    11A     -0.796178    12A     -0.644700
      13A     -0.620360    14A     -0.512722    15A     -0.456159
      16A     -0.453791    17A     -0.407090    18A     -0.389895
      19A     -0.349284    20A     -0.336632    21A     -0.322134
      22A     -0.269161    23A     -0.197464    24A     -0.172818
      25A     -0.089221

  @DF-RHF Final Energy:  -305.08798809160481

   => Energetics <=

    Nuclear Repulsion Energy =            258.9214682696805880
    One-Electron Energy =                -936.8004340663541143
    Two-Electron Energy =                 372.7909777050687694
    Total Energy =                       -305.0879880916048137
  Basis Set: (AUG-CC-PVTZ AUX)
    Blend: AUG-CC-PVTZ-RI
    Molecular point group: c1

    Geometry (in Angstrom), charge = -1, multiplicity = 1:

       Center              X                  Y                   Z               Mass
    ------------   -----------------  -----------------  -----------------  -----------------
         C            0.238194952477    -1.206439114902     0.001620346799    12.000000000000
         C           -1.153310047523    -1.199480114902     0.001629346799    12.000000000000
         C           -1.879805047523    -0.000000114902     0.001623346799    12.000000000000
         C           -1.153310047523     1.199479885098     0.001630346799    12.000000000000
         C            0.238194952477     1.206439885098     0.001619346799    12.000000000000
         C            1.033983952477    -0.000000114902     0.001610346799    12.000000000000
         O            2.308866952477    -0.000000114902     0.001635346799    15.994914619570
         H            0.783963352477    -2.151055414902    -0.148370653201     1.007825032230
         H           -1.689557047523    -2.152645114902     0.001629346799     1.007825032230
         H           -2.968920047523    -0.000001114902     0.001638346799     1.007825032230
         H           -1.689558047523     2.152644885098     0.001631346799     1.007825032230
         H            0.783961952477     2.151054885098     0.001627346799     1.007825032230

  Basis Set: AUG-CC-PVTZ
    Blend: AUG-CC-PVTZ
  Basis Set: (AUG-CC-PVTZ AUX)
    Blend: AUG-CC-PVTZ-JKFIT
	 Reference Energy          =    -305.0879880916048137 [Eh]
	 Singles Energy            =      -0.0000000000000000 [Eh]
	 Same-Spin Energy          =      -0.3337804904963363 [Eh]
	 Opposite-Spin Energy      =      -1.0141797081249764 [Eh]
	 Correlation Energy        =      -1.3479601986213128 [Eh]
	 Total Energy              =    -306.4359482902261220 [Eh]

	 ================> DF-SCS-MP2 Energies <==================
	-----------------------------------------------------------
	 SCS Same-Spin Scale       =       0.3333333333333333 [-]
	 SCS Opposite-Spin Scale   =       1.2000000000000000 [-]
	 SCS Same-Spin Energy      =      -0.1112601634987788 [Eh]
	 SCS Opposite-Spin Energy  =      -1.2170156497499716 [Eh]
	 SCS Correlation Energy    =      -1.3282758132487504 [Eh]
	 SCS Total Energy          =    -306.4162639048535652 [Eh]
	-----------------------------------------------------------

  Dipole Moment: [D]
     X:    -4.2981      Y:     0.0265      Z:    -0.1034     Total:     4.2994

*** Psi4 exiting successfully. Buy a developer a beer!
