                               Psi4 1.3.2 release

  ==> Input File <==

--------------------------------------------------------------------------
#psi4
#
memory 32 gb

molecule  {
-1 1
  C        0.2864700    -1.2064390    -0.0000050
  C       -1.1050350    -1.1994800     0.0000040
  C       -1.8315300     0.0000000    -0.0000020
  C       -1.1050350     1.1994800     0.0000050
  C        0.2864700     1.2064400    -0.0000060
  C        1.0822590     0.0000000    -0.0000150
  O        2.3571420     0.0000000     0.0000100
  H        0.8322390    -2.1510540     0.0000040
  H       -1.6412820    -2.1526450     0.0000040
  H       -2.9206438    -0.0000011     0.2500130
  H       -1.6412830     2.1526450     0.0000060
  H        0.8322370     2.1510550     0.0000020
units angstrom
no_reorient  #important for SAPT in psi4, default
symmetry c1  #important for SAPT in psi4, default
}

set PROPERTIES_ORIGIN ["COM"]
properties('MP2/aug-cc-pvtz', properties = ['dipole'])
--------------------------------------------------------------------------

    Molecular point group: c1
  Charge       = -1
  Multiplicity = 1
  Basis Set: AUG-CC-PVTZ
    Blend: AUG-CC-PVTZ
  Basis Set: (AUG-CC-PVTZ AUX)
    Blend: AUG-CC-PVTZ-JKFIT

    Orbital Energies [Eh]
    ---------------------

    Doubly Occupied:

       1A    -20.290803     2A    -11.109124     3A    -11.078233
       4A    -11.078219     5A    -11.053192     6A    -11.041645
       7A    -11.041635     8A     -1.115377     9A     -0.953749
      10A     -0.835930    11A     -0.795445    12A     -0.645579
      13A     -0.619419    14A     -0.509466    15A     -0.456589
      16A     -0.454171    17A     -0.407934    18A     -0.389061
      19A     -0.350593    20A     -0.333982    21A     -0.323808
      22A     -0.268146    23A     -0.198258    24A     -0.173456
      25A     -0.089765

  @DF-RHF Final Energy:  -305.08592350271005

   => Energetics <=

    Nuclear Repulsion Energy =            258.8584071350587124
    One-Electron Energy =                -936.6615070104272718
    Two-Electron Energy =                 372.7171763726585709
    Total Energy =                       -305.0859235027100453
  Basis Set: (AUG-CC-PVTZ AUX)
    Blend: AUG-CC-PVTZ-RI
    Molecular point group: c1

    Geometry (in Angstrom), charge = -1, multiplicity = 1:

       Center              X                  Y                   Z               Mass
    ------------   -----------------  -----------------  -----------------  -----------------
         C            0.238194932978    -1.206439127902    -0.002712798508    12.000000000000
         C           -1.153310067022    -1.199480127902    -0.002703798508    12.000000000000
         C           -1.879805067022    -0.000000127902    -0.002709798508    12.000000000000
         C           -1.153310067022     1.199479872098    -0.002702798508    12.000000000000
         C            0.238194932978     1.206439872098    -0.002713798508    12.000000000000
         C            1.033983932978    -0.000000127902    -0.002722798508    12.000000000000
         O            2.308866932978    -0.000000127902    -0.002697798508    15.994914619570
         H            0.783963932978    -2.151054127902    -0.002703798508     1.007825032230
         H           -1.689557067022    -2.152645127902    -0.002703798508     1.007825032230
         H           -2.968918867022    -0.000001227902     0.247305201492     1.007825032230
         H           -1.689558067022     2.152644872098    -0.002701798508     1.007825032230
         H            0.783961932978     2.151054872098    -0.002705798508     1.007825032230

  Basis Set: AUG-CC-PVTZ
    Blend: AUG-CC-PVTZ
  Basis Set: (AUG-CC-PVTZ AUX)
    Blend: AUG-CC-PVTZ-JKFIT
	 Reference Energy          =    -305.0859235027100453 [Eh]
	 Singles Energy            =      -0.0000000000000000 [Eh]
	 Same-Spin Energy          =      -0.3338051402048855 [Eh]
	 Opposite-Spin Energy      =      -1.0144497026568979 [Eh]
	 Correlation Energy        =      -1.3482548428617833 [Eh]
	 Total Energy              =    -306.4341783455718087 [Eh]

	 ================> DF-SCS-MP2 Energies <==================
	-----------------------------------------------------------
	 SCS Same-Spin Scale       =       0.3333333333333333 [-]
	 SCS Opposite-Spin Scale   =       1.2000000000000000 [-]
	 SCS Same-Spin Energy      =      -0.1112683800682952 [Eh]
	 SCS Opposite-Spin Energy  =      -1.2173396431882775 [Eh]
	 SCS Correlation Energy    =      -1.3286080232565727 [Eh]
	 SCS Total Energy          =    -306.4145315259665949 [Eh]
	-----------------------------------------------------------

  Dipole Moment: [D]
     X:    -4.1694      Y:     0.0000      Z:     0.2141     Total:     4.1749

*** Psi4 exiting successfully. Buy a developer a beer!
