                               Psi4 1.3.2 release

  ==> Input File <==

--------------------------------------------------------------------------
#psi4
#
memory 32 gb

molecule  {
-1 1
  C        0.2864700    -1.2064390    -0.0000050
  C       -1.1050350    -1.1994800     0.0000040
  C       -1.8315300     0.0000000    -0.0000020
  C       -1.1050350     1.1994800     0.0000050
  C        0.2864700     1.2064400    -0.0000060
  C        1.0822590     0.0000000    -0.0000150
  O        2.3571424    -0.0000000    -0.0499900
  H        0.8322390    -2.1510540     0.0000040
  H       -1.6412820    -2.1526450     0.0000040
  H       -2.9206450    -0.0000010     0.0000130
  H       -1.6412830     2.1526450     0.0000060
  H        0.8322370     2.1510550     0.0000020
units angstrom
no_reorient  #important for SAPT in psi4, default
symmetry c1  #important for SAPT in psi4, default
}

set PROPERTIES_ORIGIN ["COM"]
properties('MP2/aug-cc-pvtz', properties = ['dipole'])
--------------------------------------------------------------------------

    Molecular point group: c1
  Charge       = -1
  Multiplicity = 1
  Basis Set: AUG-CC-PVTZ
    Blend: AUG-CC-PVTZ
  Basis Set: (AUG-CC-PVTZ AUX)
    Blend: AUG-CC-PVTZ-JKFIT

    Orbital Energies [Eh]
    ---------------------

    Doubly Occupied:

       1A    -20.289512     2A    -11.108173     3A    -11.077678
       4A    -11.077665     5A    -11.050973     6A    -11.041197
       7A    -11.041186     8A     -1.113707     9A     -0.953576
      10A     -0.835487    11A     -0.796224    12A     -0.645132
      13A     -0.620404    14A     -0.513260    15A     -0.456733
      16A     -0.453616    17A     -0.407515    18A     -0.389856
      19A     -0.348511    20A     -0.336766    21A     -0.323220
      22A     -0.268887    23A     -0.197236    24A     -0.172961
      25A     -0.089117

  @DF-RHF Final Energy:  -305.08901422250869

   => Energetics <=

    Nuclear Repulsion Energy =            258.9388712675424244
    One-Electron Energy =                -936.8385860221516168
    Two-Electron Energy =                 372.8107005321005545
    Total Energy =                       -305.0890142225086947
  Basis Set: (AUG-CC-PVTZ AUX)
    Blend: AUG-CC-PVTZ-RI
    Molecular point group: c1

    Geometry (in Angstrom), charge = -1, multiplicity = 1:

       Center              X                  Y                   Z               Mass
    ------------   -----------------  -----------------  -----------------  -----------------
         C            0.238194877207    -1.206439128985     0.008591687372    12.000000000000
         C           -1.153310122793    -1.199480128985     0.008600687372    12.000000000000
         C           -1.879805122793    -0.000000128985     0.008594687372    12.000000000000
         C           -1.153310122793     1.199479871015     0.008601687372    12.000000000000
         C            0.238194877207     1.206439871015     0.008590687372    12.000000000000
         C            1.033983877207    -0.000000128985     0.008581687372    12.000000000000
         O            2.308867277207    -0.000000128985    -0.041393312628    15.994914619570
         H            0.783963877207    -2.151054128985     0.008600687372     1.007825032230
         H           -1.689557122793    -2.152645128985     0.008600687372     1.007825032230
         H           -2.968920122793    -0.000001128985     0.008609687372     1.007825032230
         H           -1.689558122793     2.152644871015     0.008602687372     1.007825032230
         H            0.783961877207     2.151054871015     0.008598687372     1.007825032230

  Basis Set: AUG-CC-PVTZ
    Blend: AUG-CC-PVTZ
  Basis Set: (AUG-CC-PVTZ AUX)
    Blend: AUG-CC-PVTZ-JKFIT
	 Reference Energy          =    -305.0890142225086947 [Eh]
	 Singles Energy            =      -0.0000000000000000 [Eh]
	 Same-Spin Energy          =      -0.3337459135878370 [Eh]
	 Opposite-Spin Energy      =      -1.0140667601886495 [Eh]
	 Correlation Energy        =      -1.3478126737764864 [Eh]
	 Total Energy              =    -306.4368268962851971 [Eh]

	 ================> DF-SCS-MP2 Energies <==================
	-----------------------------------------------------------
	 SCS Same-Spin Scale       =       0.3333333333333333 [-]
	 SCS Opposite-Spin Scale   =       1.2000000000000000 [-]
	 SCS Same-Spin Energy      =      -0.1112486378626123 [Eh]
	 SCS Opposite-Spin Energy  =      -1.2168801122263793 [Eh]
	 SCS Correlation Energy    =      -1.3281287500889916 [Eh]
	 SCS Total Energy          =    -306.4171429725976736 [Eh]
	-----------------------------------------------------------

  Dipole Moment: [D]
     X:    -4.2977      Y:     0.0000      Z:     0.0729     Total:     4.2983

*** Psi4 exiting successfully. Buy a developer a beer!
