                               Psi4 1.3.2 release

  ==> Input File <==

--------------------------------------------------------------------------
#psi4
#
memory 32 gb

molecule  {
-1 1
  C        0.2864700    -1.2064390    -0.0000050
  C       -1.1050350    -1.1994800     0.0000040
  C       -1.8315300     0.0000000    -0.0000020
  C       -1.1050350     1.1994800     0.0000050
  C        0.2864700     1.2064400    -0.0000060
  C        1.0822590     0.0000000    -0.0000150
  O        2.3571442    -0.0000001    -0.2999900
  H        0.8322390    -2.1510540     0.0000040
  H       -1.6412820    -2.1526450     0.0000040
  H       -2.9206450    -0.0000010     0.0000130
  H       -1.6412830     2.1526450     0.0000060
  H        0.8322370     2.1510550     0.0000020
units angstrom
no_reorient  #important for SAPT in psi4, default
symmetry c1  #important for SAPT in psi4, default
}

set PROPERTIES_ORIGIN ["COM"]
properties('MP2/aug-cc-pvtz', properties = ['dipole'])
--------------------------------------------------------------------------

    Molecular point group: c1
  Charge       = -1
  Multiplicity = 1
  Basis Set: AUG-CC-PVTZ
    Blend: AUG-CC-PVTZ
  Basis Set: (AUG-CC-PVTZ AUX)
    Blend: AUG-CC-PVTZ-JKFIT

    Orbital Energies [Eh]
    ---------------------

    Doubly Occupied:

       1A    -20.287788     2A    -11.111263     3A    -11.079167
       4A    -11.079152     5A    -11.054473     6A    -11.044981
       7A    -11.044970     8A     -1.093484     9A     -0.955147
      10A     -0.837509    11A     -0.798559    12A     -0.646135
      13A     -0.622981    14A     -0.515595    15A     -0.457403
      16A     -0.452727    17A     -0.409462    18A     -0.385742
      19A     -0.346649    20A     -0.330890    21A     -0.322253
      22A     -0.263307    23A     -0.196784    24A     -0.173445
      25A     -0.090905

  @DF-RHF Final Energy:  -305.08014143837096

   => Energetics <=

    Nuclear Repulsion Energy =            258.1797158295992745
    One-Electron Energy =                -935.3181711831693974
    Two-Electron Energy =                 372.0583139151992214
    Total Energy =                       -305.0801414383709584
  Basis Set: (AUG-CC-PVTZ AUX)
    Blend: AUG-CC-PVTZ-RI
    Molecular point group: c1

    Geometry (in Angstrom), charge = -1, multiplicity = 1:

       Center              X                  Y                   Z               Mass
    ------------   -----------------  -----------------  -----------------  -----------------
         C            0.238194567741    -1.206439111793     0.051573037685    12.000000000000
         C           -1.153310432259    -1.199480111793     0.051582037685    12.000000000000
         C           -1.879805432259    -0.000000111793     0.051576037685    12.000000000000
         C           -1.153310432259     1.199479888207     0.051583037685    12.000000000000
         C            0.238194567741     1.206439888207     0.051572037685    12.000000000000
         C            1.033983567741    -0.000000111793     0.051563037685    12.000000000000
         O            2.308868767741    -0.000000211793    -0.248411962315    15.994914619570
         H            0.783963567741    -2.151054111793     0.051582037685     1.007825032230
         H           -1.689557432259    -2.152645111793     0.051582037685     1.007825032230
         H           -2.968920432259    -0.000001111793     0.051591037685     1.007825032230
         H           -1.689558432259     2.152644888207     0.051584037685     1.007825032230
         H            0.783961567741     2.151054888207     0.051580037685     1.007825032230

  Basis Set: AUG-CC-PVTZ
    Blend: AUG-CC-PVTZ
  Basis Set: (AUG-CC-PVTZ AUX)
    Blend: AUG-CC-PVTZ-JKFIT
	 Reference Energy          =    -305.0801414383709584 [Eh]
	 Singles Energy            =      -0.0000000000000000 [Eh]
	 Same-Spin Energy          =      -0.3346476255066773 [Eh]
	 Opposite-Spin Energy      =      -1.0159934877076691 [Eh]
	 Correlation Energy        =      -1.3506411132143463 [Eh]
	 Total Energy              =    -306.4307825515853096 [Eh]

	 ================> DF-SCS-MP2 Energies <==================
	-----------------------------------------------------------
	 SCS Same-Spin Scale       =       0.3333333333333333 [-]
	 SCS Opposite-Spin Scale   =       1.2000000000000000 [-]
	 SCS Same-Spin Energy      =      -0.1115492085022257 [Eh]
	 SCS Opposite-Spin Energy  =      -1.2191921852492029 [Eh]
	 SCS Correlation Energy    =      -1.3307413937514287 [Eh]
	 SCS Total Energy          =    -306.4108828321224109 [Eh]
	-----------------------------------------------------------

  Dipole Moment: [D]
     X:    -4.5652      Y:     0.0000      Z:     0.4597     Total:     4.5883

*** Psi4 exiting successfully. Buy a developer a beer!
