                               Psi4 1.3.2 release

  ==> Input File <==

--------------------------------------------------------------------------
#psi4
#
memory 32 gb

molecule  {
-1 1
  C        0.2864700    -1.2064390    -0.0000050
  C       -1.1050350    -1.1994800     0.0000040
  C       -1.8315300     0.0000000    -0.0000020
  C       -1.1050350     1.1994800     0.0000050
  C        0.2864700     1.2064400    -0.0000060
  C        1.0822590     0.0000000    -0.0000150
  O        2.3571420     0.0000000     0.0000100
  H        0.8322386    -2.1510548    -0.0999960
  H       -1.6412820    -2.1526450     0.0000040
  H       -2.9206450    -0.0000010     0.0000130
  H       -1.6412830     2.1526450     0.0000060
  H        0.8322370     2.1510550     0.0000020
units angstrom
no_reorient  #important for SAPT in psi4, default
symmetry c1  #important for SAPT in psi4, default
}

set PROPERTIES_ORIGIN ["COM"]
properties('MP2/aug-cc-pvtz', properties = ['dipole'])
--------------------------------------------------------------------------

    Molecular point group: c1
  Charge       = -1
  Multiplicity = 1
  Basis Set: AUG-CC-PVTZ
    Blend: AUG-CC-PVTZ
  Basis Set: (AUG-CC-PVTZ AUX)
    Blend: AUG-CC-PVTZ-JKFIT

    Orbital Energies [Eh]
    ---------------------

    Doubly Occupied:

       1A    -20.289654     2A    -11.108172     3A    -11.077743
       4A    -11.077716     5A    -11.050948     6A    -11.041497
       7A    -11.041175     8A     -1.114379     9A     -0.953598
      10A     -0.835395    11A     -0.796165    12A     -0.644920
      13A     -0.620342    14A     -0.512978    15A     -0.456466
      16A     -0.453713    17A     -0.407293    18A     -0.389952
      19A     -0.348905    20A     -0.336773    21A     -0.322760
      22A     -0.269095    23A     -0.197342    24A     -0.172887
      25A     -0.089135

  @DF-RHF Final Energy:  -305.08870049197083

   => Energetics <=

    Nuclear Repulsion Energy =            258.9434555743348483
    One-Electron Energy =                -936.8463061338424041
    Two-Electron Energy =                 372.8141500675367297
    Total Energy =                       -305.0887004919708261
  Basis Set: (AUG-CC-PVTZ AUX)
    Blend: AUG-CC-PVTZ-RI
    Molecular point group: c1

    Geometry (in Angstrom), charge = -1, multiplicity = 1:

       Center              X                  Y                   Z               Mass
    ------------   -----------------  -----------------  -----------------  -----------------
         C            0.238194950310    -1.206439120319     0.001078703636    12.000000000000
         C           -1.153310049690    -1.199480120319     0.001087703636    12.000000000000
         C           -1.879805049690    -0.000000120319     0.001081703636    12.000000000000
         C           -1.153310049690     1.199479879681     0.001088703636    12.000000000000
         C            0.238194950310     1.206439879681     0.001077703636    12.000000000000
         C            1.033983950310    -0.000000120319     0.001068703636    12.000000000000
         O            2.308866950310    -0.000000120319     0.001093703636    15.994914619570
         H            0.783963550310    -2.151054920319    -0.098912296364     1.007825032230
         H           -1.689557049690    -2.152645120319     0.001087703636     1.007825032230
         H           -2.968920049690    -0.000001120319     0.001096703636     1.007825032230
         H           -1.689558049690     2.152644879681     0.001089703636     1.007825032230
         H            0.783961950310     2.151054879681     0.001085703636     1.007825032230

  Basis Set: AUG-CC-PVTZ
    Blend: AUG-CC-PVTZ
  Basis Set: (AUG-CC-PVTZ AUX)
    Blend: AUG-CC-PVTZ-JKFIT
	 Reference Energy          =    -305.0887004919708261 [Eh]
	 Singles Energy            =      -0.0000000000000000 [Eh]
	 Same-Spin Energy          =      -0.3337468038986399 [Eh]
	 Opposite-Spin Energy      =      -1.0140856032365786 [Eh]
	 Correlation Energy        =      -1.3478324071352186 [Eh]
	 Total Energy              =    -306.4365328991060551 [Eh]

	 ================> DF-SCS-MP2 Energies <==================
	-----------------------------------------------------------
	 SCS Same-Spin Scale       =       0.3333333333333333 [-]
	 SCS Opposite-Spin Scale   =       1.2000000000000000 [-]
	 SCS Same-Spin Energy      =      -0.1112489346328800 [Eh]
	 SCS Opposite-Spin Energy  =      -1.2169027238838943 [Eh]
	 SCS Correlation Energy    =      -1.3281516585167743 [Eh]
	 SCS Total Energy          =    -306.4168521504876139 [Eh]
	-----------------------------------------------------------

  Dipole Moment: [D]
     X:    -4.2935      Y:     0.0119      Z:    -0.0694     Total:     4.2941

*** Psi4 exiting successfully. Buy a developer a beer!
