                               Psi4 1.3.2 release

  ==> Input File <==

--------------------------------------------------------------------------
#psi4
#
memory 32 gb

molecule  {
-1 1
  C        0.2864700    -1.2064390    -0.0000050
  C       -1.1050350    -1.1994800     0.0000040
  C       -1.8315300     0.0000000    -0.0000020
  C       -1.1050350     1.1994800     0.0000050
  C        0.2864700     1.2064400    -0.0000060
  C        1.0822590     0.0000000    -0.0000150
  O        2.3571439    -0.0000001    -0.2499900
  H        0.8322390    -2.1510540     0.0000040
  H       -1.6412820    -2.1526450     0.0000040
  H       -2.9206450    -0.0000010     0.0000130
  H       -1.6412830     2.1526450     0.0000060
  H        0.8322370     2.1510550     0.0000020
units angstrom
no_reorient  #important for SAPT in psi4, default
symmetry c1  #important for SAPT in psi4, default
}

set PROPERTIES_ORIGIN ["COM"]
properties('MP2/aug-cc-pvtz', properties = ['dipole'])
--------------------------------------------------------------------------

    Molecular point group: c1
  Charge       = -1
  Multiplicity = 1
  Basis Set: AUG-CC-PVTZ
    Blend: AUG-CC-PVTZ
  Basis Set: (AUG-CC-PVTZ AUX)
    Blend: AUG-CC-PVTZ-JKFIT

    Orbital Energies [Eh]
    ---------------------

    Doubly Occupied:

       1A    -20.288325     2A    -11.110369     3A    -11.078711
       4A    -11.078697     5A    -11.053380     6A    -11.043817
       7A    -11.043806     8A     -1.099631     9A     -0.954680
      10A     -0.836885    11A     -0.797839    12A     -0.645814
      13A     -0.622187    14A     -0.514868    15A     -0.457166
      16A     -0.452958    17A     -0.408862    18A     -0.386869
      19A     -0.347151    20A     -0.332859    21A     -0.322525
      22A     -0.265085    23A     -0.196963    24A     -0.173315
      25A     -0.090333

  @DF-RHF Final Energy:  -305.08304906041650

   => Energetics <=

    Nuclear Repulsion Energy =            258.4135014326639066
    One-Electron Energy =                -935.7869067937115233
    Two-Electron Energy =                 372.2903563006311174
    Total Energy =                       -305.0830490604164993
  Basis Set: (AUG-CC-PVTZ AUX)
    Blend: AUG-CC-PVTZ-RI
    Molecular point group: c1

    Geometry (in Angstrom), charge = -1, multiplicity = 1:

       Center              X                  Y                   Z               Mass
    ------------   -----------------  -----------------  -----------------  -----------------
         C            0.238194619319    -1.206439111793     0.042976767622    12.000000000000
         C           -1.153310380681    -1.199480111793     0.042985767622    12.000000000000
         C           -1.879805380681    -0.000000111793     0.042979767622    12.000000000000
         C           -1.153310380681     1.199479888207     0.042986767622    12.000000000000
         C            0.238194619319     1.206439888207     0.042975767622    12.000000000000
         C            1.033983619319    -0.000000111793     0.042966767622    12.000000000000
         O            2.308868519319    -0.000000211793    -0.207008232378    15.994914619570
         H            0.783963619319    -2.151054111793     0.042985767622     1.007825032230
         H           -1.689557380681    -2.152645111793     0.042985767622     1.007825032230
         H           -2.968920380681    -0.000001111793     0.042994767622     1.007825032230
         H           -1.689558380681     2.152644888207     0.042987767622     1.007825032230
         H            0.783961619319     2.151054888207     0.042983767622     1.007825032230

  Basis Set: AUG-CC-PVTZ
    Blend: AUG-CC-PVTZ
  Basis Set: (AUG-CC-PVTZ AUX)
    Blend: AUG-CC-PVTZ-JKFIT
	 Reference Energy          =    -305.0830490604164993 [Eh]
	 Singles Energy            =      -0.0000000000000000 [Eh]
	 Same-Spin Energy          =      -0.3343752144020868 [Eh]
	 Opposite-Spin Energy      =      -1.0153913351089505 [Eh]
	 Correlation Energy        =      -1.3497665495110374 [Eh]
	 Total Energy              =    -306.4328156099275589 [Eh]

	 ================> DF-SCS-MP2 Energies <==================
	-----------------------------------------------------------
	 SCS Same-Spin Scale       =       0.3333333333333333 [-]
	 SCS Opposite-Spin Scale   =       1.2000000000000000 [-]
	 SCS Same-Spin Energy      =      -0.1114584048006956 [Eh]
	 SCS Opposite-Spin Energy  =      -1.2184696021307406 [Eh]
	 SCS Correlation Energy    =      -1.3299280069314363 [Eh]
	 SCS Total Energy          =    -306.4129770673479243 [Eh]
	-----------------------------------------------------------

  Dipole Moment: [D]
     X:    -4.4823      Y:     0.0000      Z:     0.3773     Total:     4.4982

*** Psi4 exiting successfully. Buy a developer a beer!
