                               Psi4 1.3.2 release

  ==> Input File <==

--------------------------------------------------------------------------
#psi4
#
memory 32 gb

molecule  {
-1 1
  C        0.2864700    -1.2064390    -0.0000050
  C       -1.1050350    -1.1994800     0.0000040
  C       -1.8315300     0.0000000    -0.0000020
  C       -1.1050350     1.1994800     0.0000050
  C        0.2864700     1.2064400    -0.0000060
  C        1.0822590     0.0000000    -0.0000150
  O        2.3571420     0.0000000     0.0000100
  H        0.8322390    -2.1510540     0.0000040
  H       -1.6412820    -2.1526450     0.0000040
  H       -2.9206436    -0.0000011     0.3000130
  H       -1.6412830     2.1526450     0.0000060
  H        0.8322370     2.1510550     0.0000020
units angstrom
no_reorient  #important for SAPT in psi4, default
symmetry c1  #important for SAPT in psi4, default
}

set PROPERTIES_ORIGIN ["COM"]
properties('MP2/aug-cc-pvtz', properties = ['dipole'])
--------------------------------------------------------------------------

    Molecular point group: c1
  Charge       = -1
  Multiplicity = 1
  Basis Set: AUG-CC-PVTZ
    Blend: AUG-CC-PVTZ
  Basis Set: (AUG-CC-PVTZ AUX)
    Blend: AUG-CC-PVTZ-JKFIT

    Orbital Energies [Eh]
    ---------------------

    Doubly Occupied:

       1A    -20.291336     2A    -11.109575     3A    -11.078502
       4A    -11.078487     5A    -11.054194     6A    -11.041893
       7A    -11.041883     8A     -1.115834     9A     -0.953858
      10A     -0.836154    11A     -0.795179    12A     -0.645790
      13A     -0.619088    14A     -0.507987    15A     -0.456518
      16A     -0.454403    17A     -0.408146    18A     -0.388654
      19A     -0.351295    20A     -0.332848    21A     -0.324055
      22A     -0.267749    23A     -0.198694    24A     -0.173681
      25A     -0.090072

  @DF-RHF Final Energy:  -305.08426340474114

   => Energetics <=

    Nuclear Repulsion Energy =            258.8150436621046424
    One-Electron Energy =                -936.5668638709627203
    Two-Electron Energy =                 372.6675568041169981
    Total Energy =                       -305.0842634047411366
  Basis Set: (AUG-CC-PVTZ AUX)
    Blend: AUG-CC-PVTZ-RI
    Molecular point group: c1

    Geometry (in Angstrom), charge = -1, multiplicity = 1:

       Center              X                  Y                   Z               Mass
    ------------   -----------------  -----------------  -----------------  -----------------
         C            0.238194930811    -1.206439127902    -0.003254441672    12.000000000000
         C           -1.153310069189    -1.199480127902    -0.003245441672    12.000000000000
         C           -1.879805069189    -0.000000127902    -0.003251441672    12.000000000000
         C           -1.153310069189     1.199479872098    -0.003244441672    12.000000000000
         C            0.238194930811     1.206439872098    -0.003255441672    12.000000000000
         C            1.033983930811    -0.000000127902    -0.003264441672    12.000000000000
         O            2.308866930811    -0.000000127902    -0.003239441672    15.994914619570
         H            0.783963930811    -2.151054127902    -0.003245441672     1.007825032230
         H           -1.689557069189    -2.152645127902    -0.003245441672     1.007825032230
         H           -2.968918669189    -0.000001227902     0.296763558328     1.007825032230
         H           -1.689558069189     2.152644872098    -0.003243441672     1.007825032230
         H            0.783961930811     2.151054872098    -0.003247441672     1.007825032230

  Basis Set: AUG-CC-PVTZ
    Blend: AUG-CC-PVTZ
  Basis Set: (AUG-CC-PVTZ AUX)
    Blend: AUG-CC-PVTZ-JKFIT
	 Reference Energy          =    -305.0842634047411366 [Eh]
	 Singles Energy            =      -0.0000000000000000 [Eh]
	 Same-Spin Energy          =      -0.3338371548007800 [Eh]
	 Opposite-Spin Energy      =      -1.0146419660502946 [Eh]
	 Correlation Energy        =      -1.3484791208510747 [Eh]
	 Total Energy              =    -306.4327425255922321 [Eh]

	 ================> DF-SCS-MP2 Energies <==================
	-----------------------------------------------------------
	 SCS Same-Spin Scale       =       0.3333333333333333 [-]
	 SCS Opposite-Spin Scale   =       1.2000000000000000 [-]
	 SCS Same-Spin Energy      =      -0.1112790516002600 [Eh]
	 SCS Opposite-Spin Energy  =      -1.2175703592603535 [Eh]
	 SCS Correlation Energy    =      -1.3288494108606135 [Eh]
	 SCS Total Energy          =    -306.4131128156017780 [Eh]
	-----------------------------------------------------------

  Dipole Moment: [D]
     X:    -4.1187      Y:     0.0000      Z:     0.2528     Total:     4.1265

*** Psi4 exiting successfully. Buy a developer a beer!
