                               Psi4 1.3.2 release

  ==> Input File <==

--------------------------------------------------------------------------
#psi4
#
memory 32 gb

molecule  {
-1 1
  C        0.2864700    -1.2064390    -0.0000050
  C       -1.1050350    -1.1994800     0.0000040
  C       -1.8315300     0.0000000    -0.0000020
  C       -1.1050350     1.1994800     0.0000050
  C        0.2864700     1.2064400    -0.0000060
  C        1.0822590     0.0000000    -0.0000150
  O        2.3571420     0.0000000     0.0000100
  H        0.8322390    -2.1510540     0.0000040
  H       -1.6412820    -2.1526450     0.0000040
  H       -2.9206441    -0.0000011     0.2000130
  H       -1.6412830     2.1526450     0.0000060
  H        0.8322370     2.1510550     0.0000020
units angstrom
no_reorient  #important for SAPT in psi4, default
symmetry c1  #important for SAPT in psi4, default
}

set PROPERTIES_ORIGIN ["COM"]
properties('MP2/aug-cc-pvtz', properties = ['dipole'])
--------------------------------------------------------------------------

    Molecular point group: c1
  Charge       = -1
  Multiplicity = 1
  Basis Set: AUG-CC-PVTZ
    Blend: AUG-CC-PVTZ
  Basis Set: (AUG-CC-PVTZ AUX)
    Blend: AUG-CC-PVTZ-JKFIT

    Orbital Energies [Eh]
    ---------------------

    Doubly Occupied:

       1A    -20.290361     2A    -11.108750     3A    -11.078015
       4A    -11.078001     5A    -11.052363     6A    -11.041443
       7A    -11.041432     8A     -1.114999     9A     -0.953664
      10A     -0.835748    11A     -0.795683    12A     -0.645406
      13A     -0.619719    14A     -0.510747    15A     -0.456641
      16A     -0.453982    17A     -0.407761    18A     -0.389396
      19A     -0.349951    20A     -0.334965    21A     -0.323607
      22A     -0.268469    23A     -0.197896    24A     -0.173271
      25A     -0.089513

  @DF-RHF Final Energy:  -305.08719837289334

   => Energetics <=

    Nuclear Repulsion Energy =            258.8947177627341034
    One-Electron Energy =                -936.7402692768383758
    Two-Electron Energy =                 372.7583531412109323
    Total Energy =                       -305.0871983728933401
  Basis Set: (AUG-CC-PVTZ AUX)
    Blend: AUG-CC-PVTZ-RI
    Molecular point group: c1

    Geometry (in Angstrom), charge = -1, multiplicity = 1:

       Center              X                  Y                   Z               Mass
    ------------   -----------------  -----------------  -----------------  -----------------
         C            0.238194936228    -1.206439127902    -0.002171155345    12.000000000000
         C           -1.153310063772    -1.199480127902    -0.002162155345    12.000000000000
         C           -1.879805063772    -0.000000127902    -0.002168155345    12.000000000000
         C           -1.153310063772     1.199479872098    -0.002161155345    12.000000000000
         C            0.238194936228     1.206439872098    -0.002172155345    12.000000000000
         C            1.033983936228    -0.000000127902    -0.002181155345    12.000000000000
         O            2.308866936228    -0.000000127902    -0.002156155345    15.994914619570
         H            0.783963936228    -2.151054127902    -0.002162155345     1.007825032230
         H           -1.689557063772    -2.152645127902    -0.002162155345     1.007825032230
         H           -2.968919163772    -0.000001227902     0.197846844655     1.007825032230
         H           -1.689558063772     2.152644872098    -0.002160155345     1.007825032230
         H            0.783961936228     2.151054872098    -0.002164155345     1.007825032230

  Basis Set: AUG-CC-PVTZ
    Blend: AUG-CC-PVTZ
  Basis Set: (AUG-CC-PVTZ AUX)
    Blend: AUG-CC-PVTZ-JKFIT
	 Reference Energy          =    -305.0871983728933401 [Eh]
	 Singles Energy            =      -0.0000000000000000 [Eh]
	 Same-Spin Energy          =      -0.3337769580702246 [Eh]
	 Opposite-Spin Energy      =      -1.0142927536342632 [Eh]
	 Correlation Energy        =      -1.3480697117044877 [Eh]
	 Total Energy              =    -306.4352680845978512 [Eh]

	 ================> DF-SCS-MP2 Energies <==================
	-----------------------------------------------------------
	 SCS Same-Spin Scale       =       0.3333333333333333 [-]
	 SCS Opposite-Spin Scale   =       1.2000000000000000 [-]
	 SCS Same-Spin Energy      =      -0.1112589860234082 [Eh]
	 SCS Opposite-Spin Energy  =      -1.2171513043611157 [Eh]
	 SCS Correlation Energy    =      -1.3284102903845239 [Eh]
	 SCS Total Energy          =    -306.4156086632778511 [Eh]
	-----------------------------------------------------------

  Dipole Moment: [D]
     X:    -4.2117      Y:     0.0000      Z:     0.1735     Total:     4.2153

*** Psi4 exiting successfully. Buy a developer a beer!
