                               Psi4 1.3.2 release

  ==> Input File <==

--------------------------------------------------------------------------
#psi4
#
memory 32 gb

molecule  {
-1 1
  C        0.2864700    -1.2064390    -0.0000050
  C       -1.1050350    -1.1994800     0.0000040
  C       -1.8315300     0.0000000    -0.0000020
  C       -1.1050350     1.1994800     0.0000050
  C        0.2864700     1.2064400    -0.0000060
  C        1.0822590     0.0000000    -0.0000150
  O        2.3571420     0.0000000     0.0000100
  H        0.8322378    -2.1510565    -0.2999960
  H       -1.6412820    -2.1526450     0.0000040
  H       -2.9206450    -0.0000010     0.0000130
  H       -1.6412830     2.1526450     0.0000060
  H        0.8322370     2.1510550     0.0000020
units angstrom
no_reorient  #important for SAPT in psi4, default
symmetry c1  #important for SAPT in psi4, default
}

set PROPERTIES_ORIGIN ["COM"]
properties('MP2/aug-cc-pvtz', properties = ['dipole'])
--------------------------------------------------------------------------

    Molecular point group: c1
  Charge       = -1
  Multiplicity = 1
  Basis Set: AUG-CC-PVTZ
    Blend: AUG-CC-PVTZ
  Basis Set: (AUG-CC-PVTZ AUX)
    Blend: AUG-CC-PVTZ-JKFIT

    Orbital Energies [Eh]
    ---------------------

    Doubly Occupied:

       1A    -20.290366     2A    -11.108959     3A    -11.078641
       4A    -11.078455     5A    -11.051551     6A    -11.044758
       7A    -11.041933     8A     -1.114886     9A     -0.954172
      10A     -0.835211    11A     -0.796275    12A     -0.643669
      13A     -0.620470    14A     -0.511545    15A     -0.454802
      16A     -0.454035    17A     -0.406076    18A     -0.389495
      19A     -0.350970    20A     -0.336288    21A     -0.318617
      22A     -0.269513    23A     -0.198103    24A     -0.172482
      25A     -0.089691

  @DF-RHF Final Energy:  -305.08370761937044

   => Energetics <=

    Nuclear Repulsion Energy =            258.8069474509892984
    One-Electron Energy =                -936.5593852826573311
    Two-Electron Energy =                 372.6687302122975325
    Total Energy =                       -305.0837076193704434
  Basis Set: (AUG-CC-PVTZ AUX)
    Blend: AUG-CC-PVTZ-RI
    Molecular point group: c1

    Geometry (in Angstrom), charge = -1, multiplicity = 1:

       Center              X                  Y                   Z               Mass
    ------------   -----------------  -----------------  -----------------  -----------------
         C            0.238194958977    -1.206439101903     0.003245276289    12.000000000000
         C           -1.153310041023    -1.199480101903     0.003254276289    12.000000000000
         C           -1.879805041023    -0.000000101903     0.003248276289    12.000000000000
         C           -1.153310041023     1.199479898097     0.003255276289    12.000000000000
         C            0.238194958977     1.206439898097     0.003244276289    12.000000000000
         C            1.033983958977    -0.000000101903     0.003235276289    12.000000000000
         O            2.308866958977    -0.000000101903     0.003260276289    15.994914619570
         H            0.783962758977    -2.151056601903    -0.296745723711     1.007825032230
         H           -1.689557041023    -2.152645101903     0.003254276289     1.007825032230
         H           -2.968920041023    -0.000001101903     0.003263276289     1.007825032230
         H           -1.689558041023     2.152644898097     0.003256276289     1.007825032230
         H            0.783961958977     2.151054898097     0.003252276289     1.007825032230

  Basis Set: AUG-CC-PVTZ
    Blend: AUG-CC-PVTZ
  Basis Set: (AUG-CC-PVTZ AUX)
    Blend: AUG-CC-PVTZ-JKFIT
	 Reference Energy          =    -305.0837076193704434 [Eh]
	 Singles Energy            =      -0.0000000000000000 [Eh]
	 Same-Spin Energy          =      -0.3339481365411499 [Eh]
	 Opposite-Spin Energy      =      -1.0147067963507643 [Eh]
	 Correlation Energy        =      -1.3486549328919142 [Eh]
	 Total Energy              =    -306.4323625522623615 [Eh]

	 ================> DF-SCS-MP2 Energies <==================
	-----------------------------------------------------------
	 SCS Same-Spin Scale       =       0.3333333333333333 [-]
	 SCS Opposite-Spin Scale   =       1.2000000000000000 [-]
	 SCS Same-Spin Energy      =      -0.1113160455137166 [Eh]
	 SCS Opposite-Spin Energy  =      -1.2176481556209171 [Eh]
	 SCS Correlation Energy    =      -1.3289642011346336 [Eh]
	 SCS Total Energy          =    -306.4126718205050679 [Eh]
	-----------------------------------------------------------

  Dipole Moment: [D]
     X:    -4.3228      Y:     0.1028      Z:    -0.1988     Total:     4.3286

*** Psi4 exiting successfully. Buy a developer a beer!
