                               Psi4 1.3.2 release

  ==> Input File <==

--------------------------------------------------------------------------
#psi4
#
memory 32 gb

molecule  {
-1 1
  C        0.2864700    -1.2064390    -0.0000050
  C       -1.1050350    -1.1994800     0.0000040
  C       -1.8315300     0.0000000    -0.0000020
  C       -1.1050350     1.1994800     0.0000050
  C        0.2864700     1.2064400    -0.0000060
  C        1.0822590     0.0000000    -0.0000150
  O        2.3571420     0.0000000     0.0000100
  H        0.8322390    -2.1510540     0.0000040
  H       -1.6412812    -2.1526442     0.2500040
  H       -2.9206450    -0.0000010     0.0000130
  H       -1.6412830     2.1526450     0.0000060
  H        0.8322370     2.1510550     0.0000020
units angstrom
no_reorient  #important for SAPT in psi4, default
symmetry c1  #important for SAPT in psi4, default
}

set PROPERTIES_ORIGIN ["COM"]
properties('MP2/aug-cc-pvtz', properties = ['dipole'])
--------------------------------------------------------------------------

    Molecular point group: c1
  Charge       = -1
  Multiplicity = 1
  Basis Set: AUG-CC-PVTZ
    Blend: AUG-CC-PVTZ
  Basis Set: (AUG-CC-PVTZ AUX)
    Blend: AUG-CC-PVTZ-JKFIT

    Orbital Energies [Eh]
    ---------------------

    Doubly Occupied:

       1A    -20.289839     2A    -11.108464     3A    -11.080473
       4A    -11.078009     5A    -11.051521     6A    -11.041836
       7A    -11.041726     8A     -1.114636     9A     -0.953744
      10A     -0.835009    11A     -0.796490    12A     -0.644153
      13A     -0.619322    14A     -0.512451    15A     -0.454871
      16A     -0.453726    17A     -0.405647    18A     -0.390294
      19A     -0.349369    20A     -0.336655    21A     -0.322557
      22A     -0.268651    23A     -0.197696    24A     -0.172624
      25A     -0.089372

  @DF-RHF Final Energy:  -305.08504271398351

   => Energetics <=

    Nuclear Repulsion Energy =            258.8581080168802373
    One-Electron Energy =                -936.6680288936739771
    Two-Electron Energy =                 372.7248781628102279
    Total Energy =                       -305.0850427139835119
  Basis Set: (AUG-CC-PVTZ AUX)
    Blend: AUG-CC-PVTZ-RI
    Molecular point group: c1

    Geometry (in Angstrom), charge = -1, multiplicity = 1:

       Center              X                  Y                   Z               Mass
    ------------   -----------------  -----------------  -----------------  -----------------
         C            0.238194937311    -1.206439137651    -0.002712798508    12.000000000000
         C           -1.153310062689    -1.199480137651    -0.002703798508    12.000000000000
         C           -1.879805062689    -0.000000137651    -0.002709798508    12.000000000000
         C           -1.153310062689     1.199479862349    -0.002702798508    12.000000000000
         C            0.238194937311     1.206439862349    -0.002713798508    12.000000000000
         C            1.033983937311    -0.000000137651    -0.002722798508    12.000000000000
         O            2.308866937311    -0.000000137651    -0.002697798508    15.994914619570
         H            0.783963937311    -2.151054137651    -0.002703798508     1.007825032230
         H           -1.689556262689    -2.152644337651     0.247296201492     1.007825032230
         H           -2.968920062689    -0.000001137651    -0.002694798508     1.007825032230
         H           -1.689558062689     2.152644862349    -0.002701798508     1.007825032230
         H            0.783961937311     2.151054862349    -0.002705798508     1.007825032230

  Basis Set: AUG-CC-PVTZ
    Blend: AUG-CC-PVTZ
  Basis Set: (AUG-CC-PVTZ AUX)
    Blend: AUG-CC-PVTZ-JKFIT
	 Reference Energy          =    -305.0850427139835119 [Eh]
	 Singles Energy            =      -0.0000000000000000 [Eh]
	 Same-Spin Energy          =      -0.3340203690521030 [Eh]
	 Opposite-Spin Energy      =      -1.0147401507884224 [Eh]
	 Correlation Energy        =      -1.3487605198405255 [Eh]
	 Total Energy              =    -306.4338032338240509 [Eh]

	 ================> DF-SCS-MP2 Energies <==================
	-----------------------------------------------------------
	 SCS Same-Spin Scale       =       0.3333333333333333 [-]
	 SCS Opposite-Spin Scale   =       1.2000000000000000 [-]
	 SCS Same-Spin Energy      =      -0.1113401230173677 [Eh]
	 SCS Opposite-Spin Energy  =      -1.2176881809461069 [Eh]
	 SCS Correlation Energy    =      -1.3290283039634745 [Eh]
	 SCS Total Energy          =    -306.4140710179469806 [Eh]
	-----------------------------------------------------------

  Dipole Moment: [D]
     X:    -4.2450      Y:     0.0707      Z:     0.1583     Total:     4.2485

*** Psi4 exiting successfully. Buy a developer a beer!
