                               Psi4 1.3.2 release

  ==> Input File <==

--------------------------------------------------------------------------
#psi4
#
memory 32 gb

molecule  {
-1 1
  C        0.2864700    -1.2064390    -0.0000050
  C       -1.1050350    -1.1994800     0.0000040
  C       -1.8315300     0.0000000    -0.0000020
  C       -1.1050350     1.1994800     0.0000050
  C        0.2864700     1.2064400    -0.0000060
  C        1.0822590     0.0000000    -0.0000150
  O        2.3571420     0.0000000     0.0000100
  H        0.8322390    -2.1510540     0.0000040
  H       -1.6412814    -2.1526444     0.2000040
  H       -2.9206450    -0.0000010     0.0000130
  H       -1.6412830     2.1526450     0.0000060
  H        0.8322370     2.1510550     0.0000020
units angstrom
no_reorient  #important for SAPT in psi4, default
symmetry c1  #important for SAPT in psi4, default
}

set PROPERTIES_ORIGIN ["COM"]
properties('MP2/aug-cc-pvtz', properties = ['dipole'])
--------------------------------------------------------------------------

    Molecular point group: c1
  Charge       = -1
  Multiplicity = 1
  Basis Set: AUG-CC-PVTZ
    Blend: AUG-CC-PVTZ
  Basis Set: (AUG-CC-PVTZ AUX)
    Blend: AUG-CC-PVTZ-JKFIT

    Orbital Energies [Eh]
    ---------------------

    Doubly Occupied:

       1A    -20.289738     2A    -11.108322     3A    -11.079459
       4A    -11.077870     5A    -11.051286     6A    -11.041564
       7A    -11.041494     8A     -1.114520     9A     -0.953662
      10A     -0.835146    11A     -0.796367    12A     -0.644457
      13A     -0.619677    14A     -0.512692    15A     -0.455403
      16A     -0.453802    17A     -0.406312    18A     -0.390189
      19A     -0.349094    20A     -0.336731    21A     -0.322821
      22A     -0.268789    23A     -0.197534    24A     -0.172733
      25A     -0.089261

  @DF-RHF Final Energy:  -305.08662548153325

   => Energetics <=

    Nuclear Repulsion Energy =            258.8945382311217713
    One-Electron Energy =                -936.7444872760003136
    Two-Electron Energy =                 372.7633235633452387
    Total Energy =                       -305.0866254815332468
  Basis Set: (AUG-CC-PVTZ AUX)
    Blend: AUG-CC-PVTZ-RI
    Molecular point group: c1

    Geometry (in Angstrom), charge = -1, multiplicity = 1:

       Center              X                  Y                   Z               Mass
    ------------   -----------------  -----------------  -----------------  -----------------
         C            0.238194939478    -1.206439135485    -0.002171155345    12.000000000000
         C           -1.153310060522    -1.199480135485    -0.002162155345    12.000000000000
         C           -1.879805060522    -0.000000135485    -0.002168155345    12.000000000000
         C           -1.153310060522     1.199479864515    -0.002161155345    12.000000000000
         C            0.238194939478     1.206439864515    -0.002172155345    12.000000000000
         C            1.033983939478    -0.000000135485    -0.002181155345    12.000000000000
         O            2.308866939478    -0.000000135485    -0.002156155345    15.994914619570
         H            0.783963939478    -2.151054135485    -0.002162155345     1.007825032230
         H           -1.689556460522    -2.152644535485     0.197837844655     1.007825032230
         H           -2.968920060522    -0.000001135485    -0.002153155345     1.007825032230
         H           -1.689558060522     2.152644864515    -0.002160155345     1.007825032230
         H            0.783961939478     2.151054864515    -0.002164155345     1.007825032230

  Basis Set: AUG-CC-PVTZ
    Blend: AUG-CC-PVTZ
  Basis Set: (AUG-CC-PVTZ AUX)
    Blend: AUG-CC-PVTZ-JKFIT
	 Reference Energy          =    -305.0866254815332468 [Eh]
	 Singles Energy            =      -0.0000000000000000 [Eh]
	 Same-Spin Energy          =      -0.3339158964405046 [Eh]
	 Opposite-Spin Energy      =      -1.0144833947757657 [Eh]
	 Correlation Energy        =      -1.3483992912162703 [Eh]
	 Total Energy              =    -306.4350247727495002 [Eh]

	 ================> DF-SCS-MP2 Energies <==================
	-----------------------------------------------------------
	 SCS Same-Spin Scale       =       0.3333333333333333 [-]
	 SCS Opposite-Spin Scale   =       1.2000000000000000 [-]
	 SCS Same-Spin Energy      =      -0.1113052988135015 [Eh]
	 SCS Opposite-Spin Energy  =      -1.2173800737309188 [Eh]
	 SCS Correlation Energy    =      -1.3286853725444203 [Eh]
	 SCS Total Energy          =    -306.4153108540776884 [Eh]
	-----------------------------------------------------------

  Dipole Moment: [D]
     X:    -4.2606      Y:     0.0456      Z:     0.1285     Total:     4.2628

*** Psi4 exiting successfully. Buy a developer a beer!
