                               Psi4 1.3.2 release

  ==> Input File <==

--------------------------------------------------------------------------
#psi4
#
memory 32 gb

molecule  {
-1 1
  C        0.2864700    -1.2064390    -0.0000050
  C       -1.1050350    -1.1994800     0.0000040
  C       -1.8315300     0.0000000    -0.0000020
  C       -1.1050350     1.1994800     0.0000050
  C        0.2864700     1.2064400    -0.0000060
  C        1.0822590     0.0000000    -0.0000150
  O        2.3571420     0.0000000     0.0000100
  H        0.8322382    -2.1510557    -0.1999960
  H       -1.6412820    -2.1526450     0.0000040
  H       -2.9206450    -0.0000010     0.0000130
  H       -1.6412830     2.1526450     0.0000060
  H        0.8322370     2.1510550     0.0000020
units angstrom
no_reorient  #important for SAPT in psi4, default
symmetry c1  #important for SAPT in psi4, default
}

set PROPERTIES_ORIGIN ["COM"]
properties('MP2/aug-cc-pvtz', properties = ['dipole'])
--------------------------------------------------------------------------

    Molecular point group: c1
  Charge       = -1
  Multiplicity = 1
  Basis Set: AUG-CC-PVTZ
    Blend: AUG-CC-PVTZ
  Basis Set: (AUG-CC-PVTZ AUX)
    Blend: AUG-CC-PVTZ-JKFIT

    Orbital Energies [Eh]
    ---------------------

    Doubly Occupied:

       1A    -20.289927     2A    -11.108467     3A    -11.078082
       4A    -11.077991     5A    -11.051175     6A    -11.042736
       7A    -11.041460     8A     -1.114571     9A     -0.953812
      10A     -0.835310    11A     -0.796199    12A     -0.644407
      13A     -0.620386    14A     -0.512385    15A     -0.455746
      16A     -0.453894    17A     -0.406813    18A     -0.389805
      19A     -0.349772    20A     -0.336484    21A     -0.321241
      22A     -0.269252    23A     -0.197633    24A     -0.172725
      25A     -0.089342

  @DF-RHF Final Energy:  -305.08694505162498

   => Energetics <=

    Nuclear Repulsion Energy =            258.8911086852406811
    One-Electron Energy =                -936.7368766733221719
    Two-Electron Energy =                 372.7588229364564540
    Total Energy =                       -305.0869450516249799
  Basis Set: (AUG-CC-PVTZ AUX)
    Blend: AUG-CC-PVTZ-RI
    Molecular point group: c1

    Geometry (in Angstrom), charge = -1, multiplicity = 1:

       Center              X                  Y                   Z               Mass
    ------------   -----------------  -----------------  -----------------  -----------------
         C            0.238194954644    -1.206439110569     0.002161989962    12.000000000000
         C           -1.153310045356    -1.199480110569     0.002170989962    12.000000000000
         C           -1.879805045356    -0.000000110569     0.002164989962    12.000000000000
         C           -1.153310045356     1.199479889431     0.002171989962    12.000000000000
         C            0.238194954644     1.206439889431     0.002160989962    12.000000000000
         C            1.033983954644    -0.000000110569     0.002151989962    12.000000000000
         O            2.308866954644    -0.000000110569     0.002176989962    15.994914619570
         H            0.783963154644    -2.151055810569    -0.197829010038     1.007825032230
         H           -1.689557045356    -2.152645110569     0.002170989962     1.007825032230
         H           -2.968920045356    -0.000001110569     0.002179989962     1.007825032230
         H           -1.689558045356     2.152644889431     0.002172989962     1.007825032230
         H            0.783961954644     2.151054889431     0.002168989962     1.007825032230

  Basis Set: AUG-CC-PVTZ
    Blend: AUG-CC-PVTZ
  Basis Set: (AUG-CC-PVTZ AUX)
    Blend: AUG-CC-PVTZ-JKFIT
	 Reference Energy          =    -305.0869450516249799 [Eh]
	 Singles Energy            =      -0.0000000000000000 [Eh]
	 Same-Spin Energy          =      -0.3338258840277315 [Eh]
	 Opposite-Spin Energy      =      -1.0143145472634836 [Eh]
	 Correlation Energy        =      -1.3481404312912151 [Eh]
	 Total Energy              =    -306.4350854829161790 [Eh]

	 ================> DF-SCS-MP2 Energies <==================
	-----------------------------------------------------------
	 SCS Same-Spin Scale       =       0.3333333333333333 [-]
	 SCS Opposite-Spin Scale   =       1.2000000000000000 [-]
	 SCS Same-Spin Energy      =      -0.1112752946759105 [Eh]
	 SCS Opposite-Spin Energy  =      -1.2171774567161802 [Eh]
	 SCS Correlation Energy    =      -1.3284527513920907 [Eh]
	 SCS Total Energy          =    -306.4153978030170720 [Eh]
	-----------------------------------------------------------

  Dipole Moment: [D]
     X:    -4.3045      Y:     0.0466      Z:    -0.1365     Total:     4.3069

*** Psi4 exiting successfully. Buy a developer a beer!
