                               Psi4 1.3.2 release

  ==> Input File <==

--------------------------------------------------------------------------
#psi4
#
memory 32 gb

molecule  {
-1 1
  C        0.2864700    -1.2064390    -0.0000050
  C       -1.1050350    -1.1994800     0.0000040
  C       -1.8315300     0.0000000    -0.0000020
  C       -1.1050350     1.1994800     0.0000050
  C        0.2864700     1.2064400    -0.0000060
  C        1.0822590     0.0000000    -0.0000150
  O        2.3571420     0.0000000     0.0000100
  H        0.8322390    -2.1510540     0.0000040
  H       -1.6412820    -2.1526450     0.0000040
  H       -2.9206443    -0.0000011     0.1500130
  H       -1.6412830     2.1526450     0.0000060
  H        0.8322370     2.1510550     0.0000020
units angstrom
no_reorient  #important for SAPT in psi4, default
symmetry c1  #important for SAPT in psi4, default
}

set PROPERTIES_ORIGIN ["COM"]
properties('MP2/aug-cc-pvtz', properties = ['dipole'])
--------------------------------------------------------------------------

    Molecular point group: c1
  Charge       = -1
  Multiplicity = 1
  Basis Set: AUG-CC-PVTZ
    Blend: AUG-CC-PVTZ
  Basis Set: (AUG-CC-PVTZ AUX)
    Blend: AUG-CC-PVTZ-JKFIT

    Orbital Energies [Eh]
    ---------------------

    Doubly Occupied:

       1A    -20.290013     2A    -11.108456     3A    -11.077847
       4A    -11.077833     5A    -11.051712     6A    -11.041286
       7A    -11.041275     8A     -1.114701     9A     -0.953602
      10A     -0.835607    11A     -0.795881    12A     -0.645273
      13A     -0.619973    14A     -0.511790    15A     -0.456677
      16A     -0.453835    17A     -0.407627    18A     -0.389658
      19A     -0.349396    20A     -0.335777    21A     -0.323451
      22A     -0.268720    23A     -0.197612    24A     -0.173127
      25A     -0.089317

  @DF-RHF Final Energy:  -305.08813200470303

   => Energetics <=

    Nuclear Repulsion Energy =            258.9235000338143209
    One-Electron Energy =                -936.8023721725704718
    Two-Electron Energy =                 372.7907401340531237
    Total Energy =                       -305.0881320047030272
  Basis Set: (AUG-CC-PVTZ AUX)
    Blend: AUG-CC-PVTZ-RI
    Molecular point group: c1

    Geometry (in Angstrom), charge = -1, multiplicity = 1:

       Center              X                  Y                   Z               Mass
    ------------   -----------------  -----------------  -----------------  -----------------
         C            0.238194938394    -1.206439127902    -0.001629512181    12.000000000000
         C           -1.153310061606    -1.199480127902    -0.001620512181    12.000000000000
         C           -1.879805061606    -0.000000127902    -0.001626512181    12.000000000000
         C           -1.153310061606     1.199479872098    -0.001619512181    12.000000000000
         C            0.238194938394     1.206439872098    -0.001630512181    12.000000000000
         C            1.033983938394    -0.000000127902    -0.001639512181    12.000000000000
         O            2.308866938394    -0.000000127902    -0.001614512181    15.994914619570
         H            0.783963938394    -2.151054127902    -0.001620512181     1.007825032230
         H           -1.689557061606    -2.152645127902    -0.001620512181     1.007825032230
         H           -2.968919361606    -0.000001227902     0.148388487819     1.007825032230
         H           -1.689558061606     2.152644872098    -0.001618512181     1.007825032230
         H            0.783961938394     2.151054872098    -0.001622512181     1.007825032230

  Basis Set: AUG-CC-PVTZ
    Blend: AUG-CC-PVTZ
  Basis Set: (AUG-CC-PVTZ AUX)
    Blend: AUG-CC-PVTZ-JKFIT
	 Reference Energy          =    -305.0881320047030272 [Eh]
	 Singles Energy            =      -0.0000000000000000 [Eh]
	 Same-Spin Energy          =      -0.3337533108801640 [Eh]
	 Opposite-Spin Energy      =      -1.0141708830514853 [Eh]
	 Correlation Energy        =      -1.3479241939316493 [Eh]
	 Total Energy              =    -306.4360561986346738 [Eh]

	 ================> DF-SCS-MP2 Energies <==================
	-----------------------------------------------------------
	 SCS Same-Spin Scale       =       0.3333333333333333 [-]
	 SCS Opposite-Spin Scale   =       1.2000000000000000 [-]
	 SCS Same-Spin Energy      =      -0.1112511036267213 [Eh]
	 SCS Opposite-Spin Energy  =      -1.2170050596617823 [Eh]
	 SCS Correlation Energy    =      -1.3282561632885037 [Eh]
	 SCS Total Energy          =    -306.4163881679915562 [Eh]
	-----------------------------------------------------------

  Dipole Moment: [D]
     X:    -4.2453      Y:     0.0000      Z:     0.1314     Total:     4.2473

*** Psi4 exiting successfully. Buy a developer a beer!
