                               Psi4 1.3.2 release

  ==> Input File <==

--------------------------------------------------------------------------
#psi4
#
memory 32 gb

molecule  {
-1 1
  C        0.2864700    -1.2064390    -0.0000050
  C       -1.1050350    -1.1994800     0.0000040
  C       -1.8315300     0.0000000    -0.0000020
  C       -1.1050350     1.1994800     0.0000050
  C        0.2864700     1.2064400    -0.0000060
  C        1.0822590     0.0000000    -0.0000150
  O        2.3571420     0.0000000     0.0000100
  H        0.8322390    -2.1510540     0.0000040
  H       -1.6412817    -2.1526447     0.1000040
  H       -2.9206450    -0.0000010     0.0000130
  H       -1.6412830     2.1526450     0.0000060
  H        0.8322370     2.1510550     0.0000020
units angstrom
no_reorient  #important for SAPT in psi4, default
symmetry c1  #important for SAPT in psi4, default
}

set PROPERTIES_ORIGIN ["COM"]
properties('MP2/aug-cc-pvtz', properties = ['dipole'])
--------------------------------------------------------------------------

    Molecular point group: c1
  Charge       = -1
  Multiplicity = 1
  Basis Set: AUG-CC-PVTZ
    Blend: AUG-CC-PVTZ
  Basis Set: (AUG-CC-PVTZ AUX)
    Blend: AUG-CC-PVTZ-JKFIT

    Orbital Energies [Eh]
    ---------------------

    Doubly Occupied:

       1A    -20.289605     2A    -11.108136     3A    -11.078088
       4A    -11.077687     5A    -11.050974     6A    -11.041202
       7A    -11.041182     8A     -1.114365     9A     -0.953559
      10A     -0.835352    11A     -0.796207    12A     -0.644928
      13A     -0.620164    14A     -0.513058    15A     -0.456367
      16A     -0.453700    17A     -0.407176    18A     -0.390044
      19A     -0.348712    20A     -0.336862    21A     -0.323149
      22A     -0.268978    23A     -0.197316    24A     -0.172889
      25A     -0.089115

  @DF-RHF Final Energy:  -305.08861851861718

   => Energetics <=

    Nuclear Repulsion Energy =            258.9443189357590427
    One-Electron Energy =                -936.8482499587684060
    Two-Electron Energy =                 372.8153125043921818
    Total Energy =                       -305.0886185186171815
  Basis Set: (AUG-CC-PVTZ AUX)
    Blend: AUG-CC-PVTZ-RI
    Molecular point group: c1

    Geometry (in Angstrom), charge = -1, multiplicity = 1:

       Center              X                  Y                   Z               Mass
    ------------   -----------------  -----------------  -----------------  -----------------
         C            0.238194942727    -1.206439132235    -0.001087869018    12.000000000000
         C           -1.153310057273    -1.199480132235    -0.001078869018    12.000000000000
         C           -1.879805057273    -0.000000132235    -0.001084869018    12.000000000000
         C           -1.153310057273     1.199479867765    -0.001077869018    12.000000000000
         C            0.238194942727     1.206439867765    -0.001088869018    12.000000000000
         C            1.033983942727    -0.000000132235    -0.001097869018    12.000000000000
         O            2.308866942727    -0.000000132235    -0.001072869018    15.994914619570
         H            0.783963942727    -2.151054132235    -0.001078869018     1.007825032230
         H           -1.689556757273    -2.152644832235     0.098921130982     1.007825032230
         H           -2.968920057273    -0.000001132235    -0.001069869018     1.007825032230
         H           -1.689558057273     2.152644867765    -0.001076869018     1.007825032230
         H            0.783961942727     2.151054867765    -0.001080869018     1.007825032230

  Basis Set: AUG-CC-PVTZ
    Blend: AUG-CC-PVTZ
  Basis Set: (AUG-CC-PVTZ AUX)
    Blend: AUG-CC-PVTZ-JKFIT
	 Reference Energy          =    -305.0886185186171815 [Eh]
	 Singles Energy            =      -0.0000000000000000 [Eh]
	 Same-Spin Energy          =      -0.3337702780342291 [Eh]
	 Opposite-Spin Energy      =      -1.0141337609915966 [Eh]
	 Correlation Energy        =      -1.3479040390258257 [Eh]
	 Total Energy              =    -306.4365225576430021 [Eh]

	 ================> DF-SCS-MP2 Energies <==================
	-----------------------------------------------------------
	 SCS Same-Spin Scale       =       0.3333333333333333 [-]
	 SCS Opposite-Spin Scale   =       1.2000000000000000 [-]
	 SCS Same-Spin Energy      =      -0.1112567593447430 [Eh]
	 SCS Opposite-Spin Energy  =      -1.2169605131899159 [Eh]
	 SCS Correlation Energy    =      -1.3282172725346590 [Eh]
	 SCS Total Energy          =    -306.4168357911518683 [Eh]
	-----------------------------------------------------------

  Dipole Moment: [D]
     X:    -4.2822      Y:     0.0116      Z:     0.0656     Total:     4.2827

*** Psi4 exiting successfully. Buy a developer a beer!
