                               Psi4 1.3.2 release

  ==> Input File <==

--------------------------------------------------------------------------
#psi4
#
memory 32 gb

molecule  {
-1 1
  C        0.2864700    -1.2064390    -0.0000050
  C       -1.1050350    -1.1994800     0.0000040
  C       -1.8315300     0.0000000    -0.0000020
  C       -1.1050350     1.1994800     0.0000050
  C        0.2864700     1.2064400    -0.0000060
  C        1.0822590     0.0000000    -0.0000150
  O        2.3571420     0.0000000     0.0000100
  H        0.8322390    -2.1510540     0.0000040
  H       -1.6412820    -2.1526450     0.0000040
  H       -2.9206445    -0.0000010     0.1000130
  H       -1.6412830     2.1526450     0.0000060
  H        0.8322370     2.1510550     0.0000020
units angstrom
no_reorient  #important for SAPT in psi4, default
symmetry c1  #important for SAPT in psi4, default
}

set PROPERTIES_ORIGIN ["COM"]
properties('MP2/aug-cc-pvtz', properties = ['dipole'])
--------------------------------------------------------------------------

    Molecular point group: c1
  Charge       = -1
  Multiplicity = 1
  Basis Set: AUG-CC-PVTZ
    Blend: AUG-CC-PVTZ
  Basis Set: (AUG-CC-PVTZ AUX)
    Blend: AUG-CC-PVTZ-JKFIT

    Orbital Energies [Eh]
    ---------------------

    Doubly Occupied:

       1A    -20.289763     2A    -11.108244     3A    -11.077728
       4A    -11.077714     5A    -11.051246     6A    -11.041174
       7A    -11.041163     8A     -1.114486     9A     -0.953559
      10A     -0.835507    11A     -0.796031    12A     -0.645179
      13A     -0.620166    14A     -0.512561    15A     -0.456700
      16A     -0.453731    17A     -0.407533    18A     -0.389845
      19A     -0.348959    20A     -0.336393    21A     -0.323340
      22A     -0.268899    23A     -0.197407    24A     -0.173025
      25A     -0.089178

  @DF-RHF Final Energy:  -305.08876493979778

   => Energetics <=

    Nuclear Repulsion Energy =            258.9443584261281330
    One-Electron Energy =                -936.8471815360559276
    Two-Electron Energy =                 372.8140581701300107
    Total Energy =                       -305.0887649397977839
  Basis Set: (AUG-CC-PVTZ AUX)
    Blend: AUG-CC-PVTZ-RI
    Molecular point group: c1

    Geometry (in Angstrom), charge = -1, multiplicity = 1:

       Center              X                  Y                   Z               Mass
    ------------   -----------------  -----------------  -----------------  -----------------
         C            0.238194940561    -1.206439128985    -0.001087869018    12.000000000000
         C           -1.153310059439    -1.199480128985    -0.001078869018    12.000000000000
         C           -1.879805059439    -0.000000128985    -0.001084869018    12.000000000000
         C           -1.153310059439     1.199479871015    -0.001077869018    12.000000000000
         C            0.238194940561     1.206439871015    -0.001088869018    12.000000000000
         C            1.033983940561    -0.000000128985    -0.001097869018    12.000000000000
         O            2.308866940561    -0.000000128985    -0.001072869018    15.994914619570
         H            0.783963940561    -2.151054128985    -0.001078869018     1.007825032230
         H           -1.689557059439    -2.152645128985    -0.001078869018     1.007825032230
         H           -2.968919559439    -0.000001128985     0.098930130982     1.007825032230
         H           -1.689558059439     2.152644871015    -0.001076869018     1.007825032230
         H            0.783961940561     2.151054871015    -0.001080869018     1.007825032230

  Basis Set: AUG-CC-PVTZ
    Blend: AUG-CC-PVTZ
  Basis Set: (AUG-CC-PVTZ AUX)
    Blend: AUG-CC-PVTZ-JKFIT
	 Reference Energy          =    -305.0887649397977839 [Eh]
	 Singles Energy            =      -0.0000000000000000 [Eh]
	 Same-Spin Energy          =      -0.3337349542389572 [Eh]
	 Opposite-Spin Energy      =      -1.0140836097950876 [Eh]
	 Correlation Energy        =      -1.3478185640340448 [Eh]
	 Total Energy              =    -306.4365835038318551 [Eh]

	 ================> DF-SCS-MP2 Energies <==================
	-----------------------------------------------------------
	 SCS Same-Spin Scale       =       0.3333333333333333 [-]
	 SCS Opposite-Spin Scale   =       1.2000000000000000 [-]
	 SCS Same-Spin Energy      =      -0.1112449847463191 [Eh]
	 SCS Opposite-Spin Energy  =      -1.2169003317541052 [Eh]
	 SCS Correlation Energy    =      -1.3281453165004242 [Eh]
	 SCS Total Energy          =    -306.4169102562981948 [Eh]
	-----------------------------------------------------------

  Dipole Moment: [D]
     X:    -4.2698      Y:     0.0000      Z:     0.0882     Total:     4.2707

*** Psi4 exiting successfully. Buy a developer a beer!
