                               Psi4 1.3.2 release

  ==> Input File <==

--------------------------------------------------------------------------
#psi4
#
memory 32 gb

molecule  {
-1 1
  C        0.2864700    -1.2064390    -0.0000050
  C       -1.1050350    -1.1994800     0.0000040
  C       -1.8315300     0.0000000    -0.0000020
  C       -1.1050350     1.1994800     0.0000050
  C        0.2864700     1.2064400    -0.0000060
  C        1.0822590     0.0000000    -0.0000150
  O        2.3571420     0.0000000     0.0000100
  H        0.8322390    -2.1510540     0.0000040
  H       -1.6412818    -2.1526448     0.0500040
  H       -2.9206450    -0.0000010     0.0000130
  H       -1.6412830     2.1526450     0.0000060
  H        0.8322370     2.1510550     0.0000020
units angstrom
no_reorient  #important for SAPT in psi4, default
symmetry c1  #important for SAPT in psi4, default
}

set PROPERTIES_ORIGIN ["COM"]
properties('MP2/aug-cc-pvtz', properties = ['dipole'])
--------------------------------------------------------------------------

    Molecular point group: c1
  Charge       = -1
  Multiplicity = 1
  Basis Set: AUG-CC-PVTZ
    Blend: AUG-CC-PVTZ
  Basis Set: (AUG-CC-PVTZ AUX)
    Blend: AUG-CC-PVTZ-JKFIT

    Orbital Energies [Eh]
    ---------------------

    Doubly Occupied:

       1A    -20.289572     2A    -11.108089     3A    -11.077743
       4A    -11.077642     5A    -11.050898     6A    -11.041114
       7A    -11.041102     8A     -1.114326     9A     -0.953535
      10A     -0.835409    11A     -0.796169    12A     -0.645059
      13A     -0.620287    14A     -0.513158    15A     -0.456629
      16A     -0.453662    17A     -0.407388    18A     -0.390007
      19A     -0.348613    20A     -0.336900    21A     -0.323226
      22A     -0.269026    23A     -0.197261    24A     -0.172930
      25A     -0.089079

  @DF-RHF Final Energy:  -305.08909336664948

   => Energetics <=

    Nuclear Repulsion Energy =            258.9569880598429563
    One-Electron Energy =                -936.8745116059567408
    Two-Electron Energy =                 372.8284301794643056
    Total Energy =                       -305.0890933666494789
  Basis Set: (AUG-CC-PVTZ AUX)
    Blend: AUG-CC-PVTZ-RI
    Molecular point group: c1

    Geometry (in Angstrom), charge = -1, multiplicity = 1:

       Center              X                  Y                   Z               Mass
    ------------   -----------------  -----------------  -----------------  -----------------
         C            0.238194943811    -1.206439131152    -0.000546225855    12.000000000000
         C           -1.153310056189    -1.199480131152    -0.000537225855    12.000000000000
         C           -1.879805056189    -0.000000131152    -0.000543225855    12.000000000000
         C           -1.153310056189     1.199479868848    -0.000536225855    12.000000000000
         C            0.238194943811     1.206439868848    -0.000547225855    12.000000000000
         C            1.033983943811    -0.000000131152    -0.000556225855    12.000000000000
         O            2.308866943811    -0.000000131152    -0.000531225855    15.994914619570
         H            0.783963943811    -2.151054131152    -0.000537225855     1.007825032230
         H           -1.689556856189    -2.152644931152     0.049462774145     1.007825032230
         H           -2.968920056189    -0.000001131152    -0.000528225855     1.007825032230
         H           -1.689558056189     2.152644868848    -0.000535225855     1.007825032230
         H            0.783961943811     2.151054868848    -0.000539225855     1.007825032230

  Basis Set: AUG-CC-PVTZ
    Blend: AUG-CC-PVTZ
  Basis Set: (AUG-CC-PVTZ AUX)
    Blend: AUG-CC-PVTZ-JKFIT
	 Reference Energy          =    -305.0890933666494789 [Eh]
	 Singles Energy            =      -0.0000000000000000 [Eh]
	 Same-Spin Energy          =      -0.3337318486492847 [Eh]
	 Opposite-Spin Energy      =      -1.0140436116541993 [Eh]
	 Correlation Energy        =      -1.3477754603034842 [Eh]
	 Total Energy              =    -306.4368688269529457 [Eh]

	 ================> DF-SCS-MP2 Energies <==================
	-----------------------------------------------------------
	 SCS Same-Spin Scale       =       0.3333333333333333 [-]
	 SCS Opposite-Spin Scale   =       1.2000000000000000 [-]
	 SCS Same-Spin Energy      =      -0.1112439495497616 [Eh]
	 SCS Opposite-Spin Energy  =      -1.2168523339850392 [Eh]
	 SCS Correlation Energy    =      -1.3280962835348009 [Eh]
	 SCS Total Energy          =    -306.4171896501842980 [Eh]
	-----------------------------------------------------------

  Dipole Moment: [D]
     X:    -4.2879      Y:     0.0029      Z:     0.0330     Total:     4.2880

*** Psi4 exiting successfully. Buy a developer a beer!
