                               Psi4 1.3.2 release

  ==> Input File <==

--------------------------------------------------------------------------
#psi4
#
memory 32 gb

molecule  {
-1 1
  C        0.2864700    -1.2064390    -0.0000050
  C       -1.1050350    -1.1994800     0.0000040
  C       -1.8315300     0.0000000    -0.0000020
  C       -1.1050350     1.1994800     0.0000050
  C        0.2864700     1.2064400    -0.0000060
  C        1.0822590     0.0000000    -0.0000150
  O        2.3571420     0.0000000     0.0000100
  H        0.8322388    -2.1510544    -0.0499960
  H       -1.6412820    -2.1526450     0.0000040
  H       -2.9206450    -0.0000010     0.0000130
  H       -1.6412830     2.1526450     0.0000060
  H        0.8322370     2.1510550     0.0000020
units angstrom
no_reorient  #important for SAPT in psi4, default
symmetry c1  #important for SAPT in psi4, default
}

set PROPERTIES_ORIGIN ["COM"]
properties('MP2/aug-cc-pvtz', properties = ['dipole'])
--------------------------------------------------------------------------

    Molecular point group: c1
  Charge       = -1
  Multiplicity = 1
  Basis Set: AUG-CC-PVTZ
    Blend: AUG-CC-PVTZ
  Basis Set: (AUG-CC-PVTZ AUX)
    Blend: AUG-CC-PVTZ-JKFIT

    Orbital Energies [Eh]
    ---------------------

    Doubly Occupied:

       1A    -20.289585     2A    -11.108098     3A    -11.077660
       4A    -11.077646     5A    -11.050891     6A    -11.041185
       7A    -11.041103     8A     -1.114330     9A     -0.953545
      10A     -0.835420    11A     -0.796158    12A     -0.645058
      13A     -0.620332    14A     -0.513138    15A     -0.456655
      16A     -0.453665    17A     -0.407417    18A     -0.389985
      19A     -0.348663    20A     -0.336876    21A     -0.323130
      22A     -0.269055    23A     -0.197268    24A     -0.172930
      25A     -0.089084

  @DF-RHF Final Energy:  -305.08911396461798

   => Energetics <=

    Nuclear Repulsion Energy =            258.9567712054823119
    One-Electron Energy =                -936.8740205203215510
    Two-Electron Energy =                 372.8281353502212028
    Total Energy =                       -305.0891139646179795
  Basis Set: (AUG-CC-PVTZ AUX)
    Blend: AUG-CC-PVTZ-RI
    Molecular point group: c1

    Geometry (in Angstrom), charge = -1, multiplicity = 1:

       Center              X                  Y                   Z               Mass
    ------------   -----------------  -----------------  -----------------  -----------------
         C            0.238194948144    -1.206439124652     0.000537060472    12.000000000000
         C           -1.153310051856    -1.199480124652     0.000546060472    12.000000000000
         C           -1.879805051856    -0.000000124652     0.000540060472    12.000000000000
         C           -1.153310051856     1.199479875348     0.000547060472    12.000000000000
         C            0.238194948144     1.206439875348     0.000536060472    12.000000000000
         C            1.033983948144    -0.000000124652     0.000527060472    12.000000000000
         O            2.308866948144    -0.000000124652     0.000552060472    15.994914619570
         H            0.783963748144    -2.151054524652    -0.049453939528     1.007825032230
         H           -1.689557051856    -2.152645124652     0.000546060472     1.007825032230
         H           -2.968920051856    -0.000001124652     0.000555060472     1.007825032230
         H           -1.689558051856     2.152644875348     0.000548060472     1.007825032230
         H            0.783961948144     2.151054875348     0.000544060472     1.007825032230

  Basis Set: AUG-CC-PVTZ
    Blend: AUG-CC-PVTZ
  Basis Set: (AUG-CC-PVTZ AUX)
    Blend: AUG-CC-PVTZ-JKFIT
	 Reference Energy          =    -305.0891139646179795 [Eh]
	 Singles Energy            =      -0.0000000000000000 [Eh]
	 Same-Spin Energy          =      -0.3337258590001922 [Eh]
	 Opposite-Spin Energy      =      -1.0140308591889573 [Eh]
	 Correlation Energy        =      -1.3477567181891494 [Eh]
	 Total Energy              =    -306.4368706828071254 [Eh]

	 ================> DF-SCS-MP2 Energies <==================
	-----------------------------------------------------------
	 SCS Same-Spin Scale       =       0.3333333333333333 [-]
	 SCS Opposite-Spin Scale   =       1.2000000000000000 [-]
	 SCS Same-Spin Energy      =      -0.1112419530000641 [Eh]
	 SCS Opposite-Spin Energy  =      -1.2168370310267487 [Eh]
	 SCS Correlation Energy    =      -1.3280789840268128 [Eh]
	 SCS Total Energy          =    -306.4171929486448107 [Eh]
	-----------------------------------------------------------

  Dipole Moment: [D]
     X:    -4.2908      Y:     0.0030      Z:    -0.0349     Total:     4.2909

*** Psi4 exiting successfully. Buy a developer a beer!
