                               Psi4 1.3.2 release

  ==> Input File <==

--------------------------------------------------------------------------
#psi4
#
memory 32 gb

molecule  {
-1 1
  C        0.2864700    -1.2064390    -0.0000050
  C       -1.1050350    -1.1994800     0.0000040
  C       -1.8315300     0.0000000    -0.0000020
  C       -1.1050350     1.1994800     0.0000050
  C        0.2864700     1.2064400    -0.0000060
  C        1.0822590     0.0000000    -0.0000150
  O        2.3571427    -0.0000000    -0.0999900
  H        0.8322390    -2.1510540     0.0000040
  H       -1.6412820    -2.1526450     0.0000040
  H       -2.9206450    -0.0000010     0.0000130
  H       -1.6412830     2.1526450     0.0000060
  H        0.8322370     2.1510550     0.0000020
units angstrom
no_reorient  #important for SAPT in psi4, default
symmetry c1  #important for SAPT in psi4, default
}

set PROPERTIES_ORIGIN ["COM"]
properties('MP2/aug-cc-pvtz', properties = ['dipole'])
--------------------------------------------------------------------------

    Molecular point group: c1
  Charge       = -1
  Multiplicity = 1
  Basis Set: AUG-CC-PVTZ
    Blend: AUG-CC-PVTZ
  Basis Set: (AUG-CC-PVTZ AUX)
    Blend: AUG-CC-PVTZ-JKFIT

    Orbital Energies [Eh]
    ---------------------

    Doubly Occupied:

       1A    -20.289363     2A    -11.108466     3A    -11.077810
       4A    -11.077797     5A    -11.051275     6A    -11.041530
       7A    -11.041520     8A     -1.111898     9A     -0.953720
      10A     -0.835665    11A     -0.796429    12A     -0.645216
      13A     -0.620631    14A     -0.513463    15A     -0.456780
      16A     -0.453521    17A     -0.407687    18A     -0.389444
      19A     -0.348310    20A     -0.336315    21A     -0.323125
      22A     -0.268420    23A     -0.197212    24A     -0.173010
      25A     -0.089266

  @DF-RHF Final Energy:  -305.08830139543483

   => Energetics <=

    Nuclear Repulsion Energy =            258.8720154621348115
    One-Electron Energy =                -936.7048897761644639
    Two-Electron Energy =                 372.7445729185947698
    Total Energy =                       -305.0883013954348257
  Basis Set: (AUG-CC-PVTZ AUX)
    Blend: AUG-CC-PVTZ-RI
    Molecular point group: c1

    Geometry (in Angstrom), charge = -1, multiplicity = 1:

       Center              X                  Y                   Z               Mass
    ------------   -----------------  -----------------  -----------------  -----------------
         C            0.238194825629    -1.206439128985     0.017187957434    12.000000000000
         C           -1.153310174371    -1.199480128985     0.017196957434    12.000000000000
         C           -1.879805174371    -0.000000128985     0.017190957434    12.000000000000
         C           -1.153310174371     1.199479871015     0.017197957434    12.000000000000
         C            0.238194825629     1.206439871015     0.017186957434    12.000000000000
         C            1.033983825629    -0.000000128985     0.017177957434    12.000000000000
         O            2.308867525629    -0.000000128985    -0.082797042566    15.994914619570
         H            0.783963825629    -2.151054128985     0.017196957434     1.007825032230
         H           -1.689557174371    -2.152645128985     0.017196957434     1.007825032230
         H           -2.968920174371    -0.000001128985     0.017205957434     1.007825032230
         H           -1.689558174371     2.152644871015     0.017198957434     1.007825032230
         H            0.783961825629     2.151054871015     0.017194957434     1.007825032230

  Basis Set: AUG-CC-PVTZ
    Blend: AUG-CC-PVTZ
  Basis Set: (AUG-CC-PVTZ AUX)
    Blend: AUG-CC-PVTZ-JKFIT
	 Reference Energy          =    -305.0883013954348257 [Eh]
	 Singles Energy            =      -0.0000000000000000 [Eh]
	 Same-Spin Energy          =      -0.3338270972762695 [Eh]
	 Opposite-Spin Energy      =      -1.0142296968248457 [Eh]
	 Correlation Energy        =      -1.3480567941011152 [Eh]
	 Total Energy              =    -306.4363581895359516 [Eh]

	 ================> DF-SCS-MP2 Energies <==================
	-----------------------------------------------------------
	 SCS Same-Spin Scale       =       0.3333333333333333 [-]
	 SCS Opposite-Spin Scale   =       1.2000000000000000 [-]
	 SCS Same-Spin Energy      =      -0.1112756990920898 [Eh]
	 SCS Opposite-Spin Energy  =      -1.2170756361898147 [Eh]
	 SCS Correlation Energy    =      -1.3283513352819045 [Eh]
	 SCS Total Energy          =    -306.4166527307167485 [Eh]
	-----------------------------------------------------------

  Dipole Moment: [D]
     X:    -4.3211      Y:     0.0000      Z:     0.1465     Total:     4.3235

*** Psi4 exiting successfully. Buy a developer a beer!
