                               Psi4 1.3.2 release

  ==> Input File <==

--------------------------------------------------------------------------
#psi4
#
memory 32 gb

molecule  {
-1 1
  C        0.2864700    -1.2064390    -0.0000050
  C       -1.1050350    -1.1994800     0.0000040
  C       -1.8315300     0.0000000    -0.0000020
  C       -1.1050350     1.1994800     0.0000050
  C        0.2864700     1.2064400    -0.0000060
  C        1.0822590     0.0000000    -0.0000150
  O        2.3571431    -0.0000001    -0.1499900
  H        0.8322390    -2.1510540     0.0000040
  H       -1.6412820    -2.1526450     0.0000040
  H       -2.9206450    -0.0000010     0.0000130
  H       -1.6412830     2.1526450     0.0000060
  H        0.8322370     2.1510550     0.0000020
units angstrom
no_reorient  #important for SAPT in psi4, default
symmetry c1  #important for SAPT in psi4, default
}

set PROPERTIES_ORIGIN ["COM"]
properties('MP2/aug-cc-pvtz', properties = ['dipole'])
--------------------------------------------------------------------------

    Molecular point group: c1
  Charge       = -1
  Multiplicity = 1
  Basis Set: AUG-CC-PVTZ
    Blend: AUG-CC-PVTZ
  Basis Set: (AUG-CC-PVTZ AUX)
    Blend: AUG-CC-PVTZ-JKFIT

    Orbital Energies [Eh]
    ---------------------

    Doubly Occupied:

       1A    -20.289115     2A    -11.108943     3A    -11.078028
       4A    -11.078015     5A    -11.051778     6A    -11.042083
       7A    -11.042072     8A     -1.108913     9A     -0.953956
      10A     -0.835959    11A     -0.796769    12A     -0.645356
      13A     -0.621006    14A     -0.513799    15A     -0.456863
      16A     -0.453372    17A     -0.407970    18A     -0.388782
      19A     -0.348000    20A     -0.335536    21A     -0.322972
      22A     -0.267635    23A     -0.197165    24A     -0.173089
      25A     -0.089517

  @DF-RHF Final Energy:  -305.08709096119389

   => Energetics <=

    Nuclear Repulsion Energy =            258.7613496187855731
    One-Electron Energy =                -936.4834950961836739
    Two-Electron Energy =                 372.6350545162041499
    Total Energy =                       -305.0870909611938941
  Basis Set: (AUG-CC-PVTZ AUX)
    Blend: AUG-CC-PVTZ-RI
    Molecular point group: c1

    Geometry (in Angstrom), charge = -1, multiplicity = 1:

       Center              X                  Y                   Z               Mass
    ------------   -----------------  -----------------  -----------------  -----------------
         C            0.238194756859    -1.206439111793     0.025784227497    12.000000000000
         C           -1.153310243141    -1.199480111793     0.025793227497    12.000000000000
         C           -1.879805243141    -0.000000111793     0.025787227497    12.000000000000
         C           -1.153310243141     1.199479888207     0.025794227497    12.000000000000
         C            0.238194756859     1.206439888207     0.025783227497    12.000000000000
         C            1.033983756859    -0.000000111793     0.025774227497    12.000000000000
         O            2.308867856859    -0.000000211793    -0.124200772503    15.994914619570
         H            0.783963756859    -2.151054111793     0.025793227497     1.007825032230
         H           -1.689557243141    -2.152645111793     0.025793227497     1.007825032230
         H           -2.968920243141    -0.000001111793     0.025802227497     1.007825032230
         H           -1.689558243141     2.152644888207     0.025795227497     1.007825032230
         H            0.783961756859     2.151054888207     0.025791227497     1.007825032230

  Basis Set: AUG-CC-PVTZ
    Blend: AUG-CC-PVTZ
  Basis Set: (AUG-CC-PVTZ AUX)
    Blend: AUG-CC-PVTZ-JKFIT
	 Reference Energy          =    -305.0870909611938941 [Eh]
	 Singles Energy            =      -0.0000000000000000 [Eh]
	 Same-Spin Energy          =      -0.3339608464984911 [Eh]
	 Opposite-Spin Energy      =      -1.0145049403413928 [Eh]
	 Correlation Energy        =      -1.3484657868398839 [Eh]
	 Total Energy              =    -306.4355567480337754 [Eh]

	 ================> DF-SCS-MP2 Energies <==================
	-----------------------------------------------------------
	 SCS Same-Spin Scale       =       0.3333333333333333 [-]
	 SCS Opposite-Spin Scale   =       1.2000000000000000 [-]
	 SCS Same-Spin Energy      =      -0.1113202821661637 [Eh]
	 SCS Opposite-Spin Energy  =      -1.2174059284096714 [Eh]
	 SCS Correlation Energy    =      -1.3287262105758351 [Eh]
	 SCS Total Energy          =    -306.4158171717697314 [Eh]
	-----------------------------------------------------------

  Dipole Moment: [D]
     X:    -4.3599      Y:     0.0000      Z:     0.2213     Total:     4.3655

*** Psi4 exiting successfully. Buy a developer a beer!
