                               Psi4 1.3.2 release

  ==> Input File <==

--------------------------------------------------------------------------
#psi4
#
memory 32 gb

molecule  {
-1 1
  C        0.2864700    -1.2064390    -0.0000050
  C       -1.1050350    -1.1994800     0.0000040
  C       -1.8315300     0.0000000    -0.0000020
  C       -1.1050350     1.1994800     0.0000050
  C        0.2864700     1.2064400    -0.0000060
  C        1.0822590     0.0000000    -0.0000150
  O        2.3571420     0.0000000     0.0000100
  H        0.8322380    -2.1510561    -0.2499960
  H       -1.6412820    -2.1526450     0.0000040
  H       -2.9206450    -0.0000010     0.0000130
  H       -1.6412830     2.1526450     0.0000060
  H        0.8322370     2.1510550     0.0000020
units angstrom
no_reorient  #important for SAPT in psi4, default
symmetry c1  #important for SAPT in psi4, default
}

set PROPERTIES_ORIGIN ["COM"]
properties('MP2/aug-cc-pvtz', properties = ['dipole'])
--------------------------------------------------------------------------

    Molecular point group: c1
  Charge       = -1
  Multiplicity = 1
  Basis Set: AUG-CC-PVTZ
    Blend: AUG-CC-PVTZ
  Basis Set: (AUG-CC-PVTZ AUX)
    Blend: AUG-CC-PVTZ-JKFIT

    Orbital Energies [Eh]
    ---------------------

    Doubly Occupied:

       1A    -20.290126     2A    -11.108688     3A    -11.078335
       4A    -11.078199     5A    -11.051344     6A    -11.043653
       7A    -11.041673     8A     -1.114714     9A     -0.953974
      10A     -0.835259    11A     -0.796231    12A     -0.644058
      13A     -0.620422    14A     -0.511985    15A     -0.455257
      16A     -0.454007    17A     -0.406471    18A     -0.389676
      19A     -0.350342    20A     -0.336362    21A     -0.320071
      22A     -0.269370    23A     -0.197846    24A     -0.172612
      25A     -0.089499

  @DF-RHF Final Energy:  -305.08553232807566

   => Energetics <=

    Nuclear Repulsion Energy =            258.8527747634374236
    One-Electron Energy =                -936.6562685641152939
    Two-Electron Energy =                 372.7179614726022123
    Total Energy =                       -305.0855323280756579
  Basis Set: (AUG-CC-PVTZ AUX)
    Blend: AUG-CC-PVTZ-RI
    Molecular point group: c1

    Geometry (in Angstrom), charge = -1, multiplicity = 1:

       Center              X                  Y                   Z               Mass
    ------------   -----------------  -----------------  -----------------  -----------------
         C            0.238194956810    -1.206439106236     0.002703633126    12.000000000000
         C           -1.153310043190    -1.199480106236     0.002712633126    12.000000000000
         C           -1.879805043190    -0.000000106236     0.002706633126    12.000000000000
         C           -1.153310043190     1.199479893764     0.002713633126    12.000000000000
         C            0.238194956810     1.206439893764     0.002702633126    12.000000000000
         C            1.033983956810    -0.000000106236     0.002693633126    12.000000000000
         O            2.308866956810    -0.000000106236     0.002718633126    15.994914619570
         H            0.783962956810    -2.151056206236    -0.247287366874     1.007825032230
         H           -1.689557043190    -2.152645106236     0.002712633126     1.007825032230
         H           -2.968920043190    -0.000001106236     0.002721633126     1.007825032230
         H           -1.689558043190     2.152644893764     0.002714633126     1.007825032230
         H            0.783961956810     2.151054893764     0.002710633126     1.007825032230

  Basis Set: AUG-CC-PVTZ
    Blend: AUG-CC-PVTZ
  Basis Set: (AUG-CC-PVTZ AUX)
    Blend: AUG-CC-PVTZ-JKFIT
	 Reference Energy          =    -305.0855323280756579 [Eh]
	 Singles Energy            =      -0.0000000000000000 [Eh]
	 Same-Spin Energy          =      -0.3338820722979896 [Eh]
	 Opposite-Spin Energy      =      -1.0144903653142647 [Eh]
	 Correlation Energy        =      -1.3483724376122543 [Eh]
	 Total Energy              =    -306.4339047656878847 [Eh]

	 ================> DF-SCS-MP2 Energies <==================
	-----------------------------------------------------------
	 SCS Same-Spin Scale       =       0.3333333333333333 [-]
	 SCS Opposite-Spin Scale   =       1.2000000000000000 [-]
	 SCS Same-Spin Energy      =      -0.1112940240993299 [Eh]
	 SCS Opposite-Spin Energy  =      -1.2173884383771176 [Eh]
	 SCS Correlation Energy    =      -1.3286824624764475 [Eh]
	 SCS Total Energy          =    -306.4142147905520801 [Eh]
	-----------------------------------------------------------

  Dipole Moment: [D]
     X:    -4.3128      Y:     0.0721      Z:    -0.1684     Total:     4.3167

*** Psi4 exiting successfully. Buy a developer a beer!
