                               Psi4 1.3.2 release

  ==> Input File <==

--------------------------------------------------------------------------
#psi4
#
memory 32 gb

molecule  {
-1 1
  C        0.2864700    -1.2064390    -0.0000050
  C       -1.1050350    -1.1994800     0.0000040
  C       -1.8315300     0.0000000    -0.0000020
  C       -1.1050350     1.1994800     0.0000050
  C        0.2864700     1.2064400    -0.0000060
  C        1.0822590     0.0000000    -0.0000150
  O        2.3571435    -0.0000001    -0.1999900
  H        0.8322390    -2.1510540     0.0000040
  H       -1.6412820    -2.1526450     0.0000040
  H       -2.9206450    -0.0000010     0.0000130
  H       -1.6412830     2.1526450     0.0000060
  H        0.8322370     2.1510550     0.0000020
units angstrom
no_reorient  #important for SAPT in psi4, default
symmetry c1  #important for SAPT in psi4, default
}

set PROPERTIES_ORIGIN ["COM"]
properties('MP2/aug-cc-pvtz', properties = ['dipole'])
--------------------------------------------------------------------------

    Molecular point group: c1
  Charge       = -1
  Multiplicity = 1
  Basis Set: AUG-CC-PVTZ
    Blend: AUG-CC-PVTZ
  Basis Set: (AUG-CC-PVTZ AUX)
    Blend: AUG-CC-PVTZ-JKFIT

    Orbital Energies [Eh]
    ---------------------

    Doubly Occupied:

       1A    -20.288769     2A    -11.109586     3A    -11.078330
       4A    -11.078316     5A    -11.052481     6A    -11.042848
       7A    -11.042837     8A     -1.104802     9A     -0.954279
      10A     -0.836367    11A     -0.797240    12A     -0.645555
      13A     -0.621527    14A     -0.514269    15A     -0.456989
      16A     -0.453179    17A     -0.408363    18A     -0.387905
      19A     -0.347606    20A     -0.334396    21A     -0.322769
      22A     -0.266526    23A     -0.197086    24A     -0.173193
      25A     -0.089872

  @DF-RHF Final Energy:  -305.08535255043734

   => Energetics <=

    Nuclear Repulsion Energy =            258.6080037460794188
    One-Electron Energy =                -936.1765376854403939
    Two-Electron Energy =                 372.4831813889236969
    Total Energy =                       -305.0853525504373351
  Basis Set: (AUG-CC-PVTZ AUX)
    Blend: AUG-CC-PVTZ-RI
    Molecular point group: c1

    Geometry (in Angstrom), charge = -1, multiplicity = 1:

       Center              X                  Y                   Z               Mass
    ------------   -----------------  -----------------  -----------------  -----------------
         C            0.238194688089    -1.206439111793     0.034380497560    12.000000000000
         C           -1.153310311911    -1.199480111793     0.034389497560    12.000000000000
         C           -1.879805311911    -0.000000111793     0.034383497560    12.000000000000
         C           -1.153310311911     1.199479888207     0.034390497560    12.000000000000
         C            0.238194688089     1.206439888207     0.034379497560    12.000000000000
         C            1.033983688089    -0.000000111793     0.034370497560    12.000000000000
         O            2.308868188089    -0.000000211793    -0.165604502440    15.994914619570
         H            0.783963688089    -2.151054111793     0.034389497560     1.007825032230
         H           -1.689557311911    -2.152645111793     0.034389497560     1.007825032230
         H           -2.968920311911    -0.000001111793     0.034398497560     1.007825032230
         H           -1.689558311911     2.152644888207     0.034391497560     1.007825032230
         H            0.783961688089     2.151054888207     0.034387497560     1.007825032230

  Basis Set: AUG-CC-PVTZ
    Blend: AUG-CC-PVTZ
  Basis Set: (AUG-CC-PVTZ AUX)
    Blend: AUG-CC-PVTZ-JKFIT
	 Reference Energy          =    -305.0853525504373351 [Eh]
	 Singles Energy            =      -0.0000000000000000 [Eh]
	 Same-Spin Energy          =      -0.3341447244848249 [Eh]
	 Opposite-Spin Energy      =      -1.0148931381285284 [Eh]
	 Correlation Energy        =      -1.3490378626133532 [Eh]
	 Total Energy              =    -306.4343904130506644 [Eh]

	 ================> DF-SCS-MP2 Energies <==================
	-----------------------------------------------------------
	 SCS Same-Spin Scale       =       0.3333333333333333 [-]
	 SCS Opposite-Spin Scale   =       1.2000000000000000 [-]
	 SCS Same-Spin Energy      =      -0.1113815748282750 [Eh]
	 SCS Opposite-Spin Energy  =      -1.2178717657542342 [Eh]
	 SCS Correlation Energy    =      -1.3292533405825091 [Eh]
	 SCS Total Energy          =    -306.4146058910198462 [Eh]
	-----------------------------------------------------------

  Dipole Moment: [D]
     X:    -4.4137      Y:     0.0000      Z:     0.2981     Total:     4.4238

*** Psi4 exiting successfully. Buy a developer a beer!
