                               Psi4 1.3.2 release

  ==> Input File <==

--------------------------------------------------------------------------
#psi4
#
memory 32 gb

molecule  {
0 1
  N        0.3833600    -0.5125370    -0.0001240
  N       -0.3832800     0.5120360    -0.0003650
  C        1.9618907    -0.1402904    -0.0000088
  C       -1.7671580     0.1858050    -0.0001250
  C        2.6296550    -1.2889660    -0.0004100
  C       -2.2820560    -1.1203900     0.0004250
  C        2.2817410     1.1201620     0.0004430
  C       -2.6293090     1.2888360    -0.0004050
  C        4.0102370    -1.0927240    -0.0003780
  C       -3.6612700    -1.3047800     0.0004470
  C        3.6608930     1.3050510     0.0005180
  C       -4.0099580     1.0931000    -0.0003430
  C        4.5276310     0.2044750     0.0001450
  C       -4.5277070    -0.2039390     0.0001440
  H        2.1941740    -2.2850020    -0.0008280
  H       -1.5949460    -1.9607630     0.0007310
  H        1.5942790     1.9602490     0.0007180
  H       -2.1933450     2.2846620    -0.0007500
  H        4.6808280    -1.9484460    -0.0006320
  H       -4.0692680    -2.3129040     0.0009720
  H        4.0684950     2.3133330     0.0008240
  H       -4.6802440     1.9490580    -0.0004760
  H        5.6036530     0.3614050     0.0000240
  H       -5.6037540    -0.3606960     0.0002220
units angstrom
no_reorient  #important for SAPT in psi4, default
symmetry c1  #important for SAPT in psi4, default
}

set PROPERTIES_ORIGIN ["COM"]
properties('MP2/aug-cc-pvtz', properties = ['dipole'])
--------------------------------------------------------------------------

    Molecular point group: c1
  Charge       = 0
  Multiplicity = 1
  Basis Set: AUG-CC-PVTZ
    Blend: AUG-CC-PVTZ
  Basis Set: (AUG-CC-PVTZ AUX)
    Blend: AUG-CC-PVTZ-JKFIT

    Orbital Energies [Eh]
    ---------------------

    Doubly Occupied:

       1A    -15.629566     2A    -15.626249     3A    -11.267127
       4A    -11.266878     5A    -11.247345     6A    -11.246502
       7A    -11.242682     8A    -11.241911     9A    -11.241081
      10A    -11.240767    11A    -11.239749    12A    -11.238996
      13A    -11.238115    14A    -11.232546    15A     -1.336006
      16A     -1.186727    17A     -1.152136    18A     -1.056515
      19A     -1.040310    20A     -1.020754    21A     -1.011363
      22A     -0.909012    23A     -0.851416    24A     -0.835675
      25A     -0.816907    26A     -0.774736    27A     -0.717749
      28A     -0.697219    29A     -0.660190    30A     -0.649159
      31A     -0.640960    32A     -0.622428    33A     -0.613220
      34A     -0.592987    35A     -0.589623    36A     -0.573822
      37A     -0.563304    38A     -0.525891    39A     -0.521896
      40A     -0.514625    41A     -0.510073    42A     -0.487187
      43A     -0.474835    44A     -0.381202    45A     -0.361910
      46A     -0.349888    47A     -0.341114    48A     -0.315076

  @DF-RHF Final Energy:  -569.23870126252484

   => Energetics <=

    Nuclear Repulsion Energy =            749.3031978347958102
    One-Electron Energy =               -2257.2929462356696604
    Two-Electron Energy =                 938.7510471383490085
    Total Energy =                       -569.2387012625248417
  Basis Set: (AUG-CC-PVTZ AUX)
    Blend: AUG-CC-PVTZ-RI
    Molecular point group: c1

    Geometry (in Angstrom), charge = 0, multiplicity = 1:

       Center              X                  Y                   Z               Mass
    ------------   -----------------  -----------------  -----------------  -----------------
         N            0.370530412920    -0.515557372290    -0.000120650981    14.003074004430
         N           -0.396109587080     0.509015627710    -0.000361650981    14.003074004430
         C            1.949061112920    -0.143310772290    -0.000005450981    12.000000000000
         C           -1.779987587080     0.182784627710    -0.000121650981    12.000000000000
         C            2.616825412920    -1.291986372290    -0.000406650981    12.000000000000
         C           -2.294885587080    -1.123410372290     0.000428349019    12.000000000000
         C            2.268911412920     1.117141627710     0.000446349019    12.000000000000
         C           -2.642138587080     1.285815627710    -0.000401650981    12.000000000000
         C            3.997407412920    -1.095744372290    -0.000374650981    12.000000000000
         C           -3.674099587080    -1.307800372290     0.000450349019    12.000000000000
         C            3.648063412920     1.302030627710     0.000521349019    12.000000000000
         C           -4.022787587080     1.090079627710    -0.000339650981    12.000000000000
         C            4.514801412920     0.201454627710     0.000148349019    12.000000000000
         C           -4.540536587080    -0.206959372290     0.000147349019    12.000000000000
         H            2.181344412920    -2.288022372290    -0.000824650981     1.007825032230
         H           -1.607775587080    -1.963783372290     0.000734349019     1.007825032230
         H            1.581449412920     1.957228627710     0.000721349019     1.007825032230
         H           -2.206174587080     2.281641627710    -0.000746650981     1.007825032230
         H            4.667998412920    -1.951466372290    -0.000628650981     1.007825032230
         H           -4.082097587080    -2.315924372290     0.000975349019     1.007825032230
         H            4.055665412920     2.310312627710     0.000827349019     1.007825032230
         H           -4.693073587080     1.946037627710    -0.000472650981     1.007825032230
         H            5.590823412920     0.358384627710     0.000027349019     1.007825032230
         H           -5.616583587080    -0.363716372290     0.000225349019     1.007825032230

  Basis Set: AUG-CC-PVTZ
    Blend: AUG-CC-PVTZ
  Basis Set: (AUG-CC-PVTZ AUX)
    Blend: AUG-CC-PVTZ-JKFIT
	 Reference Energy          =    -569.2387012625248417 [Eh]
	 Singles Energy            =      -0.0000000000000000 [Eh]
	 Same-Spin Energy          =      -0.6334784671239884 [Eh]
	 Opposite-Spin Energy      =      -1.9446122196261464 [Eh]
	 Correlation Energy        =      -2.5780906867501345 [Eh]
	 Total Energy              =    -571.8167919492749434 [Eh]

	 ================> DF-SCS-MP2 Energies <==================
	-----------------------------------------------------------
	 SCS Same-Spin Scale       =       0.3333333333333333 [-]
	 SCS Opposite-Spin Scale   =       1.2000000000000000 [-]
	 SCS Same-Spin Energy      =      -0.2111594890413294 [Eh]
	 SCS Opposite-Spin Energy  =      -2.3335346635513754 [Eh]
	 SCS Correlation Energy    =      -2.5446941525927049 [Eh]
	 SCS Total Energy          =    -571.7833954151175249 [Eh]
	-----------------------------------------------------------

  Dipole Moment: [D]
     X:    -0.0397      Y:     0.0015      Z:     0.0004     Total:     0.0398

*** Psi4 exiting successfully. Buy a developer a beer!
