                               Psi4 1.4a3.dev225

  ==> Input File <==

--------------------------------------------------------------------------
#psi4
#
memory 32 gb

molecule  {
0 1
  N       -0.3833490    -0.5122680     0.0000090
  N        0.3533916     0.4722341    -0.0000102
  C       -1.7672170    -0.1859390     0.0000050
  C        1.7672170     0.1859380    -0.0000040
  C       -2.6294640    -1.2888570    -0.0000090
  C        2.2819740    -1.1203090     0.0000060
  C       -2.2819730     1.1203080     0.0000150
  C        2.6294620     1.2888570    -0.0000150
  C       -4.0100960    -1.0929460    -0.0000130
  C        3.6611660    -1.3048860     0.0000120
  C       -3.6611640     1.3048870     0.0000130
  C        4.0100950     1.0929470    -0.0000080
  C       -4.5277130     0.2041430    -0.0000040
  C        4.5277130    -0.2041410     0.0000030
  H       -2.1937340    -2.2847830    -0.0000140
  H        1.5947880    -1.9606160     0.0000130
  H       -1.5947870     1.9606160     0.0000300
  H        2.1937330     2.2847830    -0.0000250
  H       -4.6804930    -1.9488170    -0.0000250
  H        4.0690280    -2.3130640     0.0000180
  H       -4.0690260     2.3130650     0.0000210
  H        4.6804920     1.9488190    -0.0000150
  H       -5.6037480     0.3609690    -0.0000050
  H        5.6037490    -0.3609640     0.0000090
units angstrom
no_reorient  #important for SAPT in psi4, default
symmetry c1  #important for SAPT in psi4, default
}

set PROPERTIES_ORIGIN ["COM"]
properties('MP2/aug-cc-pvtz', properties = ['dipole'])
--------------------------------------------------------------------------

    Molecular point group: c1
  Charge       = 0
  Multiplicity = 1
  Basis Set: AUG-CC-PVTZ
    Blend: AUG-CC-PVTZ
  Basis Set: (AUG-CC-PVTZ AUX)
    Blend: AUG-CC-PVTZ-JKFIT

    Orbital Energies [Eh]
    ---------------------

    Doubly Occupied:

       1A    -15.627140     2A    -15.625667     3A    -11.271185
       4A    -11.268631     5A    -11.245677     6A    -11.245063
       7A    -11.244994     8A    -11.243407     9A    -11.243295
      10A    -11.243047    11A    -11.243001    12A    -11.241832
      13A    -11.241826    14A    -11.241632    15A     -1.383216
      16A     -1.170774    17A     -1.150724    18A     -1.071550
      19A     -1.023204    20A     -1.022635    21A     -1.009319
      22A     -0.922082    23A     -0.843443    24A     -0.840102
      25A     -0.819307    26A     -0.774726    27A     -0.719880
      28A     -0.700279    29A     -0.668832    30A     -0.663000
      31A     -0.630732    32A     -0.617751    33A     -0.601365
      34A     -0.599267    35A     -0.593551    36A     -0.583995
      37A     -0.580802    38A     -0.521653    39A     -0.519823
      40A     -0.514610    41A     -0.499959    42A     -0.498073
      43A     -0.481491    44A     -0.392356    45A     -0.361068
      46A     -0.343948    47A     -0.343127    48A     -0.308082

  @DF-RHF Final Energy:  -569.28392240060327

   => Energetics <=

    Nuclear Repulsion Energy =            750.0642297208589753
    One-Electron Energy =               -2258.6940563209982429
    Two-Electron Energy =                 939.3459041995359939
    Total Energy =                       -569.2839224006032737
  Basis Set: (AUG-CC-PVTZ AUX)
    Blend: AUG-CC-PVTZ-RI
    Molecular point group: c1

    Geometry (in Angstrom), charge = 0, multiplicity = 1:

       Center              X                  Y                   Z               Mass
    ------------   -----------------  -----------------  -----------------  -----------------
         N           -0.381045158060    -0.509189396853     0.000008987637    14.003074004430
         N            0.355695441940     0.475312703147    -0.000010212363    14.003074004430
         C           -1.764913158060    -0.182860396853     0.000004987637    12.000000000000
         C            1.769520841940     0.189016603147    -0.000004012363    12.000000000000
         C           -2.627160158060    -1.285778396853    -0.000009012363    12.000000000000
         C            2.284277841940    -1.117230396853     0.000005987637    12.000000000000
         C           -2.279669158060     1.123386603147     0.000014987637    12.000000000000
         C            2.631765841940     1.291935603147    -0.000015012363    12.000000000000
         C           -4.007792158060    -1.089867396853    -0.000013012363    12.000000000000
         C            3.663469841940    -1.301807396853     0.000011987637    12.000000000000
         C           -3.658860158060     1.307965603147     0.000012987637    12.000000000000
         C            4.012398841940     1.096025603147    -0.000008012363    12.000000000000
         C           -4.525409158060     0.207221603147    -0.000004012363    12.000000000000
         C            4.530016841940    -0.201062396853     0.000002987637    12.000000000000
         H           -2.191430158060    -2.281704396853    -0.000014012363     1.007825032230
         H            1.597091841940    -1.957537396853     0.000012987637     1.007825032230
         H           -1.592483158060     1.963694603147     0.000029987637     1.007825032230
         H            2.196036841940     2.287861603147    -0.000025012363     1.007825032230
         H           -4.678189158060    -1.945738396853    -0.000025012363     1.007825032230
         H            4.071331841940    -2.309985396853     0.000017987637     1.007825032230
         H           -4.066722158060     2.316143603147     0.000020987637     1.007825032230
         H            4.682795841940     1.951897603147    -0.000015012363     1.007825032230
         H           -5.601444158060     0.364047603147    -0.000005012363     1.007825032230
         H            5.606052841940    -0.357885396853     0.000008987637     1.007825032230

  Basis Set: AUG-CC-PVTZ
    Blend: AUG-CC-PVTZ
  Basis Set: (AUG-CC-PVTZ AUX)
    Blend: AUG-CC-PVTZ-JKFIT
	 Reference Energy          =    -569.2839224006032737 [Eh]
	 Singles Energy            =      -0.0000000000000000 [Eh]
	 Same-Spin Energy          =      -0.6306070369045491 [Eh]
	 Opposite-Spin Energy      =      -1.9372535843604031 [Eh]
	 Correlation Energy        =      -2.5678606212649520 [Eh]
	 Total Energy              =    -571.8517830218681866 [Eh]

	 ================> DF-SCS-MP2 Energies <==================
	-----------------------------------------------------------
	 SCS Same-Spin Scale       =       0.3333333333333333 [-]
	 SCS Opposite-Spin Scale   =       1.2000000000000000 [-]
	 SCS Same-Spin Energy      =      -0.2102023456348497 [Eh]
	 SCS Opposite-Spin Energy  =      -2.3247043012324835 [Eh]
	 SCS Correlation Energy    =      -2.5349066468673334 [Eh]
	 SCS Total Energy          =    -571.8188290474705582 [Eh]
	-----------------------------------------------------------

  Dipole Moment: [D]
     X:     0.0197      Y:     0.0242      Z:     0.0000     Total:     0.0312

*** Psi4 exiting successfully. Buy a developer a beer!
