                               Psi4 1.3.2 release

  ==> Input File <==

--------------------------------------------------------------------------
#psi4
#
memory 32 gb

molecule  {
0 1
  N        0.3833600    -0.5125370    -0.0001240
  N       -0.3233696     0.4319689    -0.0003462
  C        1.7672300    -0.1861950    -0.0000230
  C       -1.7671580     0.1858050    -0.0001250
  C        2.6296550    -1.2889660    -0.0004100
  C       -2.2820560    -1.1203900     0.0004250
  C        2.2817410     1.1201620     0.0004430
  C       -2.6293090     1.2888360    -0.0004050
  C        4.0102370    -1.0927240    -0.0003780
  C       -3.6612700    -1.3047800     0.0004470
  C        3.6608930     1.3050510     0.0005180
  C       -4.0099580     1.0931000    -0.0003430
  C        4.5276310     0.2044750     0.0001450
  C       -4.5277070    -0.2039390     0.0001440
  H        2.1941740    -2.2850020    -0.0008280
  H       -1.5949460    -1.9607630     0.0007310
  H        1.5942790     1.9602490     0.0007180
  H       -2.1933450     2.2846620    -0.0007500
  H        4.6808280    -1.9484460    -0.0006320
  H       -4.0692680    -2.3129040     0.0009720
  H        4.0684950     2.3133330     0.0008240
  H       -4.6802440     1.9490580    -0.0004760
  H        5.6036530     0.3614050     0.0000240
  H       -5.6037540    -0.3606960     0.0002220
units angstrom
no_reorient  #important for SAPT in psi4, default
symmetry c1  #important for SAPT in psi4, default
}

set PROPERTIES_ORIGIN ["COM"]
properties('MP2/aug-cc-pvtz', properties = ['dipole'])
--------------------------------------------------------------------------

    Molecular point group: c1
  Charge       = 0
  Multiplicity = 1
  Basis Set: AUG-CC-PVTZ
    Blend: AUG-CC-PVTZ
  Basis Set: (AUG-CC-PVTZ AUX)
    Blend: AUG-CC-PVTZ-JKFIT

    Orbital Energies [Eh]
    ---------------------

    Doubly Occupied:

       1A    -15.621429     2A    -15.619526     3A    -11.272162
       4A    -11.267092     5A    -11.246267     6A    -11.245646
       7A    -11.244358     8A    -11.243707     9A    -11.243184
      10A    -11.242747    11A    -11.242385    12A    -11.241547
      13A    -11.241237    14A    -11.241143    15A     -1.412586
      16A     -1.169137    17A     -1.151764    18A     -1.067847
      19A     -1.023201    20A     -1.022277    21A     -1.011566
      22A     -0.918168    23A     -0.843186    24A     -0.840395
      25A     -0.820871    26A     -0.773326    27A     -0.722588
      28A     -0.701353    29A     -0.669441    30A     -0.666140
      31A     -0.630143    32A     -0.617665    33A     -0.604876
      34A     -0.599490    35A     -0.596250    36A     -0.593330
      37A     -0.582641    38A     -0.522405    39A     -0.520446
      40A     -0.514036    41A     -0.500489    42A     -0.497174
      43A     -0.486007    44A     -0.379696    45A     -0.359330
      46A     -0.344055    47A     -0.342643    48A     -0.312932

  @DF-RHF Final Energy:  -569.28126601453766

   => Energetics <=

    Nuclear Repulsion Energy =            750.9061424019138258
    One-Electron Energy =               -2260.3150547099448886
    Two-Electron Energy =                 940.1276462934935125
    Total Energy =                       -569.2812660145376640
  Basis Set: (AUG-CC-PVTZ AUX)
    Blend: AUG-CC-PVTZ-RI
    Molecular point group: c1

    Geometry (in Angstrom), charge = 0, multiplicity = 1:

       Center              X                  Y                   Z               Mass
    ------------   -----------------  -----------------  -----------------  -----------------
         N            0.378751867635    -0.506374593634    -0.000121160953    14.003074004430
         N           -0.327977732365     0.438131306366    -0.000343360953    14.003074004430
         C            1.762621867635    -0.180032593634    -0.000020160953    12.000000000000
         C           -1.771766132365     0.191967406366    -0.000122160953    12.000000000000
         C            2.625046867635    -1.282803593634    -0.000407160953    12.000000000000
         C           -2.286664132365    -1.114227593634     0.000427839047    12.000000000000
         C            2.277132867635     1.126324406366     0.000445839047    12.000000000000
         C           -2.633917132365     1.294998406366    -0.000402160953    12.000000000000
         C            4.005628867635    -1.086561593634    -0.000375160953    12.000000000000
         C           -3.665878132365    -1.298617593634     0.000449839047    12.000000000000
         C            3.656284867635     1.311213406366     0.000520839047    12.000000000000
         C           -4.014566132365     1.099262406366    -0.000340160953    12.000000000000
         C            4.523022867635     0.210637406366     0.000147839047    12.000000000000
         C           -4.532315132365    -0.197776593634     0.000146839047    12.000000000000
         H            2.189565867635    -2.278839593634    -0.000825160953     1.007825032230
         H           -1.599554132365    -1.954600593634     0.000733839047     1.007825032230
         H            1.589670867635     1.966411406366     0.000720839047     1.007825032230
         H           -2.197953132365     2.290824406366    -0.000747160953     1.007825032230
         H            4.676219867635    -1.942283593634    -0.000629160953     1.007825032230
         H           -4.073876132365    -2.306741593634     0.000974839047     1.007825032230
         H            4.063886867635     2.319495406366     0.000826839047     1.007825032230
         H           -4.684852132365     1.955220406366    -0.000473160953     1.007825032230
         H            5.599044867635     0.367567406366     0.000026839047     1.007825032230
         H           -5.608362132365    -0.354533593634     0.000224839047     1.007825032230

  Basis Set: AUG-CC-PVTZ
    Blend: AUG-CC-PVTZ
  Basis Set: (AUG-CC-PVTZ AUX)
    Blend: AUG-CC-PVTZ-JKFIT
	 Reference Energy          =    -569.2812660145376640 [Eh]
	 Singles Energy            =      -0.0000000000000000 [Eh]
	 Same-Spin Energy          =      -0.6287625171095567 [Eh]
	 Opposite-Spin Energy      =      -1.9333908326424196 [Eh]
	 Correlation Energy        =      -2.5621533497519762 [Eh]
	 Total Energy              =    -571.8434193642896162 [Eh]

	 ================> DF-SCS-MP2 Energies <==================
	-----------------------------------------------------------
	 SCS Same-Spin Scale       =       0.3333333333333333 [-]
	 SCS Opposite-Spin Scale   =       1.2000000000000000 [-]
	 SCS Same-Spin Energy      =      -0.2095875057031855 [Eh]
	 SCS Opposite-Spin Energy  =      -2.3200689991709034 [Eh]
	 SCS Correlation Energy    =      -2.5296565048740889 [Eh]
	 SCS Total Energy          =    -571.8109225194117471 [Eh]
	-----------------------------------------------------------

  Dipole Moment: [D]
     X:    -0.0454      Y:     0.0498      Z:     0.0004     Total:     0.0674

*** Psi4 exiting successfully. Buy a developer a beer!
