                               Psi4 1.3.2 release

  ==> Input File <==

--------------------------------------------------------------------------
#psi4
#
memory 32 gb

molecule  {
0 1
  N        0.3833600    -0.5125370    -0.0001240
  N       -0.4861773     0.4262876    -0.0003631
  C        1.7672300    -0.1861950    -0.0000230
  C       -1.7671580     0.1858050    -0.0001250
  C        2.6296550    -1.2889660    -0.0004100
  C       -2.2820560    -1.1203900     0.0004250
  C        2.2817410     1.1201620     0.0004430
  C       -2.6293090     1.2888360    -0.0004050
  C        4.0102370    -1.0927240    -0.0003780
  C       -3.6612700    -1.3047800     0.0004470
  C        3.6608930     1.3050510     0.0005180
  C       -4.0099580     1.0931000    -0.0003430
  C        4.5276310     0.2044750     0.0001450
  C       -4.5277070    -0.2039390     0.0001440
  H        2.1941740    -2.2850020    -0.0008280
  H       -1.5949460    -1.9607630     0.0007310
  H        1.5942790     1.9602490     0.0007180
  H       -2.1933450     2.2846620    -0.0007500
  H        4.6808280    -1.9484460    -0.0006320
  H       -4.0692680    -2.3129040     0.0009720
  H        4.0684950     2.3133330     0.0008240
  H       -4.6802440     1.9490580    -0.0004760
  H        5.6036530     0.3614050     0.0000240
  H       -5.6037540    -0.3606960     0.0002220
units angstrom
no_reorient  #important for SAPT in psi4, default
symmetry c1  #important for SAPT in psi4, default
}

set PROPERTIES_ORIGIN ["COM"]
properties('MP2/aug-cc-pvtz', properties = ['dipole'])
--------------------------------------------------------------------------

    Molecular point group: c1
  Charge       = 0
  Multiplicity = 1
  Basis Set: AUG-CC-PVTZ
    Blend: AUG-CC-PVTZ
  Basis Set: (AUG-CC-PVTZ AUX)
    Blend: AUG-CC-PVTZ-JKFIT

    Orbital Energies [Eh]
    ---------------------

    Doubly Occupied:

       1A    -15.622906     2A    -15.614923     3A    -11.271014
       4A    -11.261733     5A    -11.249807     6A    -11.247263
       7A    -11.244826     8A    -11.243865     9A    -11.243639
      10A    -11.243207    11A    -11.242600    12A    -11.242191
      13A    -11.241598    14A    -11.241285    15A     -1.358818
      16A     -1.181243    17A     -1.149468    18A     -1.090586
      19A     -1.025472    20A     -1.022104    21A     -1.008453
      22A     -0.933999    23A     -0.849293    24A     -0.840803
      25A     -0.821525    26A     -0.775778    27A     -0.725166
      28A     -0.696274    29A     -0.674279    30A     -0.663627
      31A     -0.632834    32A     -0.618278    33A     -0.603432
      34A     -0.597668    35A     -0.593487    36A     -0.581906
      37A     -0.571249    38A     -0.522924    39A     -0.520745
      40A     -0.516837    41A     -0.503065    42A     -0.497864
      43A     -0.474765    44A     -0.380401    45A     -0.368323
      46A     -0.345118    47A     -0.342810    48A     -0.294947

  @DF-RHF Final Energy:  -569.26628408538249

   => Energetics <=

    Nuclear Repulsion Energy =            750.9553807235618024
    One-Electron Energy =               -2260.4545355516011114
    Two-Electron Energy =                 940.2328707426568144
    Total Energy =                       -569.2662840853824946
  Basis Set: (AUG-CC-PVTZ AUX)
    Blend: AUG-CC-PVTZ-RI
    Molecular point group: c1

    Geometry (in Angstrom), charge = 0, multiplicity = 1:

       Center              X                  Y                   Z               Mass
    ------------   -----------------  -----------------  -----------------  -----------------
         N            0.391272480562    -0.505937677209    -0.000119861270    14.003074004430
         N           -0.478264819438     0.432886922791    -0.000358961270    14.003074004430
         C            1.775142480562    -0.179595677209    -0.000018861270    12.000000000000
         C           -1.759245519438     0.192404322791    -0.000120861270    12.000000000000
         C            2.637567480562    -1.282366677209    -0.000405861270    12.000000000000
         C           -2.274143519438    -1.113790677209     0.000429138730    12.000000000000
         C            2.289653480562     1.126761322791     0.000447138730    12.000000000000
         C           -2.621396519438     1.295435322791    -0.000400861270    12.000000000000
         C            4.018149480562    -1.086124677209    -0.000373861270    12.000000000000
         C           -3.653357519438    -1.298180677209     0.000451138730    12.000000000000
         C            3.668805480562     1.311650322791     0.000522138730    12.000000000000
         C           -4.002045519438     1.099699322791    -0.000338861270    12.000000000000
         C            4.535543480562     0.211074322791     0.000149138730    12.000000000000
         C           -4.519794519438    -0.197339677209     0.000148138730    12.000000000000
         H            2.202086480562    -2.278402677209    -0.000823861270     1.007825032230
         H           -1.587033519438    -1.954163677209     0.000735138730     1.007825032230
         H            1.602191480562     1.966848322791     0.000722138730     1.007825032230
         H           -2.185432519438     2.291261322791    -0.000745861270     1.007825032230
         H            4.688740480562    -1.941846677209    -0.000627861270     1.007825032230
         H           -4.061355519438    -2.306304677209     0.000976138730     1.007825032230
         H            4.076407480562     2.319932322791     0.000828138730     1.007825032230
         H           -4.672331519438     1.955657322791    -0.000471861270     1.007825032230
         H            5.611565480562     0.368004322791     0.000028138730     1.007825032230
         H           -5.595841519438    -0.354096677209     0.000226138730     1.007825032230

  Basis Set: AUG-CC-PVTZ
    Blend: AUG-CC-PVTZ
  Basis Set: (AUG-CC-PVTZ AUX)
    Blend: AUG-CC-PVTZ-JKFIT
	 Reference Energy          =    -569.2662840853824946 [Eh]
	 Singles Energy            =      -0.0000000000000000 [Eh]
	 Same-Spin Energy          =      -0.6339969956204731 [Eh]
	 Opposite-Spin Energy      =      -1.9408215749718278 [Eh]
	 Correlation Energy        =      -2.5748185705923010 [Eh]
	 Total Energy              =    -571.8411026559748507 [Eh]

	 ================> DF-SCS-MP2 Energies <==================
	-----------------------------------------------------------
	 SCS Same-Spin Scale       =       0.3333333333333333 [-]
	 SCS Opposite-Spin Scale   =       1.2000000000000000 [-]
	 SCS Same-Spin Energy      =      -0.2113323318734910 [Eh]
	 SCS Opposite-Spin Energy  =      -2.3289858899661935 [Eh]
	 SCS Correlation Energy    =      -2.5403182218396845 [Eh]
	 SCS Total Energy          =    -571.8066023072221924 [Eh]
	-----------------------------------------------------------

  Dipole Moment: [D]
     X:    -0.3037      Y:     0.0677      Z:     0.0005     Total:     0.3112

*** Psi4 exiting successfully. Buy a developer a beer!
