                               Psi4 1.3.2 release

  ==> Input File <==

--------------------------------------------------------------------------
#psi4
#
memory 32 gb

molecule  {
0 1
  N        0.4250530    -0.6554031    -0.0001407
  N       -0.3832800     0.5120360    -0.0003650
  C        1.7672300    -0.1861950    -0.0000230
  C       -1.7671580     0.1858050    -0.0001250
  C        2.6296550    -1.2889660    -0.0004100
  C       -2.2820560    -1.1203900     0.0004250
  C        2.2817410     1.1201620     0.0004430
  C       -2.6293090     1.2888360    -0.0004050
  C        4.0102370    -1.0927240    -0.0003780
  C       -3.6612700    -1.3047800     0.0004470
  C        3.6608930     1.3050510     0.0005180
  C       -4.0099580     1.0931000    -0.0003430
  C        4.5276310     0.2044750     0.0001450
  C       -4.5277070    -0.2039390     0.0001440
  H        2.1941740    -2.2850020    -0.0008280
  H       -1.5949460    -1.9607630     0.0007310
  H        1.5942790     1.9602490     0.0007180
  H       -2.1933450     2.2846620    -0.0007500
  H        4.6808280    -1.9484460    -0.0006320
  H       -4.0692680    -2.3129040     0.0009720
  H        4.0684950     2.3133330     0.0008240
  H       -4.6802440     1.9490580    -0.0004760
  H        5.6036530     0.3614050     0.0000240
  H       -5.6037540    -0.3606960     0.0002220
units angstrom
no_reorient  #important for SAPT in psi4, default
symmetry c1  #important for SAPT in psi4, default
}

set PROPERTIES_ORIGIN ["COM"]
properties('MP2/aug-cc-pvtz', properties = ['dipole'])
--------------------------------------------------------------------------

    Molecular point group: c1
  Charge       = 0
  Multiplicity = 1
  Basis Set: AUG-CC-PVTZ
    Blend: AUG-CC-PVTZ
  Basis Set: (AUG-CC-PVTZ AUX)
    Blend: AUG-CC-PVTZ-JKFIT

    Orbital Energies [Eh]
    ---------------------

    Doubly Occupied:

       1A    -15.649451     2A    -15.645790     3A    -11.272864
       4A    -11.270908     5A    -11.247814     6A    -11.246479
       7A    -11.245066     8A    -11.244766     9A    -11.244115
      10A    -11.243824    11A    -11.243712    12A    -11.242871
      13A    -11.241014    14A    -11.239573    15A     -1.301561
      16A     -1.174677    17A     -1.145145    18A     -1.079898
      19A     -1.024660    20A     -1.022171    21A     -0.998447
      22A     -0.932220    23A     -0.843054    24A     -0.838563
      25A     -0.811826    26A     -0.779209    27A     -0.707803
      28A     -0.700145    29A     -0.662852    30A     -0.653793
      31A     -0.632574    32A     -0.618415    33A     -0.600731
      34A     -0.594120    35A     -0.581373    36A     -0.577154
      37A     -0.555355    38A     -0.519356    39A     -0.516161
      40A     -0.515310    41A     -0.503072    42A     -0.493821
      43A     -0.463095    44A     -0.428935    45A     -0.365975
      46A     -0.345525    47A     -0.343084    48A     -0.289598

  @DF-RHF Final Energy:  -569.23384086804651

   => Energetics <=

    Nuclear Repulsion Energy =            746.7316508226411997
    One-Electron Energy =               -2252.1351330056459119
    Two-Electron Energy =                 936.1696413149580849
    Total Energy =                       -569.2338408680465136
  Basis Set: (AUG-CC-PVTZ AUX)
    Blend: AUG-CC-PVTZ-RI
    Molecular point group: c1

    Geometry (in Angstrom), charge = 0, multiplicity = 1:

       Center              X                  Y                   Z               Mass
    ------------   -----------------  -----------------  -----------------  -----------------
         N            0.421845864111    -0.644411180219    -0.000135130850    14.003074004430
         N           -0.386487135889     0.523027919781    -0.000359430850    14.003074004430
         C            1.764022864111    -0.175203080219    -0.000017430850    12.000000000000
         C           -1.770365135889     0.196796919781    -0.000119430850    12.000000000000
         C            2.626447864111    -1.277974080219    -0.000404430850    12.000000000000
         C           -2.285263135889    -1.109398080219     0.000430569150    12.000000000000
         C            2.278533864111     1.131153919781     0.000448569150    12.000000000000
         C           -2.632516135889     1.299827919781    -0.000399430850    12.000000000000
         C            4.007029864111    -1.081732080219    -0.000372430850    12.000000000000
         C           -3.664477135889    -1.293788080219     0.000452569150    12.000000000000
         C            3.657685864111     1.316042919781     0.000523569150    12.000000000000
         C           -4.013165135889     1.104091919781    -0.000337430850    12.000000000000
         C            4.524423864111     0.215466919781     0.000150569150    12.000000000000
         C           -4.530914135889    -0.192947080219     0.000149569150    12.000000000000
         H            2.190966864111    -2.274010080219    -0.000822430850     1.007825032230
         H           -1.598153135889    -1.949771080219     0.000736569150     1.007825032230
         H            1.591071864111     1.971240919781     0.000723569150     1.007825032230
         H           -2.196552135889     2.295653919781    -0.000744430850     1.007825032230
         H            4.677620864111    -1.937454080219    -0.000626430850     1.007825032230
         H           -4.072475135889    -2.301912080219     0.000977569150     1.007825032230
         H            4.065287864111     2.324324919781     0.000829569150     1.007825032230
         H           -4.683451135889     1.960049919781    -0.000470430850     1.007825032230
         H            5.600445864111     0.372396919781     0.000029569150     1.007825032230
         H           -5.606961135889    -0.349704080219     0.000227569150     1.007825032230

  Basis Set: AUG-CC-PVTZ
    Blend: AUG-CC-PVTZ
  Basis Set: (AUG-CC-PVTZ AUX)
    Blend: AUG-CC-PVTZ-JKFIT
	 Reference Energy          =    -569.2338408680465136 [Eh]
	 Singles Energy            =      -0.0000000000000000 [Eh]
	 Same-Spin Energy          =      -0.6408600151526338 [Eh]
	 Opposite-Spin Energy      =      -1.9588629349835722 [Eh]
	 Correlation Energy        =      -2.5997229501362060 [Eh]
	 Total Energy              =    -571.8335638181827107 [Eh]

	 ================> DF-SCS-MP2 Energies <==================
	-----------------------------------------------------------
	 SCS Same-Spin Scale       =       0.3333333333333333 [-]
	 SCS Opposite-Spin Scale   =       1.2000000000000000 [-]
	 SCS Same-Spin Energy      =      -0.2136200050508779 [Eh]
	 SCS Opposite-Spin Energy  =      -2.3506355219802866 [Eh]
	 SCS Correlation Energy    =      -2.5642555270311647 [Eh]
	 SCS Total Energy          =    -571.7980963950776641 [Eh]
	-----------------------------------------------------------

  Dipole Moment: [D]
     X:    -0.0974      Y:     0.0697      Z:     0.0005     Total:     0.1198

*** Psi4 exiting successfully. Buy a developer a beer!
