                               Psi4 1.3.2 release

  ==> Input File <==

--------------------------------------------------------------------------
#psi4
#
memory 32 gb

molecule  {
0 1
  N        0.3833600    -0.5125370    -0.0001240
  N       -0.3832800     0.5120360    -0.0003650
  C        1.8645603    -0.1632427    -0.0000159
  C       -1.7671580     0.1858050    -0.0001250
  C        2.6296550    -1.2889660    -0.0004100
  C       -2.2820560    -1.1203900     0.0004250
  C        2.2817410     1.1201620     0.0004430
  C       -2.6293090     1.2888360    -0.0004050
  C        4.0102370    -1.0927240    -0.0003780
  C       -3.6612700    -1.3047800     0.0004470
  C        3.6608930     1.3050510     0.0005180
  C       -4.0099580     1.0931000    -0.0003430
  C        4.5276310     0.2044750     0.0001450
  C       -4.5277070    -0.2039390     0.0001440
  H        2.1941740    -2.2850020    -0.0008280
  H       -1.5949460    -1.9607630     0.0007310
  H        1.5942790     1.9602490     0.0007180
  H       -2.1933450     2.2846620    -0.0007500
  H        4.6808280    -1.9484460    -0.0006320
  H       -4.0692680    -2.3129040     0.0009720
  H        4.0684950     2.3133330     0.0008240
  H       -4.6802440     1.9490580    -0.0004760
  H        5.6036530     0.3614050     0.0000240
  H       -5.6037540    -0.3606960     0.0002220
units angstrom
no_reorient  #important for SAPT in psi4, default
symmetry c1  #important for SAPT in psi4, default
}

set PROPERTIES_ORIGIN ["COM"]
properties('MP2/aug-cc-pvtz', properties = ['dipole'])
--------------------------------------------------------------------------

    Molecular point group: c1
  Charge       = 0
  Multiplicity = 1
  Basis Set: AUG-CC-PVTZ
    Blend: AUG-CC-PVTZ
  Basis Set: (AUG-CC-PVTZ AUX)
    Blend: AUG-CC-PVTZ-JKFIT

    Orbital Energies [Eh]
    ---------------------

    Doubly Occupied:

       1A    -15.632733     2A    -15.629977     3A    -11.269055
       4A    -11.267387     5A    -11.244848     6A    -11.244608
       7A    -11.244214     8A    -11.243015     9A    -11.242575
      10A    -11.242559    11A    -11.241500    12A    -11.241039
      13A    -11.239647    14A    -11.236434    15A     -1.346061
      16A     -1.176466    17A     -1.152577    18A     -1.064859
      19A     -1.029965    20A     -1.022264    21A     -1.009661
      22A     -0.917229    23A     -0.845958    24A     -0.838887
      25A     -0.817662    26A     -0.775710    27A     -0.716329
      28A     -0.699014    29A     -0.662672    30A     -0.654694
      31A     -0.634059    32A     -0.618938    33A     -0.609209
      34A     -0.594189    35A     -0.593778    36A     -0.577006
      37A     -0.567865    38A     -0.519740    39A     -0.519491
      40A     -0.515291    41A     -0.508866    42A     -0.494258
      43A     -0.476524    44A     -0.395150    45A     -0.361415
      46A     -0.346154    47A     -0.342788    48A     -0.310655

  @DF-RHF Final Energy:  -569.26850785937586

   => Energetics <=

    Nuclear Repulsion Energy =            749.2203796835646017
    One-Electron Energy =               -2257.1078242550461255
    Two-Electron Energy =                 938.6189367121055511
    Total Energy =                       -569.2685078593758590
  Basis Set: (AUG-CC-PVTZ AUX)
    Blend: AUG-CC-PVTZ-RI
    Molecular point group: c1

    Geometry (in Angstrom), charge = 0, multiplicity = 1:

       Center              X                  Y                   Z               Mass
    ------------   -----------------  -----------------  -----------------  -----------------
         N            0.376944827393    -0.514044735279    -0.000120183067    14.003074004430
         N           -0.389695172607     0.510528264721    -0.000361183067    14.003074004430
         C            1.858145127393    -0.164750435279    -0.000012083067    12.000000000000
         C           -1.773573172607     0.184297264721    -0.000121183067    12.000000000000
         C            2.623239827393    -1.290473735279    -0.000406183067    12.000000000000
         C           -2.288471172607    -1.121897735279     0.000428816933    12.000000000000
         C            2.275325827393     1.118654264721     0.000446816933    12.000000000000
         C           -2.635724172607     1.287328264721    -0.000401183067    12.000000000000
         C            4.003821827393    -1.094231735279    -0.000374183067    12.000000000000
         C           -3.667685172607    -1.306287735279     0.000450816933    12.000000000000
         C            3.654477827393     1.303543264721     0.000521816933    12.000000000000
         C           -4.016373172607     1.091592264721    -0.000339183067    12.000000000000
         C            4.521215827393     0.202967264721     0.000148816933    12.000000000000
         C           -4.534122172607    -0.205446735279     0.000147816933    12.000000000000
         H            2.187758827393    -2.286509735279    -0.000824183067     1.007825032230
         H           -1.601361172607    -1.962270735279     0.000734816933     1.007825032230
         H            1.587863827393     1.958741264721     0.000721816933     1.007825032230
         H           -2.199760172607     2.283154264721    -0.000746183067     1.007825032230
         H            4.674412827393    -1.949953735279    -0.000628183067     1.007825032230
         H           -4.075683172607    -2.314411735279     0.000975816933     1.007825032230
         H            4.062079827393     2.311825264721     0.000827816933     1.007825032230
         H           -4.686659172607     1.947550264721    -0.000472183067     1.007825032230
         H            5.597237827393     0.359897264721     0.000027816933     1.007825032230
         H           -5.610169172607    -0.362203735279     0.000225816933     1.007825032230

  Basis Set: AUG-CC-PVTZ
    Blend: AUG-CC-PVTZ
  Basis Set: (AUG-CC-PVTZ AUX)
    Blend: AUG-CC-PVTZ-JKFIT
	 Reference Energy          =    -569.2685078593758590 [Eh]
	 Singles Energy            =      -0.0000000000000000 [Eh]
	 Same-Spin Energy          =      -0.6325161932629677 [Eh]
	 Opposite-Spin Energy      =      -1.9422192214736289 [Eh]
	 Correlation Energy        =      -2.5747354147365966 [Eh]
	 Total Energy              =    -571.8432432741124103 [Eh]

	 ================> DF-SCS-MP2 Energies <==================
	-----------------------------------------------------------
	 SCS Same-Spin Scale       =       0.3333333333333333 [-]
	 SCS Opposite-Spin Scale   =       1.2000000000000000 [-]
	 SCS Same-Spin Energy      =      -0.2108387310876559 [Eh]
	 SCS Opposite-Spin Energy  =      -2.3306630657683547 [Eh]
	 SCS Correlation Energy    =      -2.5415017968560107 [Eh]
	 SCS Total Energy          =    -571.8100096562318413 [Eh]
	-----------------------------------------------------------

  Dipole Moment: [D]
     X:    -0.0619      Y:    -0.0000      Z:     0.0004     Total:     0.0619

*** Psi4 exiting successfully. Buy a developer a beer!
