                               Psi4 1.4a3.dev225

  ==> Input File <==

--------------------------------------------------------------------------
#psi4
#
memory 32 gb

molecule  {
0 1
  N       -0.3833490    -0.5122680     0.0000090
  N        0.3833490     0.5122660    -0.0000110
  C       -1.7477509    -0.1905293     0.0000051
  C        1.7672170     0.1859380    -0.0000040
  C       -2.6294640    -1.2888570    -0.0000090
  C        2.2819740    -1.1203090     0.0000060
  C       -2.2819730     1.1203080     0.0000150
  C        2.6294620     1.2888570    -0.0000150
  C       -4.0100960    -1.0929460    -0.0000130
  C        3.6611660    -1.3048860     0.0000120
  C       -3.6611640     1.3048870     0.0000130
  C        4.0100950     1.0929470    -0.0000080
  C       -4.5277130     0.2041430    -0.0000040
  C        4.5277130    -0.2041410     0.0000030
  H       -2.1937340    -2.2847830    -0.0000140
  H        1.5947880    -1.9606160     0.0000130
  H       -1.5947870     1.9606160     0.0000300
  H        2.1937330     2.2847830    -0.0000250
  H       -4.6804930    -1.9488170    -0.0000250
  H        4.0690280    -2.3130640     0.0000180
  H       -4.0690260     2.3130650     0.0000210
  H        4.6804920     1.9488190    -0.0000150
  H       -5.6037480     0.3609690    -0.0000050
  H        5.6037490    -0.3609640     0.0000090
units angstrom
no_reorient  #important for SAPT in psi4, default
symmetry c1  #important for SAPT in psi4, default
}

set PROPERTIES_ORIGIN ["COM"]
properties('MP2/aug-cc-pvtz', properties = ['dipole'])
--------------------------------------------------------------------------

    Molecular point group: c1
  Charge       = 0
  Multiplicity = 1
  Basis Set: AUG-CC-PVTZ
    Blend: AUG-CC-PVTZ
  Basis Set: (AUG-CC-PVTZ AUX)
    Blend: AUG-CC-PVTZ-JKFIT

    Orbital Energies [Eh]
    ---------------------

    Doubly Occupied:

       1A    -15.632048     2A    -15.630711     3A    -11.270699
       4A    -11.270132     5A    -11.246245     6A    -11.245744
       7A    -11.245003     8A    -11.244205     9A    -11.244144
      10A    -11.243624    11A    -11.242812    12A    -11.242497
      13A    -11.242438    14A    -11.242214    15A     -1.360161
      16A     -1.172511    17A     -1.148525    18A     -1.077740
      19A     -1.023240    20A     -1.022066    21A     -1.006081
      22A     -0.927483    23A     -0.844013    24A     -0.839372
      25A     -0.817490    26A     -0.775900    27A     -0.717503
      28A     -0.699612    29A     -0.669430    30A     -0.661383
      31A     -0.631069    32A     -0.617724    33A     -0.598780
      34A     -0.597121    35A     -0.592968    36A     -0.579215
      37A     -0.576061    38A     -0.521680    39A     -0.519670
      40A     -0.514662    41A     -0.499744    42A     -0.496906
      43A     -0.476492    44A     -0.403986    45A     -0.363368
      46A     -0.343969    47A     -0.343320    48A     -0.300766

  @DF-RHF Final Energy:  -569.27779598944562

   => Energetics <=

    Nuclear Repulsion Energy =            749.3312838180572726
    One-Electron Energy =               -2257.2531061927538758
    Two-Electron Energy =                 938.6440263852509815
    Total Energy =                       -569.2777959894456217
  Basis Set: (AUG-CC-PVTZ AUX)
    Blend: AUG-CC-PVTZ-RI
    Molecular point group: c1

    Geometry (in Angstrom), charge = 0, multiplicity = 1:

       Center              X                  Y                   Z               Mass
    ------------   -----------------  -----------------  -----------------  -----------------
         N           -0.384631895283    -0.511965505420     0.000009042570    14.003074004430
         N            0.382066104717     0.512568494580    -0.000010957430    14.003074004430
         C           -1.749033795283    -0.190226805420     0.000005142570    12.000000000000
         C            1.765934104717     0.186240494580    -0.000003957430    12.000000000000
         C           -2.630746895283    -1.288554505420    -0.000008957430    12.000000000000
         C            2.280691104717    -1.120006505420     0.000006042570    12.000000000000
         C           -2.283255895283     1.120610494580     0.000015042570    12.000000000000
         C            2.628179104717     1.289159494580    -0.000014957430    12.000000000000
         C           -4.011378895283    -1.092643505420    -0.000012957430    12.000000000000
         C            3.659883104717    -1.304583505420     0.000012042570    12.000000000000
         C           -3.662446895283     1.305189494580     0.000013042570    12.000000000000
         C            4.008812104717     1.093249494580    -0.000007957430    12.000000000000
         C           -4.528995895283     0.204445494580    -0.000003957430    12.000000000000
         C            4.526430104717    -0.203838505420     0.000003042570    12.000000000000
         H           -2.195016895283    -2.284480505420    -0.000013957430     1.007825032230
         H            1.593505104717    -1.960313505420     0.000013042570     1.007825032230
         H           -1.596069895283     1.960918494580     0.000030042570     1.007825032230
         H            2.192450104717     2.285085494580    -0.000024957430     1.007825032230
         H           -4.681775895283    -1.948514505420    -0.000024957430     1.007825032230
         H            4.067745104717    -2.312761505420     0.000018042570     1.007825032230
         H           -4.070308895283     2.313367494580     0.000021042570     1.007825032230
         H            4.679209104717     1.949121494580    -0.000014957430     1.007825032230
         H           -5.605030895283     0.361271494580    -0.000004957430     1.007825032230
         H            5.602466104717    -0.360661505420     0.000009042570     1.007825032230

  Basis Set: AUG-CC-PVTZ
    Blend: AUG-CC-PVTZ
  Basis Set: (AUG-CC-PVTZ AUX)
    Blend: AUG-CC-PVTZ-JKFIT
	 Reference Energy          =    -569.2777959894456217 [Eh]
	 Singles Energy            =      -0.0000000000000000 [Eh]
	 Same-Spin Energy          =      -0.6331003414188964 [Eh]
	 Opposite-Spin Energy      =      -1.9419694482626959 [Eh]
	 Correlation Energy        =      -2.5750697896815922 [Eh]
	 Total Energy              =    -571.8528657791272281 [Eh]

	 ================> DF-SCS-MP2 Energies <==================
	-----------------------------------------------------------
	 SCS Same-Spin Scale       =       0.3333333333333333 [-]
	 SCS Opposite-Spin Scale   =       1.2000000000000000 [-]
	 SCS Same-Spin Energy      =      -0.2110334471396321 [Eh]
	 SCS Opposite-Spin Energy  =      -2.3303633379152351 [Eh]
	 SCS Correlation Energy    =      -2.5413967850548671 [Eh]
	 SCS Total Energy          =    -571.8191927745004932 [Eh]
	-----------------------------------------------------------

  Dipole Moment: [D]
     X:    -0.0226      Y:     0.0001      Z:     0.0000     Total:     0.0226

*** Psi4 exiting successfully. Buy a developer a beer!
