                               Psi4 1.3.2 release

  ==> Input File <==

--------------------------------------------------------------------------
#psi4
#
memory 32 gb

molecule  {
0 1
  N        0.3833600    -0.5125370    -0.0001240
  N       -0.2634591     0.3519018    -0.0003273
  C        1.7672300    -0.1861950    -0.0000230
  C       -1.7671580     0.1858050    -0.0001250
  C        2.6296550    -1.2889660    -0.0004100
  C       -2.2820560    -1.1203900     0.0004250
  C        2.2817410     1.1201620     0.0004430
  C       -2.6293090     1.2888360    -0.0004050
  C        4.0102370    -1.0927240    -0.0003780
  C       -3.6612700    -1.3047800     0.0004470
  C        3.6608930     1.3050510     0.0005180
  C       -4.0099580     1.0931000    -0.0003430
  C        4.5276310     0.2044750     0.0001450
  C       -4.5277070    -0.2039390     0.0001440
  H        2.1941740    -2.2850020    -0.0008280
  H       -1.5949460    -1.9607630     0.0007310
  H        1.5942790     1.9602490     0.0007180
  H       -2.1933450     2.2846620    -0.0007500
  H        4.6808280    -1.9484460    -0.0006320
  H       -4.0692680    -2.3129040     0.0009720
  H        4.0684950     2.3133330     0.0008240
  H       -4.6802440     1.9490580    -0.0004760
  H        5.6036530     0.3614050     0.0000240
  H       -5.6037540    -0.3606960     0.0002220
units angstrom
no_reorient  #important for SAPT in psi4, default
symmetry c1  #important for SAPT in psi4, default
}

set PROPERTIES_ORIGIN ["COM"]
properties('MP2/aug-cc-pvtz', properties = ['dipole'])
--------------------------------------------------------------------------

    Molecular point group: c1
  Charge       = 0
  Multiplicity = 1
  Basis Set: AUG-CC-PVTZ
    Blend: AUG-CC-PVTZ
  Basis Set: (AUG-CC-PVTZ AUX)
    Blend: AUG-CC-PVTZ-JKFIT

    Orbital Energies [Eh]
    ---------------------

    Doubly Occupied:

       1A    -15.609420     2A    -15.605915     3A    -11.272738
       4A    -11.264021     5A    -11.248159     6A    -11.245695
       7A    -11.244434     8A    -11.243452     9A    -11.242858
      10A    -11.242209    11A    -11.241244    12A    -11.240715
      13A    -11.240713    14A    -11.240023    15A     -1.481813
      16A     -1.166365    17A     -1.153309    18A     -1.061428
      19A     -1.022921    20A     -1.021843    21A     -1.015048
      22A     -0.910447    23A     -0.843361    24A     -0.840250
      25A     -0.823762    26A     -0.770036    27A     -0.727782
      28A     -0.705799    29A     -0.673781    30A     -0.670494
      31A     -0.630921    32A     -0.628995    33A     -0.617694
      34A     -0.610706    35A     -0.600424    36A     -0.592938
      37A     -0.586168    38A     -0.524336    39A     -0.521189
      40A     -0.512940    41A     -0.501072    42A     -0.495895
      43A     -0.493394    44A     -0.356101    45A     -0.349265
      46A     -0.344129    47A     -0.341902    48A     -0.321118

  @DF-RHF Final Energy:  -569.24066526751176

   => Energetics <=

    Nuclear Repulsion Energy =            752.8339647230367291
    One-Electron Energy =               -2263.9508227249352785
    Two-Electron Energy =                 941.8761927343866773
    Total Energy =                       -569.2406652675117584
  Basis Set: (AUG-CC-PVTZ AUX)
    Blend: AUG-CC-PVTZ-RI
    Molecular point group: c1

    Geometry (in Angstrom), charge = 0, multiplicity = 1:

       Center              X                  Y                   Z               Mass
    ------------   -----------------  -----------------  -----------------  -----------------
         N            0.374144492303    -0.500217088999    -0.000122614444    14.003074004430
         N           -0.272674607697     0.364221711001    -0.000325914444    14.003074004430
         C            1.758014492303    -0.173875088999    -0.000021614444    12.000000000000
         C           -1.776373507697     0.198124911001    -0.000123614444    12.000000000000
         C            2.620439492303    -1.276646088999    -0.000408614444    12.000000000000
         C           -2.291271507697    -1.108070088999     0.000426385556    12.000000000000
         C            2.272525492303     1.132481911001     0.000444385556    12.000000000000
         C           -2.638524507697     1.301155911001    -0.000403614444    12.000000000000
         C            4.001021492303    -1.080404088999    -0.000376614444    12.000000000000
         C           -3.670485507697    -1.292460088999     0.000448385556    12.000000000000
         C            3.651677492303     1.317370911001     0.000519385556    12.000000000000
         C           -4.019173507697     1.105419911001    -0.000341614444    12.000000000000
         C            4.518415492303     0.216794911001     0.000146385556    12.000000000000
         C           -4.536922507697    -0.191619088999     0.000145385556    12.000000000000
         H            2.184958492303    -2.272682088999    -0.000826614444     1.007825032230
         H           -1.604161507697    -1.948443088999     0.000732385556     1.007825032230
         H            1.585063492303     1.972568911001     0.000719385556     1.007825032230
         H           -2.202560507697     2.296981911001    -0.000748614444     1.007825032230
         H            4.671612492303    -1.936126088999    -0.000630614444     1.007825032230
         H           -4.078483507697    -2.300584088999     0.000973385556     1.007825032230
         H            4.059279492303     2.325652911001     0.000825385556     1.007825032230
         H           -4.689459507697     1.961377911001    -0.000474614444     1.007825032230
         H            5.594437492303     0.373724911001     0.000025385556     1.007825032230
         H           -5.612969507697    -0.348376088999     0.000223385556     1.007825032230

  Basis Set: AUG-CC-PVTZ
    Blend: AUG-CC-PVTZ
  Basis Set: (AUG-CC-PVTZ AUX)
    Blend: AUG-CC-PVTZ-JKFIT
	 Reference Energy          =    -569.2406652675117584 [Eh]
	 Singles Energy            =      -0.0000000000000000 [Eh]
	 Same-Spin Energy          =      -0.6265094848855970 [Eh]
	 Opposite-Spin Energy      =      -1.9277537787946319 [Eh]
	 Correlation Energy        =      -2.5542632636802289 [Eh]
	 Total Energy              =    -571.7949285311919994 [Eh]

	 ================> DF-SCS-MP2 Energies <==================
	-----------------------------------------------------------
	 SCS Same-Spin Scale       =       0.3333333333333333 [-]
	 SCS Opposite-Spin Scale   =       1.2000000000000000 [-]
	 SCS Same-Spin Energy      =      -0.2088364949618657 [Eh]
	 SCS Opposite-Spin Energy  =      -2.3133045345535583 [Eh]
	 SCS Correlation Energy    =      -2.5221410295154238 [Eh]
	 SCS Total Energy          =    -571.7628062970271685 [Eh]
	-----------------------------------------------------------

  Dipole Moment: [D]
     X:    -0.0511      Y:     0.1004      Z:     0.0003     Total:     0.1127

*** Psi4 exiting successfully. Buy a developer a beer!
