                               Psi4 1.3.2 release

  ==> Input File <==

--------------------------------------------------------------------------
#psi4
#
memory 32 gb

molecule  {
0 1
  N        0.3833600    -0.5125370    -0.0001240
  N       -0.4010445     0.4985002    -0.0003649
  C        1.7672300    -0.1861950    -0.0000230
  C       -1.7671580     0.1858050    -0.0001250
  C        2.6296550    -1.2889660    -0.0004100
  C       -2.2820560    -1.1203900     0.0004250
  C        2.2817410     1.1201620     0.0004430
  C       -2.6293090     1.2888360    -0.0004050
  C        4.0102370    -1.0927240    -0.0003780
  C       -3.6612700    -1.3047800     0.0004470
  C        3.6608930     1.3050510     0.0005180
  C       -4.0099580     1.0931000    -0.0003430
  C        4.5276310     0.2044750     0.0001450
  C       -4.5277070    -0.2039390     0.0001440
  H        2.1941740    -2.2850020    -0.0008280
  H       -1.5949460    -1.9607630     0.0007310
  H        1.5942790     1.9602490     0.0007180
  H       -2.1933450     2.2846620    -0.0007500
  H        4.6808280    -1.9484460    -0.0006320
  H       -4.0692680    -2.3129040     0.0009720
  H        4.0684950     2.3133330     0.0008240
  H       -4.6802440     1.9490580    -0.0004760
  H        5.6036530     0.3614050     0.0000240
  H       -5.6037540    -0.3606960     0.0002220
units angstrom
no_reorient  #important for SAPT in psi4, default
symmetry c1  #important for SAPT in psi4, default
}

set PROPERTIES_ORIGIN ["COM"]
properties('MP2/aug-cc-pvtz', properties = ['dipole'])
--------------------------------------------------------------------------

    Molecular point group: c1
  Charge       = 0
  Multiplicity = 1
  Basis Set: AUG-CC-PVTZ
    Blend: AUG-CC-PVTZ
  Basis Set: (AUG-CC-PVTZ AUX)
    Blend: AUG-CC-PVTZ-JKFIT

    Orbital Energies [Eh]
    ---------------------

    Doubly Occupied:

       1A    -15.630560     2A    -15.628867     3A    -11.270222
       4A    -11.268722     5A    -11.246187     6A    -11.245604
       7A    -11.244497     8A    -11.244017     9A    -11.243545
      10A    -11.243445    11A    -11.242630    12A    -11.242349
      13A    -11.242085    14A    -11.242062    15A     -1.357409
      16A     -1.173860    17A     -1.149508    18A     -1.077876
      19A     -1.023540    20A     -1.022915    21A     -1.007078
      22A     -0.927117    23A     -0.844553    24A     -0.839984
      25A     -0.818353    26A     -0.775870    27A     -0.718441
      28A     -0.698875    29A     -0.669390    30A     -0.660734
      31A     -0.631618    32A     -0.617939    33A     -0.599238
      34A     -0.598123    35A     -0.593789    36A     -0.578018
      37A     -0.575381    38A     -0.521278    39A     -0.519314
      40A     -0.515560    41A     -0.499635    42A     -0.499470
      43A     -0.476288    44A     -0.400005    45A     -0.363810
      46A     -0.344085    47A     -0.343501    48A     -0.301552

  @DF-RHF Final Energy:  -569.27881847370975

   => Energetics <=

    Nuclear Repulsion Energy =            749.5518414942271193
    One-Electron Energy =               -2257.7035183538641832
    Two-Electron Energy =                 938.8728583859273158
    Total Energy =                       -569.2788184737097481
  Basis Set: (AUG-CC-PVTZ AUX)
    Blend: AUG-CC-PVTZ-RI
    Molecular point group: c1

    Geometry (in Angstrom), charge = 0, multiplicity = 1:

       Center              X                  Y                   Z               Mass
    ------------   -----------------  -----------------  -----------------  -----------------
         N            0.384725401792    -0.511491136984    -0.000119722842    14.003074004430
         N           -0.399679098208     0.499546063016    -0.000360622842    14.003074004430
         C            1.768595401792    -0.185149136984    -0.000018722842    12.000000000000
         C           -1.765792598208     0.186850863016    -0.000120722842    12.000000000000
         C            2.631020401792    -1.287920136984    -0.000405722842    12.000000000000
         C           -2.280690598208    -1.119344136984     0.000429277158    12.000000000000
         C            2.283106401792     1.121207863016     0.000447277158    12.000000000000
         C           -2.627943598208     1.289881863016    -0.000400722842    12.000000000000
         C            4.011602401792    -1.091678136984    -0.000373722842    12.000000000000
         C           -3.659904598208    -1.303734136984     0.000451277158    12.000000000000
         C            3.662258401792     1.306096863016     0.000522277158    12.000000000000
         C           -4.008592598208     1.094145863016    -0.000338722842    12.000000000000
         C            4.528996401792     0.205520863016     0.000149277158    12.000000000000
         C           -4.526341598208    -0.202893136984     0.000148277158    12.000000000000
         H            2.195539401792    -2.283956136984    -0.000823722842     1.007825032230
         H           -1.593580598208    -1.959717136984     0.000735277158     1.007825032230
         H            1.595644401792     1.961294863016     0.000722277158     1.007825032230
         H           -2.191979598208     2.285707863016    -0.000745722842     1.007825032230
         H            4.682193401792    -1.947400136984    -0.000627722842     1.007825032230
         H           -4.067902598208    -2.311858136984     0.000976277158     1.007825032230
         H            4.069860401792     2.314378863016     0.000828277158     1.007825032230
         H           -4.678878598208     1.950103863016    -0.000471722842     1.007825032230
         H            5.605018401792     0.362450863016     0.000028277158     1.007825032230
         H           -5.602388598208    -0.359650136984     0.000226277158     1.007825032230

  Basis Set: AUG-CC-PVTZ
    Blend: AUG-CC-PVTZ
  Basis Set: (AUG-CC-PVTZ AUX)
    Blend: AUG-CC-PVTZ-JKFIT
	 Reference Energy          =    -569.2788184737097481 [Eh]
	 Singles Energy            =      -0.0000000000000000 [Eh]
	 Same-Spin Energy          =      -0.6329433082553220 [Eh]
	 Opposite-Spin Energy      =      -1.9414305735141113 [Eh]
	 Correlation Energy        =      -2.5743738817694330 [Eh]
	 Total Energy              =    -571.8531923554792229 [Eh]

	 ================> DF-SCS-MP2 Energies <==================
	-----------------------------------------------------------
	 SCS Same-Spin Scale       =       0.3333333333333333 [-]
	 SCS Opposite-Spin Scale   =       1.2000000000000000 [-]
	 SCS Same-Spin Energy      =      -0.2109811027517740 [Eh]
	 SCS Opposite-Spin Energy  =      -2.3297166882169336 [Eh]
	 SCS Correlation Energy    =      -2.5406977909687076 [Eh]
	 SCS Total Energy          =    -571.8195162646784411 [Eh]
	-----------------------------------------------------------

  Dipole Moment: [D]
     X:    -0.0516      Y:     0.0092      Z:     0.0004     Total:     0.0525

*** Psi4 exiting successfully. Buy a developer a beer!
