                               Psi4 1.3.2 release

  ==> Input File <==

--------------------------------------------------------------------------
#psi4
#
memory 32 gb

molecule  {
0 1
  N        0.4094955    -0.6082759    -0.0001353
  N       -0.3832800     0.5120360    -0.0003650
  C        1.7672300    -0.1861950    -0.0000230
  C       -1.7671580     0.1858050    -0.0001250
  C        2.6296550    -1.2889660    -0.0004100
  C       -2.2820560    -1.1203900     0.0004250
  C        2.2817410     1.1201620     0.0004430
  C       -2.6293090     1.2888360    -0.0004050
  C        4.0102370    -1.0927240    -0.0003780
  C       -3.6612700    -1.3047800     0.0004470
  C        3.6608930     1.3050510     0.0005180
  C       -4.0099580     1.0931000    -0.0003430
  C        4.5276310     0.2044750     0.0001450
  C       -4.5277070    -0.2039390     0.0001440
  H        2.1941740    -2.2850020    -0.0008280
  H       -1.5949460    -1.9607630     0.0007310
  H        1.5942790     1.9602490     0.0007180
  H       -2.1933450     2.2846620    -0.0007500
  H        4.6808280    -1.9484460    -0.0006320
  H       -4.0692680    -2.3129040     0.0009720
  H        4.0684950     2.3133330     0.0008240
  H       -4.6802440     1.9490580    -0.0004760
  H        5.6036530     0.3614050     0.0000240
  H       -5.6037540    -0.3606960     0.0002220
units angstrom
no_reorient  #important for SAPT in psi4, default
symmetry c1  #important for SAPT in psi4, default
}

set PROPERTIES_ORIGIN ["COM"]
properties('MP2/aug-cc-pvtz', properties = ['dipole'])
--------------------------------------------------------------------------

    Molecular point group: c1
  Charge       = 0
  Multiplicity = 1
  Basis Set: AUG-CC-PVTZ
    Blend: AUG-CC-PVTZ
  Basis Set: (AUG-CC-PVTZ AUX)
    Blend: AUG-CC-PVTZ-JKFIT

    Orbital Energies [Eh]
    ---------------------

    Doubly Occupied:

       1A    -15.644268     2A    -15.641663     3A    -11.271976
       4A    -11.270504     5A    -11.247013     6A    -11.245618
       7A    -11.244944     8A    -11.244518     9A    -11.243848
      10A    -11.243531    11A    -11.243127    12A    -11.242684
      13A    -11.241850    14A    -11.240635    15A     -1.318283
      16A     -1.173871    17A     -1.146724    18A     -1.078249
      19A     -1.024115    20A     -1.022482    21A     -1.001237
      22A     -0.930067    23A     -0.843139    24A     -0.838949
      25A     -0.813621    26A     -0.778141    27A     -0.710459
      28A     -0.699998    29A     -0.664556    30A     -0.655739
      31A     -0.632107    32A     -0.618182    33A     -0.600234
      34A     -0.594009    35A     -0.587028    36A     -0.577717
      37A     -0.560547    38A     -0.519971    39A     -0.516541
      40A     -0.515823    41A     -0.501805    42A     -0.495779
      43A     -0.467692    44A     -0.422312    45A     -0.364866
      46A     -0.344929    47A     -0.343276    48A     -0.294193

  @DF-RHF Final Energy:  -569.25234958918554

   => Energetics <=

    Nuclear Repulsion Energy =            747.5561218217362693
    One-Electron Energy =               -2253.7713026877577249
    Two-Electron Energy =                 936.9628312768359137
    Total Energy =                       -569.2523495891855418
  Basis Set: (AUG-CC-PVTZ AUX)
    Blend: AUG-CC-PVTZ-RI
    Molecular point group: c1

    Geometry (in Angstrom), charge = 0, multiplicity = 1:

       Center              X                  Y                   Z               Mass
    ------------   -----------------  -----------------  -----------------  -----------------
         N            0.407484802827    -0.600908264755    -0.000130146133    14.003074004430
         N           -0.385290697173     0.519403635245    -0.000359846133    14.003074004430
         C            1.765219302827    -0.178827364755    -0.000017846133    12.000000000000
         C           -1.769168697173     0.193172635245    -0.000119846133    12.000000000000
         C            2.627644302827    -1.281598364755    -0.000404846133    12.000000000000
         C           -2.284066697173    -1.113022364755     0.000430153867    12.000000000000
         C            2.279730302827     1.127529635245     0.000448153867    12.000000000000
         C           -2.631319697173     1.296203635245    -0.000399846133    12.000000000000
         C            4.008226302827    -1.085356364755    -0.000372846133    12.000000000000
         C           -3.663280697173    -1.297412364755     0.000452153867    12.000000000000
         C            3.658882302827     1.312418635245     0.000523153867    12.000000000000
         C           -4.011968697173     1.100467635245    -0.000337846133    12.000000000000
         C            4.525620302827     0.211842635245     0.000150153867    12.000000000000
         C           -4.529717697173    -0.196571364755     0.000149153867    12.000000000000
         H            2.192163302827    -2.277634364755    -0.000822846133     1.007825032230
         H           -1.596956697173    -1.953395364755     0.000736153867     1.007825032230
         H            1.592268302827     1.967616635245     0.000723153867     1.007825032230
         H           -2.195355697173     2.292029635245    -0.000744846133     1.007825032230
         H            4.678817302827    -1.941078364755    -0.000626846133     1.007825032230
         H           -4.071278697173    -2.305536364755     0.000977153867     1.007825032230
         H            4.066484302827     2.320700635245     0.000829153867     1.007825032230
         H           -4.682254697173     1.956425635245    -0.000470846133     1.007825032230
         H            5.601642302827     0.368772635245     0.000029153867     1.007825032230
         H           -5.605764697173    -0.353328364755     0.000227153867     1.007825032230

  Basis Set: AUG-CC-PVTZ
    Blend: AUG-CC-PVTZ
  Basis Set: (AUG-CC-PVTZ AUX)
    Blend: AUG-CC-PVTZ-JKFIT
	 Reference Energy          =    -569.2523495891855418 [Eh]
	 Singles Energy            =      -0.0000000000000000 [Eh]
	 Same-Spin Energy          =      -0.6378794054938741 [Eh]
	 Opposite-Spin Energy      =      -1.9525786689653932 [Eh]
	 Correlation Energy        =      -2.5904580744592671 [Eh]
	 Total Energy              =    -571.8428076636448623 [Eh]

	 ================> DF-SCS-MP2 Energies <==================
	-----------------------------------------------------------
	 SCS Same-Spin Scale       =       0.3333333333333333 [-]
	 SCS Opposite-Spin Scale   =       1.2000000000000000 [-]
	 SCS Same-Spin Energy      =      -0.2126264684979580 [Eh]
	 SCS Opposite-Spin Energy  =      -2.3430944027584717 [Eh]
	 SCS Correlation Energy    =      -2.5557208712564297 [Eh]
	 SCS Total Energy          =    -571.8080704604419680 [Eh]
	-----------------------------------------------------------

  Dipole Moment: [D]
     X:    -0.0893      Y:     0.0509      Z:     0.0005     Total:     0.1028

*** Psi4 exiting successfully. Buy a developer a beer!
