                               Psi4 1.3.2 release

  ==> Input File <==

--------------------------------------------------------------------------
#psi4
#
memory 32 gb

molecule  {
0 1
  N        0.3728138    -0.4640418    -0.0001182
  N       -0.3832800     0.5120360    -0.0003650
  C        1.7672300    -0.1861950    -0.0000230
  C       -1.7671580     0.1858050    -0.0001250
  C        2.6296550    -1.2889660    -0.0004100
  C       -2.2820560    -1.1203900     0.0004250
  C        2.2817410     1.1201620     0.0004430
  C       -2.6293090     1.2888360    -0.0004050
  C        4.0102370    -1.0927240    -0.0003780
  C       -3.6612700    -1.3047800     0.0004470
  C        3.6608930     1.3050510     0.0005180
  C       -4.0099580     1.0931000    -0.0003430
  C        4.5276310     0.2044750     0.0001450
  C       -4.5277070    -0.2039390     0.0001440
  H        2.1941740    -2.2850020    -0.0008280
  H       -1.5949460    -1.9607630     0.0007310
  H        1.5942790     1.9602490     0.0007180
  H       -2.1933450     2.2846620    -0.0007500
  H        4.6808280    -1.9484460    -0.0006320
  H       -4.0692680    -2.3129040     0.0009720
  H        4.0684950     2.3133330     0.0008240
  H       -4.6802440     1.9490580    -0.0004760
  H        5.6036530     0.3614050     0.0000240
  H       -5.6037540    -0.3606960     0.0002220
units angstrom
no_reorient  #important for SAPT in psi4, default
symmetry c1  #important for SAPT in psi4, default
}

set PROPERTIES_ORIGIN ["COM"]
properties('MP2/aug-cc-pvtz', properties = ['dipole'])
--------------------------------------------------------------------------

    Molecular point group: c1
  Charge       = 0
  Multiplicity = 1
  Basis Set: AUG-CC-PVTZ
    Blend: AUG-CC-PVTZ
  Basis Set: (AUG-CC-PVTZ AUX)
    Blend: AUG-CC-PVTZ-JKFIT

    Orbital Energies [Eh]
    ---------------------

    Doubly Occupied:

       1A    -15.626245     2A    -15.624271     3A    -11.270030
       4A    -11.268944     5A    -11.246085     6A    -11.245357
       7A    -11.245074     8A    -11.243391     9A    -11.243367
      10A    -11.243099    11A    -11.243073    12A    -11.241876
      13A    -11.241763    14A    -11.241686    15A     -1.379881
      16A     -1.172054    17A     -1.150667    18A     -1.074182
      19A     -1.023466    20A     -1.022639    21A     -1.009454
      22A     -0.923767    23A     -0.844310    24A     -0.840272
      25A     -0.819818    26A     -0.774851    27A     -0.720920
      28A     -0.699492    29A     -0.669899    30A     -0.663023
      31A     -0.631049    32A     -0.617825    33A     -0.601429
      34A     -0.599202    35A     -0.593600    36A     -0.583539
      37A     -0.579891    38A     -0.521729    39A     -0.520006
      40A     -0.514968    41A     -0.500212    42A     -0.498453
      43A     -0.480696    44A     -0.390723    45A     -0.362043
      46A     -0.344052    47A     -0.343143    48A     -0.306633

  @DF-RHF Final Energy:  -569.28415797683317

   => Energetics <=

    Nuclear Repulsion Energy =            750.2067687763270669
    One-Electron Energy =               -2258.9775547290123541
    Two-Electron Energy =                 939.4866279758522296
    Total Energy =                       -569.2841579768331712
  Basis Set: (AUG-CC-PVTZ AUX)
    Blend: AUG-CC-PVTZ-RI
    Molecular point group: c1

    Geometry (in Angstrom), charge = 0, multiplicity = 1:

       Center              X                  Y                   Z               Mass
    ------------   -----------------  -----------------  -----------------  -----------------
         N            0.373624083452    -0.467766387893    -0.000114361197    14.003074004430
         N           -0.382469716548     0.508311412107    -0.000361161197    14.003074004430
         C            1.768040283452    -0.189919587893    -0.000019161197    12.000000000000
         C           -1.766347716548     0.182080412107    -0.000121161197    12.000000000000
         C            2.630465283452    -1.292690587893    -0.000406161197    12.000000000000
         C           -2.281245716548    -1.124114587893     0.000428838803    12.000000000000
         C            2.282551283452     1.116437412107     0.000446838803    12.000000000000
         C           -2.628498716548     1.285111412107    -0.000401161197    12.000000000000
         C            4.011047283452    -1.096448587893    -0.000374161197    12.000000000000
         C           -3.660459716548    -1.308504587893     0.000450838803    12.000000000000
         C            3.661703283452     1.301326412107     0.000521838803    12.000000000000
         C           -4.009147716548     1.089375412107    -0.000339161197    12.000000000000
         C            4.528441283452     0.200750412107     0.000148838803    12.000000000000
         C           -4.526896716548    -0.207663587893     0.000147838803    12.000000000000
         H            2.194984283452    -2.288726587893    -0.000824161197     1.007825032230
         H           -1.594135716548    -1.964487587893     0.000734838803     1.007825032230
         H            1.595089283452     1.956524412107     0.000721838803     1.007825032230
         H           -2.192534716548     2.280937412107    -0.000746161197     1.007825032230
         H            4.681638283452    -1.952170587893    -0.000628161197     1.007825032230
         H           -4.068457716548    -2.316628587893     0.000975838803     1.007825032230
         H            4.069305283452     2.309608412107     0.000827838803     1.007825032230
         H           -4.679433716548     1.945333412107    -0.000472161197     1.007825032230
         H            5.604463283452     0.357680412107     0.000027838803     1.007825032230
         H           -5.602943716548    -0.364420587893     0.000225838803     1.007825032230

  Basis Set: AUG-CC-PVTZ
    Blend: AUG-CC-PVTZ
  Basis Set: (AUG-CC-PVTZ AUX)
    Blend: AUG-CC-PVTZ-JKFIT
	 Reference Energy          =    -569.2841579768331712 [Eh]
	 Singles Energy            =      -0.0000000000000000 [Eh]
	 Same-Spin Energy          =      -0.6308752378403748 [Eh]
	 Opposite-Spin Energy      =      -1.9373426745416324 [Eh]
	 Correlation Energy        =      -2.5682179123820070 [Eh]
	 Total Energy              =    -571.8523758892151818 [Eh]

	 ================> DF-SCS-MP2 Energies <==================
	-----------------------------------------------------------
	 SCS Same-Spin Scale       =       0.3333333333333333 [-]
	 SCS Opposite-Spin Scale   =       1.2000000000000000 [-]
	 SCS Same-Spin Energy      =      -0.2102917459467916 [Eh]
	 SCS Opposite-Spin Energy  =      -2.3248112094499587 [Eh]
	 SCS Correlation Energy    =      -2.5351029553967503 [Eh]
	 SCS Total Energy          =    -571.8192609322298949 [Eh]
	-----------------------------------------------------------

  Dipole Moment: [D]
     X:     0.0604      Y:    -0.0303      Z:     0.0004     Total:     0.0676

*** Psi4 exiting successfully. Buy a developer a beer!
