                               Psi4 1.3.2 release

  ==> Input File <==

--------------------------------------------------------------------------
#psi4
#
memory 32 gb

molecule  {
0 1
  N        0.3833600    -0.5125370    -0.0001240
  N       -0.3832800     0.5120360    -0.0003650
  C        1.6698997    -0.2091473    -0.0000301
  C       -1.7671580     0.1858050    -0.0001250
  C        2.6296550    -1.2889660    -0.0004100
  C       -2.2820560    -1.1203900     0.0004250
  C        2.2817410     1.1201620     0.0004430
  C       -2.6293090     1.2888360    -0.0004050
  C        4.0102370    -1.0927240    -0.0003780
  C       -3.6612700    -1.3047800     0.0004470
  C        3.6608930     1.3050510     0.0005180
  C       -4.0099580     1.0931000    -0.0003430
  C        4.5276310     0.2044750     0.0001450
  C       -4.5277070    -0.2039390     0.0001440
  H        2.1941740    -2.2850020    -0.0008280
  H       -1.5949460    -1.9607630     0.0007310
  H        1.5942790     1.9602490     0.0007180
  H       -2.1933450     2.2846620    -0.0007500
  H        4.6808280    -1.9484460    -0.0006320
  H       -4.0692680    -2.3129040     0.0009720
  H        4.0684950     2.3133330     0.0008240
  H       -4.6802440     1.9490580    -0.0004760
  H        5.6036530     0.3614050     0.0000240
  H       -5.6037540    -0.3606960     0.0002220
units angstrom
no_reorient  #important for SAPT in psi4, default
symmetry c1  #important for SAPT in psi4, default
}

set PROPERTIES_ORIGIN ["COM"]
properties('MP2/aug-cc-pvtz', properties = ['dipole'])
--------------------------------------------------------------------------

    Molecular point group: c1
  Charge       = 0
  Multiplicity = 1
  Basis Set: AUG-CC-PVTZ
    Blend: AUG-CC-PVTZ
  Basis Set: (AUG-CC-PVTZ AUX)
    Blend: AUG-CC-PVTZ-JKFIT

    Orbital Energies [Eh]
    ---------------------

    Doubly Occupied:

       1A    -15.630585     2A    -15.626814     3A    -11.273353
       4A    -11.270084     5A    -11.250040     6A    -11.249958
       7A    -11.249527     8A    -11.245655     9A    -11.243989
      10A    -11.243599    11A    -11.243313    12A    -11.242730
      13A    -11.242434    14A    -11.242147    15A     -1.372134
      16A     -1.174003    17A     -1.144495    18A     -1.087905
      19A     -1.023125    20A     -1.019248    21A     -1.003142
      22A     -0.933867    23A     -0.845602    24A     -0.837597
      25A     -0.816117    26A     -0.775400    27A     -0.719493
      28A     -0.699605    29A     -0.674694    30A     -0.665219
      31A     -0.630252    32A     -0.616853    33A     -0.600133
      34A     -0.595668    35A     -0.587634    36A     -0.583504
      37A     -0.578883    38A     -0.525752    39A     -0.520956
      40A     -0.513179    41A     -0.501068    42A     -0.486421
      43A     -0.475808    44A     -0.404969    45A     -0.365651
      46A     -0.343928    47A     -0.342797    48A     -0.291629

  @DF-RHF Final Energy:  -569.26407908247165

   => Energetics <=

    Nuclear Repulsion Energy =            749.5817207148634225
    One-Electron Energy =               -2257.6696787634855355
    Two-Electron Energy =                 938.8238789661504597
    Total Energy =                       -569.2640790824716532
  Basis Set: (AUG-CC-PVTZ AUX)
    Blend: AUG-CC-PVTZ-RI
    Molecular point group: c1

    Geometry (in Angstrom), charge = 0, multiplicity = 1:

       Center              X                  Y                   Z               Mass
    ------------   -----------------  -----------------  -----------------  -----------------
         N            0.389773643159    -0.511019461258    -0.000119247237    14.003074004430
         N           -0.376866356841     0.513553538742    -0.000360247237    14.003074004430
         C            1.676313343159    -0.207629761258    -0.000025347237    12.000000000000
         C           -1.760744356841     0.187322538742    -0.000120247237    12.000000000000
         C            2.636068643159    -1.287448461258    -0.000405247237    12.000000000000
         C           -2.275642356841    -1.118872461258     0.000429752763    12.000000000000
         C            2.288154643159     1.121679538742     0.000447752763    12.000000000000
         C           -2.622895356841     1.290353538742    -0.000400247237    12.000000000000
         C            4.016650643159    -1.091206461258    -0.000373247237    12.000000000000
         C           -3.654856356841    -1.303262461258     0.000451752763    12.000000000000
         C            3.667306643159     1.306568538742     0.000522752763    12.000000000000
         C           -4.003544356841     1.094617538742    -0.000338247237    12.000000000000
         C            4.534044643159     0.205992538742     0.000149752763    12.000000000000
         C           -4.521293356841    -0.202421461258     0.000148752763    12.000000000000
         H            2.200587643159    -2.283484461258    -0.000823247237     1.007825032230
         H           -1.588532356841    -1.959245461258     0.000735752763     1.007825032230
         H            1.600692643159     1.961766538742     0.000722752763     1.007825032230
         H           -2.186931356841     2.286179538742    -0.000745247237     1.007825032230
         H            4.687241643159    -1.946928461258    -0.000627247237     1.007825032230
         H           -4.062854356841    -2.311386461258     0.000976752763     1.007825032230
         H            4.074908643159     2.314850538742     0.000828752763     1.007825032230
         H           -4.673830356841     1.950575538742    -0.000471247237     1.007825032230
         H            5.610066643159     0.362922538742     0.000028752763     1.007825032230
         H           -5.597340356841    -0.359178461258     0.000226752763     1.007825032230

  Basis Set: AUG-CC-PVTZ
    Blend: AUG-CC-PVTZ
  Basis Set: (AUG-CC-PVTZ AUX)
    Blend: AUG-CC-PVTZ-JKFIT
	 Reference Energy          =    -569.2640790824716532 [Eh]
	 Singles Energy            =      -0.0000000000000000 [Eh]
	 Same-Spin Energy          =      -0.6346424425062156 [Eh]
	 Opposite-Spin Energy      =      -1.9436686458366537 [Eh]
	 Correlation Energy        =      -2.5783110883428693 [Eh]
	 Total Energy              =    -571.8423901708144967 [Eh]

	 ================> DF-SCS-MP2 Energies <==================
	-----------------------------------------------------------
	 SCS Same-Spin Scale       =       0.3333333333333333 [-]
	 SCS Opposite-Spin Scale   =       1.2000000000000000 [-]
	 SCS Same-Spin Energy      =      -0.2115474808354052 [Eh]
	 SCS Opposite-Spin Energy  =      -2.3324023750039844 [Eh]
	 SCS Correlation Energy    =      -2.5439498558393896 [Eh]
	 SCS Total Energy          =    -571.8080289383110539 [Eh]
	-----------------------------------------------------------

  Dipole Moment: [D]
     X:     0.1334      Y:     0.0001      Z:     0.0004     Total:     0.1334

*** Psi4 exiting successfully. Buy a developer a beer!
