                               Psi4 1.3.2 release

  ==> Input File <==

--------------------------------------------------------------------------
#psi4
#
memory 32 gb

molecule  {
0 1
  N        0.3833600    -0.5125370    -0.0001240
  N       -0.4528831     0.4560621    -0.0003640
  C        1.7672300    -0.1861950    -0.0000230
  C       -1.7671580     0.1858050    -0.0001250
  C        2.6296550    -1.2889660    -0.0004100
  C       -2.2820560    -1.1203900     0.0004250
  C        2.2817410     1.1201620     0.0004430
  C       -2.6293090     1.2888360    -0.0004050
  C        4.0102370    -1.0927240    -0.0003780
  C       -3.6612700    -1.3047800     0.0004470
  C        3.6608930     1.3050510     0.0005180
  C       -4.0099580     1.0931000    -0.0003430
  C        4.5276310     0.2044750     0.0001450
  C       -4.5277070    -0.2039390     0.0001440
  H        2.1941740    -2.2850020    -0.0008280
  H       -1.5949460    -1.9607630     0.0007310
  H        1.5942790     1.9602490     0.0007180
  H       -2.1933450     2.2846620    -0.0007500
  H        4.6808280    -1.9484460    -0.0006320
  H       -4.0692680    -2.3129040     0.0009720
  H        4.0684950     2.3133330     0.0008240
  H       -4.6802440     1.9490580    -0.0004760
  H        5.6036530     0.3614050     0.0000240
  H       -5.6037540    -0.3606960     0.0002220
units angstrom
no_reorient  #important for SAPT in psi4, default
symmetry c1  #important for SAPT in psi4, default
}

set PROPERTIES_ORIGIN ["COM"]
properties('MP2/aug-cc-pvtz', properties = ['dipole'])
--------------------------------------------------------------------------

    Molecular point group: c1
  Charge       = 0
  Multiplicity = 1
  Basis Set: AUG-CC-PVTZ
    Blend: AUG-CC-PVTZ
  Basis Set: (AUG-CC-PVTZ AUX)
    Blend: AUG-CC-PVTZ-JKFIT

    Orbital Energies [Eh]
    ---------------------

    Doubly Occupied:

       1A    -15.626047     2A    -15.620765     3A    -11.270729
       4A    -11.264585     5A    -11.248172     6A    -11.246061
       7A    -11.245255     8A    -11.243657     9A    -11.243602
      10A    -11.243315    11A    -11.243031    12A    -11.242090
      13A    -11.241991    14A    -11.241707    15A     -1.357794
      16A     -1.178137    17A     -1.149525    18A     -1.085519
      19A     -1.024610    20A     -1.022536    21A     -1.007956
      22A     -0.931213    23A     -0.847332    24A     -0.840465
      25A     -0.820334    26A     -0.775754    27A     -0.722509
      28A     -0.697076    29A     -0.672621    30A     -0.662252
      31A     -0.632408    32A     -0.618119    33A     -0.601673
      34A     -0.597863    35A     -0.593740    36A     -0.578871
      37A     -0.574274    38A     -0.522056    39A     -0.520283
      40A     -0.516426    41A     -0.501846    42A     -0.498722
      43A     -0.475340    44A     -0.388996    45A     -0.366541
      46A     -0.344619    47A     -0.343198    48A     -0.297711

  @DF-RHF Final Energy:  -569.27426018711390

   => Energetics <=

    Nuclear Repulsion Energy =            750.3713991279896618
    One-Electron Energy =               -2259.3126706112407192
    Two-Electron Energy =                 939.6670112961371615
    Total Energy =                       -569.2742601871138959
  Basis Set: (AUG-CC-PVTZ AUX)
    Blend: AUG-CC-PVTZ-RI
    Molecular point group: c1

    Geometry (in Angstrom), charge = 0, multiplicity = 1:

       Center              X                  Y                   Z               Mass
    ------------   -----------------  -----------------  -----------------  -----------------
         N            0.388712013269    -0.508227464422    -0.000119792056    14.003074004430
         N           -0.447531086731     0.460371635578    -0.000359792056    14.003074004430
         C            1.772582013269    -0.181885464422    -0.000018792056    12.000000000000
         C           -1.761805986731     0.190114535578    -0.000120792056    12.000000000000
         C            2.635007013269    -1.284656464422    -0.000405792056    12.000000000000
         C           -2.276703986731    -1.116080464422     0.000429207944    12.000000000000
         C            2.287093013269     1.124471535578     0.000447207944    12.000000000000
         C           -2.623956986731     1.293145535578    -0.000400792056    12.000000000000
         C            4.015589013269    -1.088414464422    -0.000373792056    12.000000000000
         C           -3.655917986731    -1.300470464422     0.000451207944    12.000000000000
         C            3.666245013269     1.309360535578     0.000522207944    12.000000000000
         C           -4.004605986731     1.097409535578    -0.000338792056    12.000000000000
         C            4.532983013269     0.208784535578     0.000149207944    12.000000000000
         C           -4.522354986731    -0.199629464422     0.000148207944    12.000000000000
         H            2.199526013269    -2.280692464422    -0.000823792056     1.007825032230
         H           -1.589593986731    -1.956453464422     0.000735207944     1.007825032230
         H            1.599631013269     1.964558535578     0.000722207944     1.007825032230
         H           -2.187992986731     2.288971535578    -0.000745792056     1.007825032230
         H            4.686180013269    -1.944136464422    -0.000627792056     1.007825032230
         H           -4.063915986731    -2.308594464422     0.000976207944     1.007825032230
         H            4.073847013269     2.317642535578     0.000828207944     1.007825032230
         H           -4.674891986731     1.953367535578    -0.000471792056     1.007825032230
         H            5.609005013269     0.365714535578     0.000028207944     1.007825032230
         H           -5.598401986731    -0.356386464422     0.000226207944     1.007825032230

  Basis Set: AUG-CC-PVTZ
    Blend: AUG-CC-PVTZ
  Basis Set: (AUG-CC-PVTZ AUX)
    Blend: AUG-CC-PVTZ-JKFIT
	 Reference Energy          =    -569.2742601871138959 [Eh]
	 Singles Energy            =      -0.0000000000000000 [Eh]
	 Same-Spin Energy          =      -0.6334506358008041 [Eh]
	 Opposite-Spin Energy      =      -1.9408312222442741 [Eh]
	 Correlation Energy        =      -2.5742818580450781 [Eh]
	 Total Energy              =    -571.8485420451589789 [Eh]

	 ================> DF-SCS-MP2 Energies <==================
	-----------------------------------------------------------
	 SCS Same-Spin Scale       =       0.3333333333333333 [-]
	 SCS Opposite-Spin Scale   =       1.2000000000000000 [-]
	 SCS Same-Spin Energy      =      -0.2111502119336013 [Eh]
	 SCS Opposite-Spin Energy  =      -2.3289974666931288 [Eh]
	 SCS Correlation Energy    =      -2.5401476786267301 [Eh]
	 SCS Total Energy          =    -571.8144078657405771 [Eh]
	-----------------------------------------------------------

  Dipole Moment: [D]
     X:    -0.2067      Y:     0.0414      Z:     0.0004     Total:     0.2108

*** Psi4 exiting successfully. Buy a developer a beer!
