                               Psi4 1.3.2 release

  ==> Input File <==

--------------------------------------------------------------------------
#psi4
#
memory 32 gb

molecule  {
0 1
  N        0.3833600    -0.5125370    -0.0001240
  N       -0.2719832     0.5865590    -0.0003643
  C        1.7672300    -0.1861950    -0.0000230
  C       -1.7671580     0.1858050    -0.0001250
  C        2.6296550    -1.2889660    -0.0004100
  C       -2.2820560    -1.1203900     0.0004250
  C        2.2817410     1.1201620     0.0004430
  C       -2.6293090     1.2888360    -0.0004050
  C        4.0102370    -1.0927240    -0.0003780
  C       -3.6612700    -1.3047800     0.0004470
  C        3.6608930     1.3050510     0.0005180
  C       -4.0099580     1.0931000    -0.0003430
  C        4.5276310     0.2044750     0.0001450
  C       -4.5277070    -0.2039390     0.0001440
  H        2.1941740    -2.2850020    -0.0008280
  H       -1.5949460    -1.9607630     0.0007310
  H        1.5942790     1.9602490     0.0007180
  H       -2.1933450     2.2846620    -0.0007500
  H        4.6808280    -1.9484460    -0.0006320
  H       -4.0692680    -2.3129040     0.0009720
  H        4.0684950     2.3133330     0.0008240
  H       -4.6802440     1.9490580    -0.0004760
  H        5.6036530     0.3614050     0.0000240
  H       -5.6037540    -0.3606960     0.0002220
units angstrom
no_reorient  #important for SAPT in psi4, default
symmetry c1  #important for SAPT in psi4, default
}

set PROPERTIES_ORIGIN ["COM"]
properties('MP2/aug-cc-pvtz', properties = ['dipole'])
--------------------------------------------------------------------------

    Molecular point group: c1
  Charge       = 0
  Multiplicity = 1
  Basis Set: AUG-CC-PVTZ
    Blend: AUG-CC-PVTZ
  Basis Set: (AUG-CC-PVTZ AUX)
    Blend: AUG-CC-PVTZ-JKFIT

    Orbital Energies [Eh]
    ---------------------

    Doubly Occupied:

       1A    -15.645565     2A    -15.639067     3A    -11.277151
       4A    -11.268951     5A    -11.245284     6A    -11.244269
       7A    -11.243734     8A    -11.243473     9A    -11.243235
      10A    -11.242683    11A    -11.242274    12A    -11.242082
      13A    -11.241650    14A    -11.241111    15A     -1.360860
      16A     -1.166018    17A     -1.149190    18A     -1.061368
      19A     -1.023168    20A     -1.021703    21A     -1.004874
      22A     -0.918447    23A     -0.840767    24A     -0.837409
      25A     -0.813621    26A     -0.776577    27A     -0.710311
      28A     -0.704666    29A     -0.659731    30A     -0.658623
      31A     -0.629848    32A     -0.617488    33A     -0.602972
      34A     -0.593504    35A     -0.591200    36A     -0.581608
      37A     -0.571438    38A     -0.520807    39A     -0.517138
      40A     -0.513024    41A     -0.500056    42A     -0.493081
      43A     -0.478472    44A     -0.414450    45A     -0.357591
      46A     -0.343915    47A     -0.342969    48A     -0.308833

  @DF-RHF Final Energy:  -569.26136844679468

   => Energetics <=

    Nuclear Repulsion Energy =            747.9497067584574097
    One-Electron Energy =               -2254.5296429922946118
    Two-Electron Energy =                 937.3185677870424115
    Total Energy =                       -569.2613684467946769
  Basis Set: (AUG-CC-PVTZ AUX)
    Blend: AUG-CC-PVTZ-RI
    Molecular point group: c1

    Geometry (in Angstrom), charge = 0, multiplicity = 1:

       Center              X                  Y                   Z               Mass
    ------------   -----------------  -----------------  -----------------  -----------------
         N            0.374800032285    -0.518263237749    -0.000119768985    14.003074004430
         N           -0.280543167715     0.580832762251    -0.000360068985    14.003074004430
         C            1.758670032285    -0.191921237749    -0.000018768985    12.000000000000
         C           -1.775717967715     0.180078762251    -0.000120768985    12.000000000000
         C            2.621095032285    -1.294692237749    -0.000405768985    12.000000000000
         C           -2.290615967715    -1.126116237749     0.000429231015    12.000000000000
         C            2.273181032285     1.114435762251     0.000447231015    12.000000000000
         C           -2.637868967715     1.283109762251    -0.000400768985    12.000000000000
         C            4.001677032285    -1.098450237749    -0.000373768985    12.000000000000
         C           -3.669829967715    -1.310506237749     0.000451231015    12.000000000000
         C            3.652333032285     1.299324762251     0.000522231015    12.000000000000
         C           -4.018517967715     1.087373762251    -0.000338768985    12.000000000000
         C            4.519071032285     0.198748762251     0.000149231015    12.000000000000
         C           -4.536266967715    -0.209665237749     0.000148231015    12.000000000000
         H            2.185614032285    -2.290728237749    -0.000823768985     1.007825032230
         H           -1.603505967715    -1.966489237749     0.000735231015     1.007825032230
         H            1.585719032285     1.954522762251     0.000722231015     1.007825032230
         H           -2.201904967715     2.278935762251    -0.000745768985     1.007825032230
         H            4.672268032285    -1.954172237749    -0.000627768985     1.007825032230
         H           -4.077827967715    -2.318630237749     0.000976231015     1.007825032230
         H            4.059935032285     2.307606762251     0.000828231015     1.007825032230
         H           -4.688803967715     1.943331762251    -0.000471768985     1.007825032230
         H            5.595093032285     0.355678762251     0.000028231015     1.007825032230
         H           -5.612313967715    -0.366422237749     0.000226231015     1.007825032230

  Basis Set: AUG-CC-PVTZ
    Blend: AUG-CC-PVTZ
  Basis Set: (AUG-CC-PVTZ AUX)
    Blend: AUG-CC-PVTZ-JKFIT
	 Reference Energy          =    -569.2613684467946769 [Eh]
	 Singles Energy            =      -0.0000000000000000 [Eh]
	 Same-Spin Energy          =      -0.6333017494280864 [Eh]
	 Opposite-Spin Energy      =      -1.9455106429010640 [Eh]
	 Correlation Energy        =      -2.5788123923291506 [Eh]
	 Total Energy              =    -571.8401808391238319 [Eh]

	 ================> DF-SCS-MP2 Energies <==================
	-----------------------------------------------------------
	 SCS Same-Spin Scale       =       0.3333333333333333 [-]
	 SCS Opposite-Spin Scale   =       1.2000000000000000 [-]
	 SCS Same-Spin Energy      =      -0.2111005831426954 [Eh]
	 SCS Opposite-Spin Energy  =      -2.3346127714812765 [Eh]
	 SCS Correlation Energy    =      -2.5457133546239721 [Eh]
	 SCS Total Energy          =    -571.8070818014186898 [Eh]
	-----------------------------------------------------------

  Dipole Moment: [D]
     X:     0.2746      Y:    -0.0358      Z:     0.0004     Total:     0.2769

*** Psi4 exiting successfully. Buy a developer a beer!
