                               Psi4 1.3.2 release

  ==> Input File <==

--------------------------------------------------------------------------
#psi4
#
memory 32 gb

molecule  {
0 1
  N        0.3833600    -0.5125370    -0.0001240
  N       -0.3099419     0.5630183    -0.0003648
  C        1.7672300    -0.1861950    -0.0000230
  C       -1.7671580     0.1858050    -0.0001250
  C        2.6296550    -1.2889660    -0.0004100
  C       -2.2820560    -1.1203900     0.0004250
  C        2.2817410     1.1201620     0.0004430
  C       -2.6293090     1.2888360    -0.0004050
  C        4.0102370    -1.0927240    -0.0003780
  C       -3.6612700    -1.3047800     0.0004470
  C        3.6608930     1.3050510     0.0005180
  C       -4.0099580     1.0931000    -0.0003430
  C        4.5276310     0.2044750     0.0001450
  C       -4.5277070    -0.2039390     0.0001440
  H        2.1941740    -2.2850020    -0.0008280
  H       -1.5949460    -1.9607630     0.0007310
  H        1.5942790     1.9602490     0.0007180
  H       -2.1933450     2.2846620    -0.0007500
  H        4.6808280    -1.9484460    -0.0006320
  H       -4.0692680    -2.3129040     0.0009720
  H        4.0684950     2.3133330     0.0008240
  H       -4.6802440     1.9490580    -0.0004760
  H        5.6036530     0.3614050     0.0000240
  H       -5.6037540    -0.3606960     0.0002220
units angstrom
no_reorient  #important for SAPT in psi4, default
symmetry c1  #important for SAPT in psi4, default
}

set PROPERTIES_ORIGIN ["COM"]
properties('MP2/aug-cc-pvtz', properties = ['dipole'])
--------------------------------------------------------------------------

    Molecular point group: c1
  Charge       = 0
  Multiplicity = 1
  Basis Set: AUG-CC-PVTZ
    Blend: AUG-CC-PVTZ
  Basis Set: (AUG-CC-PVTZ AUX)
    Blend: AUG-CC-PVTZ-JKFIT

    Orbital Energies [Eh]
    ---------------------

    Doubly Occupied:

       1A    -15.641317     2A    -15.636704     3A    -11.274956
       4A    -11.269297     5A    -11.245511     6A    -11.244321
       7A    -11.243915     8A    -11.243606     9A    -11.243465
      10A    -11.242688    11A    -11.242412    12A    -11.242381
      13A    -11.241936    14A    -11.241528    15A     -1.359334
      16A     -1.167966    17A     -1.149302    18A     -1.065797
      19A     -1.023229    20A     -1.022073    21A     -1.005486
      22A     -0.920751    23A     -0.841310    24A     -0.838473
      25A     -0.814926    26A     -0.776338    27A     -0.712287
      28A     -0.702900    29A     -0.662661    30A     -0.659103
      31A     -0.630294    32A     -0.617635    33A     -0.601644
      34A     -0.593615    35A     -0.592965    36A     -0.581420
      37A     -0.572039    38A     -0.520779    39A     -0.517702
      40A     -0.513762    41A     -0.500059    42A     -0.494945
      43A     -0.477889    44A     -0.412183    45A     -0.359310
      46A     -0.343967    47A     -0.343129    48A     -0.307006

  @DF-RHF Final Energy:  -569.26978510070796

   => Energetics <=

    Nuclear Repulsion Energy =            748.3595658024660224
    One-Electron Energy =               -2255.3460686318021544
    Two-Electron Energy =                 937.7167177286281685
    Total Energy =                       -569.2697851007079635
  Basis Set: (AUG-CC-PVTZ AUX)
    Blend: AUG-CC-PVTZ-RI
    Molecular point group: c1

    Geometry (in Angstrom), charge = 0, multiplicity = 1:

       Center              X                  Y                   Z               Mass
    ------------   -----------------  -----------------  -----------------  -----------------
         N            0.377719219706    -0.516452856589    -0.000119730532    14.003074004430
         N           -0.315582680294     0.559102443411    -0.000360530532    14.003074004430
         C            1.761589219706    -0.190110856589    -0.000018730532    12.000000000000
         C           -1.772798780294     0.181889143411    -0.000120730532    12.000000000000
         C            2.624014219706    -1.292881856589    -0.000405730532    12.000000000000
         C           -2.287696780294    -1.124305856589     0.000429269468    12.000000000000
         C            2.276100219706     1.116246143411     0.000447269468    12.000000000000
         C           -2.634949780294     1.284920143411    -0.000400730532    12.000000000000
         C            4.004596219706    -1.096639856589    -0.000373730532    12.000000000000
         C           -3.666910780294    -1.308695856589     0.000451269468    12.000000000000
         C            3.655252219706     1.301135143411     0.000522269468    12.000000000000
         C           -4.015598780294     1.089184143411    -0.000338730532    12.000000000000
         C            4.521990219706     0.200559143411     0.000149269468    12.000000000000
         C           -4.533347780294    -0.207854856589     0.000148269468    12.000000000000
         H            2.188533219706    -2.288917856589    -0.000823730532     1.007825032230
         H           -1.600586780294    -1.964678856589     0.000735269468     1.007825032230
         H            1.588638219706     1.956333143411     0.000722269468     1.007825032230
         H           -2.198985780294     2.280746143411    -0.000745730532     1.007825032230
         H            4.675187219706    -1.952361856589    -0.000627730532     1.007825032230
         H           -4.074908780294    -2.316819856589     0.000976269468     1.007825032230
         H            4.062854219706     2.309417143411     0.000828269468     1.007825032230
         H           -4.685884780294     1.945142143411    -0.000471730532     1.007825032230
         H            5.598012219706     0.357489143411     0.000028269468     1.007825032230
         H           -5.609394780294    -0.364611856589     0.000226269468     1.007825032230

  Basis Set: AUG-CC-PVTZ
    Blend: AUG-CC-PVTZ
  Basis Set: (AUG-CC-PVTZ AUX)
    Blend: AUG-CC-PVTZ-JKFIT
	 Reference Energy          =    -569.2697851007079635 [Eh]
	 Singles Energy            =      -0.0000000000000000 [Eh]
	 Same-Spin Energy          =      -0.6329778131144592 [Eh]
	 Opposite-Spin Energy      =      -1.9439688524332284 [Eh]
	 Correlation Energy        =      -2.5769466655476876 [Eh]
	 Total Energy              =    -571.8467317662556297 [Eh]

	 ================> DF-SCS-MP2 Energies <==================
	-----------------------------------------------------------
	 SCS Same-Spin Scale       =       0.3333333333333333 [-]
	 SCS Opposite-Spin Scale   =       1.2000000000000000 [-]
	 SCS Same-Spin Energy      =      -0.2109926043714864 [Eh]
	 SCS Opposite-Spin Energy  =      -2.3327626229198741 [Eh]
	 SCS Correlation Energy    =      -2.5437552272913604 [Eh]
	 SCS Total Energy          =    -571.8135403279993625 [Eh]
	-----------------------------------------------------------

  Dipole Moment: [D]
     X:     0.1904      Y:    -0.0268      Z:     0.0004     Total:     0.1923

*** Psi4 exiting successfully. Buy a developer a beer!
