                               Psi4 1.4a3.dev225

  ==> Input File <==

--------------------------------------------------------------------------
#psi4
#
memory 32 gb

molecule  {
0 1
  N       -0.3833490    -0.5122680     0.0000090
  N        0.3833490     0.5122660    -0.0000110
  C       -1.8158823    -0.1744633     0.0000049
  C        1.7672170     0.1859380    -0.0000040
  C       -2.6294640    -1.2888570    -0.0000090
  C        2.2819740    -1.1203090     0.0000060
  C       -2.2819730     1.1203080     0.0000150
  C        2.6294620     1.2888570    -0.0000150
  C       -4.0100960    -1.0929460    -0.0000130
  C        3.6611660    -1.3048860     0.0000120
  C       -3.6611640     1.3048870     0.0000130
  C        4.0100950     1.0929470    -0.0000080
  C       -4.5277130     0.2041430    -0.0000040
  C        4.5277130    -0.2041410     0.0000030
  H       -2.1937340    -2.2847830    -0.0000140
  H        1.5947880    -1.9606160     0.0000130
  H       -1.5947870     1.9606160     0.0000300
  H        2.1937330     2.2847830    -0.0000250
  H       -4.6804930    -1.9488170    -0.0000250
  H        4.0690280    -2.3130640     0.0000180
  H       -4.0690260     2.3130650     0.0000210
  H        4.6804920     1.9488190    -0.0000150
  H       -5.6037480     0.3609690    -0.0000050
  H        5.6037490    -0.3609640     0.0000090
units angstrom
no_reorient  #important for SAPT in psi4, default
symmetry c1  #important for SAPT in psi4, default
}

set PROPERTIES_ORIGIN ["COM"]
properties('MP2/aug-cc-pvtz', properties = ['dipole'])
--------------------------------------------------------------------------

    Molecular point group: c1
  Charge       = 0
  Multiplicity = 1
  Basis Set: AUG-CC-PVTZ
    Blend: AUG-CC-PVTZ
  Basis Set: (AUG-CC-PVTZ AUX)
    Blend: AUG-CC-PVTZ-JKFIT

    Orbital Energies [Eh]
    ---------------------

    Doubly Occupied:

       1A    -15.632843     2A    -15.630987     3A    -11.269659
       4A    -11.268540     5A    -11.245239     6A    -11.244680
       7A    -11.243677     8A    -11.243656     9A    -11.243143
      10A    -11.242940    11A    -11.242054    12A    -11.241693
      13A    -11.241277    14A    -11.239174    15A     -1.351525
      16A     -1.173684    17A     -1.151471    18A     -1.069830
      19A     -1.026127    20A     -1.022776    21A     -1.008348
      22A     -0.921496    23A     -0.844049    24A     -0.839984
      25A     -0.817829    26A     -0.775922    27A     -0.716465
      28A     -0.699423    29A     -0.665174    30A     -0.657586
      31A     -0.632334    32A     -0.618277    33A     -0.604214
      34A     -0.595761    35A     -0.594326    36A     -0.578181
      37A     -0.570918    38A     -0.520246    39A     -0.517049
      40A     -0.516934    41A     -0.504755    42A     -0.496977
      43A     -0.476740    44A     -0.399866    45A     -0.361960
      46A     -0.344810    47A     -0.343320    48A     -0.307123

  @DF-RHF Final Energy:  -569.27627643067933

   => Energetics <=

    Nuclear Repulsion Energy =            749.2323194540327904
    One-Electron Energy =               -2257.1071092356596637
    Two-Electron Energy =                 938.5985133509476555
    Total Energy =                       -569.2762764306793315
  Basis Set: (AUG-CC-PVTZ AUX)
    Blend: AUG-CC-PVTZ-RI
    Molecular point group: c1

    Geometry (in Angstrom), charge = 0, multiplicity = 1:

       Center              X                  Y                   Z               Mass
    ------------   -----------------  -----------------  -----------------  -----------------
         N           -0.380141797243    -0.513024311127     0.000009055751    14.003074004430
         N            0.386556202757     0.511509688873    -0.000010944249    14.003074004430
         C           -1.812675097243    -0.175219611127     0.000004955751    12.000000000000
         C            1.770424202757     0.185181688873    -0.000003944249    12.000000000000
         C           -2.626256797243    -1.289613311127    -0.000008944249    12.000000000000
         C            2.285181202757    -1.121065311127     0.000006055751    12.000000000000
         C           -2.278765797243     1.119551688873     0.000015055751    12.000000000000
         C            2.632669202757     1.288100688873    -0.000014944249    12.000000000000
         C           -4.006888797243    -1.093702311127    -0.000012944249    12.000000000000
         C            3.664373202757    -1.305642311127     0.000012055751    12.000000000000
         C           -3.657956797243     1.304130688873     0.000013055751    12.000000000000
         C            4.013302202757     1.092190688873    -0.000007944249    12.000000000000
         C           -4.524505797243     0.203386688873    -0.000003944249    12.000000000000
         C            4.530920202757    -0.204897311127     0.000003055751    12.000000000000
         H           -2.190526797243    -2.285539311127    -0.000013944249     1.007825032230
         H            1.597995202757    -1.961372311127     0.000013055751     1.007825032230
         H           -1.591579797243     1.959859688873     0.000030055751     1.007825032230
         H            2.196940202757     2.284026688873    -0.000024944249     1.007825032230
         H           -4.677285797243    -1.949573311127    -0.000024944249     1.007825032230
         H            4.072235202757    -2.313820311127     0.000018055751     1.007825032230
         H           -4.065818797243     2.312308688873     0.000021055751     1.007825032230
         H            4.683699202757     1.948062688873    -0.000014944249     1.007825032230
         H           -5.600540797243     0.360212688873    -0.000004944249     1.007825032230
         H            5.606956202757    -0.361720311127     0.000009055751     1.007825032230

  Basis Set: AUG-CC-PVTZ
    Blend: AUG-CC-PVTZ
  Basis Set: (AUG-CC-PVTZ AUX)
    Blend: AUG-CC-PVTZ-JKFIT
	 Reference Energy          =    -569.2762764306793315 [Eh]
	 Singles Energy            =      -0.0000000000000000 [Eh]
	 Same-Spin Energy          =      -0.6325137536169935 [Eh]
	 Opposite-Spin Energy      =      -1.9417320480604279 [Eh]
	 Correlation Energy        =      -2.5742458016774212 [Eh]
	 Total Energy              =    -571.8505222323567523 [Eh]

	 ================> DF-SCS-MP2 Energies <==================
	-----------------------------------------------------------
	 SCS Same-Spin Scale       =       0.3333333333333333 [-]
	 SCS Opposite-Spin Scale   =       1.2000000000000000 [-]
	 SCS Same-Spin Energy      =      -0.2108379178723311 [Eh]
	 SCS Opposite-Spin Energy  =      -2.3300784576725135 [Eh]
	 SCS Correlation Energy    =      -2.5409163755448447 [Eh]
	 SCS Total Energy          =    -571.8171928062241705 [Eh]
	-----------------------------------------------------------

  Dipole Moment: [D]
     X:     0.0418      Y:    -0.0002      Z:     0.0000     Total:     0.0418

*** Psi4 exiting successfully. Buy a developer a beer!
