                               Psi4 1.3.2 release

  ==> Input File <==

--------------------------------------------------------------------------
#psi4
#
memory 32 gb

molecule  {
0 1
  N        0.3833600    -0.5125370    -0.0001240
  N       -0.3652820     0.5252597    -0.0003651
  C        1.7672300    -0.1861950    -0.0000230
  C       -1.7671580     0.1858050    -0.0001250
  C        2.6296550    -1.2889660    -0.0004100
  C       -2.2820560    -1.1203900     0.0004250
  C        2.2817410     1.1201620     0.0004430
  C       -2.6293090     1.2888360    -0.0004050
  C        4.0102370    -1.0927240    -0.0003780
  C       -3.6612700    -1.3047800     0.0004470
  C        3.6608930     1.3050510     0.0005180
  C       -4.0099580     1.0931000    -0.0003430
  C        4.5276310     0.2044750     0.0001450
  C       -4.5277070    -0.2039390     0.0001440
  H        2.1941740    -2.2850020    -0.0008280
  H       -1.5949460    -1.9607630     0.0007310
  H        1.5942790     1.9602490     0.0007180
  H       -2.1933450     2.2846620    -0.0007500
  H        4.6808280    -1.9484460    -0.0006320
  H       -4.0692680    -2.3129040     0.0009720
  H        4.0684950     2.3133330     0.0008240
  H       -4.6802440     1.9490580    -0.0004760
  H        5.6036530     0.3614050     0.0000240
  H       -5.6037540    -0.3606960     0.0002220
units angstrom
no_reorient  #important for SAPT in psi4, default
symmetry c1  #important for SAPT in psi4, default
}

set PROPERTIES_ORIGIN ["COM"]
properties('MP2/aug-cc-pvtz', properties = ['dipole'])
--------------------------------------------------------------------------

    Molecular point group: c1
  Charge       = 0
  Multiplicity = 1
  Basis Set: AUG-CC-PVTZ
    Blend: AUG-CC-PVTZ
  Basis Set: (AUG-CC-PVTZ AUX)
    Blend: AUG-CC-PVTZ-JKFIT

    Orbital Energies [Eh]
    ---------------------

    Doubly Occupied:

       1A    -15.634447     2A    -15.632783     3A    -11.271331
       4A    -11.269854     5A    -11.245659     6A    -11.245186
       7A    -11.244067     8A    -11.243718     9A    -11.243583
      10A    -11.243467    11A    -11.242448    12A    -11.242245
      13A    -11.242126    14A    -11.242118    15A     -1.357828
      16A     -1.171316    17A     -1.149445    18A     -1.072899
      19A     -1.023237    20A     -1.022749    21A     -1.006445
      22A     -0.924484    23A     -0.842952    24A     -0.839567
      25A     -0.816976    26A     -0.776026    27A     -0.715828
      28A     -0.700369    29A     -0.666851    30A     -0.659983
      31A     -0.631066    32A     -0.617825    33A     -0.599907
      34A     -0.596183    35A     -0.593715    36A     -0.579847
      37A     -0.573702    38A     -0.520992    39A     -0.518627
      40A     -0.514870    41A     -0.499872    42A     -0.497775
      43A     -0.476940    44A     -0.405894    45A     -0.361988
      46A     -0.343980    47A     -0.343421    48A     -0.303883

  @DF-RHF Final Energy:  -569.27747092012760

   => Energetics <=

    Nuclear Repulsion Energy =            749.0473950913263934
    One-Electron Energy =               -2256.7087789934007560
    Two-Electron Energy =                 938.3839129819466507
    Total Energy =                       -569.2774709201275982
  Basis Set: (AUG-CC-PVTZ AUX)
    Blend: AUG-CC-PVTZ-RI
    Molecular point group: c1

    Geometry (in Angstrom), charge = 0, multiplicity = 1:

       Center              X                  Y                   Z               Mass
    ------------   -----------------  -----------------  -----------------  -----------------
         N            0.381975111605    -0.513549057719    -0.000119707461    14.003074004430
         N           -0.366666888395     0.524247642281    -0.000360807461    14.003074004430
         C            1.765845111605    -0.187207057719    -0.000018707461    12.000000000000
         C           -1.768542888395     0.184792942281    -0.000120707461    12.000000000000
         C            2.628270111605    -1.289978057719    -0.000405707461    12.000000000000
         C           -2.283440888395    -1.121402057719     0.000429292539    12.000000000000
         C            2.280356111605     1.119149942281     0.000447292539    12.000000000000
         C           -2.630693888395     1.287823942281    -0.000400707461    12.000000000000
         C            4.008852111605    -1.093736057719    -0.000373707461    12.000000000000
         C           -3.662654888395    -1.305792057719     0.000451292539    12.000000000000
         C            3.659508111605     1.304038942281     0.000522292539    12.000000000000
         C           -4.011342888395     1.092087942281    -0.000338707461    12.000000000000
         C            4.526246111605     0.203462942281     0.000149292539    12.000000000000
         C           -4.529091888395    -0.204951057719     0.000148292539    12.000000000000
         H            2.192789111605    -2.286014057719    -0.000823707461     1.007825032230
         H           -1.596330888395    -1.961775057719     0.000735292539     1.007825032230
         H            1.592894111605     1.959236942281     0.000722292539     1.007825032230
         H           -2.194729888395     2.283649942281    -0.000745707461     1.007825032230
         H            4.679443111605    -1.949458057719    -0.000627707461     1.007825032230
         H           -4.070652888395    -2.313916057719     0.000976292539     1.007825032230
         H            4.067110111605     2.312320942281     0.000828292539     1.007825032230
         H           -4.681628888395     1.948045942281    -0.000471707461     1.007825032230
         H            5.602268111605     0.360392942281     0.000028292539     1.007825032230
         H           -5.605138888395    -0.361708057719     0.000226292539     1.007825032230

  Basis Set: AUG-CC-PVTZ
    Blend: AUG-CC-PVTZ
  Basis Set: (AUG-CC-PVTZ AUX)
    Blend: AUG-CC-PVTZ-JKFIT
	 Reference Energy          =    -569.2774709201275982 [Eh]
	 Singles Energy            =      -0.0000000000000000 [Eh]
	 Same-Spin Energy          =      -0.6328236077480068 [Eh]
	 Opposite-Spin Energy      =      -1.9422175927997665 [Eh]
	 Correlation Energy        =      -2.5750412005477732 [Eh]
	 Total Energy              =    -571.8525121206753283 [Eh]

	 ================> DF-SCS-MP2 Energies <==================
	-----------------------------------------------------------
	 SCS Same-Spin Scale       =       0.3333333333333333 [-]
	 SCS Opposite-Spin Scale   =       1.2000000000000000 [-]
	 SCS Same-Spin Energy      =      -0.2109412025826689 [Eh]
	 SCS Opposite-Spin Energy  =      -2.3306611113597198 [Eh]
	 SCS Correlation Energy    =      -2.5416023139423887 [Eh]
	 SCS Total Energy          =    -571.8190732340699469 [Eh]
	-----------------------------------------------------------

  Dipole Moment: [D]
     X:     0.0498      Y:    -0.0077      Z:     0.0004     Total:     0.0504

*** Psi4 exiting successfully. Buy a developer a beer!
