                               Psi4 1.3.2 release

  ==> Input File <==

--------------------------------------------------------------------------
#psi4
#
memory 32 gb

molecule  {
0 1
  N        0.3833600    -0.5125370    -0.0001240
  N       -0.3832800     0.5120360    -0.0003650
  C        1.5725693    -0.2320996    -0.0000372
  C       -1.7671580     0.1858050    -0.0001250
  C        2.6296550    -1.2889660    -0.0004100
  C       -2.2820560    -1.1203900     0.0004250
  C        2.2817410     1.1201620     0.0004430
  C       -2.6293090     1.2888360    -0.0004050
  C        4.0102370    -1.0927240    -0.0003780
  C       -3.6612700    -1.3047800     0.0004470
  C        3.6608930     1.3050510     0.0005180
  C       -4.0099580     1.0931000    -0.0003430
  C        4.5276310     0.2044750     0.0001450
  C       -4.5277070    -0.2039390     0.0001440
  H        2.1941740    -2.2850020    -0.0008280
  H       -1.5949460    -1.9607630     0.0007310
  H        1.5942790     1.9602490     0.0007180
  H       -2.1933450     2.2846620    -0.0007500
  H        4.6808280    -1.9484460    -0.0006320
  H       -4.0692680    -2.3129040     0.0009720
  H        4.0684950     2.3133330     0.0008240
  H       -4.6802440     1.9490580    -0.0004760
  H        5.6036530     0.3614050     0.0000240
  H       -5.6037540    -0.3606960     0.0002220
units angstrom
no_reorient  #important for SAPT in psi4, default
symmetry c1  #important for SAPT in psi4, default
}

set PROPERTIES_ORIGIN ["COM"]
properties('MP2/aug-cc-pvtz', properties = ['dipole'])
--------------------------------------------------------------------------

    Molecular point group: c1
  Charge       = 0
  Multiplicity = 1
  Basis Set: AUG-CC-PVTZ
    Blend: AUG-CC-PVTZ
  Basis Set: (AUG-CC-PVTZ AUX)
    Blend: AUG-CC-PVTZ-JKFIT

    Orbital Energies [Eh]
    ---------------------

    Doubly Occupied:

       1A    -15.624856     2A    -15.618022     3A    -11.275979
       4A    -11.268726     5A    -11.258931     6A    -11.258065
       7A    -11.256358     8A    -11.244940     9A    -11.244281
      10A    -11.243959    11A    -11.242415    12A    -11.242058
      13A    -11.240943    14A    -11.240472    15A     -1.391553
      16A     -1.178229    17A     -1.140542    18A     -1.100828
      19A     -1.021646    20A     -1.018121    21A     -0.999366
      22A     -0.940316    23A     -0.846514    24A     -0.836070
      25A     -0.813299    26A     -0.774136    27A     -0.722076
      28A     -0.700012    29A     -0.680823    30A     -0.669083
      31A     -0.628948    32A     -0.615167    33A     -0.600722
      34A     -0.596198    35A     -0.594385    36A     -0.585657
      37A     -0.574811    38A     -0.532768    39A     -0.520886
      40A     -0.512161    41A     -0.500536    42A     -0.475385
      43A     -0.472317    44A     -0.399424    45A     -0.369020
      46A     -0.343876    47A     -0.342621    48A     -0.277819

  @DF-RHF Final Energy:  -569.21845767354978

   => Energetics <=

    Nuclear Repulsion Energy =            750.1394890508657909
    One-Electron Energy =               -2258.6452552342971103
    Two-Electron Energy =                 939.2873085098814272
    Total Energy =                       -569.2184576735497785
  Basis Set: (AUG-CC-PVTZ AUX)
    Blend: AUG-CC-PVTZ-RI
    Molecular point group: c1

    Geometry (in Angstrom), charge = 0, multiplicity = 1:

       Center              X                  Y                   Z               Mass
    ------------   -----------------  -----------------  -----------------  -----------------
         N            0.396188057632    -0.509506824247    -0.000118779322    14.003074004430
         N           -0.370451942368     0.515066175753    -0.000359779322    14.003074004430
         C            1.585397357632    -0.229069424247    -0.000031979322    12.000000000000
         C           -1.754329942368     0.188835175753    -0.000119779322    12.000000000000
         C            2.642483057632    -1.285935824247    -0.000404779322    12.000000000000
         C           -2.269227942368    -1.117359824247     0.000430220678    12.000000000000
         C            2.294569057632     1.123192175753     0.000448220678    12.000000000000
         C           -2.616480942368     1.291866175753    -0.000399779322    12.000000000000
         C            4.023065057632    -1.089693824247    -0.000372779322    12.000000000000
         C           -3.648441942368    -1.301749824247     0.000452220678    12.000000000000
         C            3.673721057632     1.308081175753     0.000523220678    12.000000000000
         C           -3.997129942368     1.096130175753    -0.000337779322    12.000000000000
         C            4.540459057632     0.207505175753     0.000150220678    12.000000000000
         C           -4.514878942368    -0.200908824247     0.000149220678    12.000000000000
         H            2.207002057632    -2.281971824247    -0.000822779322     1.007825032230
         H           -1.582117942368    -1.957732824247     0.000736220678     1.007825032230
         H            1.607107057632     1.963279175753     0.000723220678     1.007825032230
         H           -2.180516942368     2.287692175753    -0.000744779322     1.007825032230
         H            4.693656057632    -1.945415824247    -0.000626779322     1.007825032230
         H           -4.056439942368    -2.309873824247     0.000977220678     1.007825032230
         H            4.081323057632     2.316363175753     0.000829220678     1.007825032230
         H           -4.667415942368     1.952088175753    -0.000470779322     1.007825032230
         H            5.616481057632     0.364435175753     0.000029220678     1.007825032230
         H           -5.590925942368    -0.357665824247     0.000227220678     1.007825032230

  Basis Set: AUG-CC-PVTZ
    Blend: AUG-CC-PVTZ
  Basis Set: (AUG-CC-PVTZ AUX)
    Blend: AUG-CC-PVTZ-JKFIT
	 Reference Energy          =    -569.2184576735497785 [Eh]
	 Singles Energy            =      -0.0000000000000000 [Eh]
	 Same-Spin Energy          =      -0.6377793270677623 [Eh]
	 Opposite-Spin Energy      =      -1.9479967930480888 [Eh]
	 Correlation Energy        =      -2.5857761201158511 [Eh]
	 Total Energy              =    -571.8042337936656168 [Eh]

	 ================> DF-SCS-MP2 Energies <==================
	-----------------------------------------------------------
	 SCS Same-Spin Scale       =       0.3333333333333333 [-]
	 SCS Opposite-Spin Scale   =       1.2000000000000000 [-]
	 SCS Same-Spin Energy      =      -0.2125931090225874 [Eh]
	 SCS Opposite-Spin Energy  =      -2.3375961516577064 [Eh]
	 SCS Correlation Energy    =      -2.5501892606802938 [Eh]
	 SCS Total Energy          =    -571.7686469342301052 [Eh]
	-----------------------------------------------------------

  Dipole Moment: [D]
     X:     0.1708      Y:     0.0012      Z:     0.0005     Total:     0.1708

*** Psi4 exiting successfully. Buy a developer a beer!
