                               Psi4 1.4a3.dev225

  ==> Input File <==

--------------------------------------------------------------------------
#psi4
#
memory 32 gb

molecule  {
0 1
  N       -0.3833490    -0.5122680     0.0000090
  N        0.4133064     0.5522979    -0.0000118
  C       -1.7672170    -0.1859390     0.0000050
  C        1.7672170     0.1859380    -0.0000040
  C       -2.6294640    -1.2888570    -0.0000090
  C        2.2819740    -1.1203090     0.0000060
  C       -2.2819730     1.1203080     0.0000150
  C        2.6294620     1.2888570    -0.0000150
  C       -4.0100960    -1.0929460    -0.0000130
  C        3.6611660    -1.3048860     0.0000120
  C       -3.6611640     1.3048870     0.0000130
  C        4.0100950     1.0929470    -0.0000080
  C       -4.5277130     0.2041430    -0.0000040
  C        4.5277130    -0.2041410     0.0000030
  H       -2.1937340    -2.2847830    -0.0000140
  H        1.5947880    -1.9606160     0.0000130
  H       -1.5947870     1.9606160     0.0000300
  H        2.1937330     2.2847830    -0.0000250
  H       -4.6804930    -1.9488170    -0.0000250
  H        4.0690280    -2.3130640     0.0000180
  H       -4.0690260     2.3130650     0.0000210
  H        4.6804920     1.9488190    -0.0000150
  H       -5.6037480     0.3609690    -0.0000050
  H        5.6037490    -0.3609640     0.0000090
units angstrom
no_reorient  #important for SAPT in psi4, default
symmetry c1  #important for SAPT in psi4, default
}

set PROPERTIES_ORIGIN ["COM"]
properties('MP2/aug-cc-pvtz', properties = ['dipole'])
--------------------------------------------------------------------------

    Molecular point group: c1
  Charge       = 0
  Multiplicity = 1
  Basis Set: AUG-CC-PVTZ
    Blend: AUG-CC-PVTZ
  Basis Set: (AUG-CC-PVTZ AUX)
    Blend: AUG-CC-PVTZ-JKFIT

    Orbital Energies [Eh]
    ---------------------

    Doubly Occupied:

       1A    -15.636734     2A    -15.635696     3A    -11.271268
       4A    -11.268898     5A    -11.246262     6A    -11.245754
       7A    -11.244794     8A    -11.243938     9A    -11.243826
      10A    -11.243152    11A    -11.242921    12A    -11.242555
      13A    -11.242485    14A    -11.241788    15A     -1.335559
      16A     -1.174458    17A     -1.148047    18A     -1.079172
      19A     -1.023601    20A     -1.023014    21A     -1.003972
      22A     -0.929196    23A     -0.843977    24A     -0.839503
      25A     -0.815976    26A     -0.776998    27A     -0.714366
      28A     -0.699134    29A     -0.667382    30A     -0.658102
      31A     -0.631979    32A     -0.618059    33A     -0.599545
      34A     -0.593976    35A     -0.593055    36A     -0.577275
      37A     -0.567193    38A     -0.520615    39A     -0.518072
      40A     -0.515877    41A     -0.500703    42A     -0.498118
      43A     -0.471604    44A     -0.411802    45A     -0.364817
      46A     -0.344351    47A     -0.343608    48A     -0.296982

  @DF-RHF Final Energy:  -569.26717148446676

   => Energetics <=

    Nuclear Repulsion Energy =            748.5797774489602716
    One-Electron Energy =               -2255.7935830955570964
    Two-Electron Energy =                 937.9466341621301808
    Total Energy =                       -569.2671714844667576
  Basis Set: (AUG-CC-PVTZ AUX)
    Blend: AUG-CC-PVTZ-RI
    Molecular point group: c1

    Geometry (in Angstrom), charge = 0, multiplicity = 1:

       Center              X                  Y                   Z               Mass
    ------------   -----------------  -----------------  -----------------  -----------------
         N           -0.385652864080    -0.515346647703     0.000009110684    14.003074004430
         N            0.411002535920     0.549219252297    -0.000011689316    14.003074004430
         C           -1.769520864080    -0.189017647703     0.000005110684    12.000000000000
         C            1.764913135920     0.182859352297    -0.000003889316    12.000000000000
         C           -2.631767864080    -1.291935647703    -0.000008889316    12.000000000000
         C            2.279670135920    -1.123387647703     0.000006110684    12.000000000000
         C           -2.284276864080     1.117229352297     0.000015110684    12.000000000000
         C            2.627158135920     1.285778352297    -0.000014889316    12.000000000000
         C           -4.012399864080    -1.096024647703    -0.000012889316    12.000000000000
         C            3.658862135920    -1.307964647703     0.000012110684    12.000000000000
         C           -3.663467864080     1.301808352297     0.000013110684    12.000000000000
         C            4.007791135920     1.089868352297    -0.000007889316    12.000000000000
         C           -4.530016864080     0.201064352297    -0.000003889316    12.000000000000
         C            4.525409135920    -0.207219647703     0.000003110684    12.000000000000
         H           -2.196037864080    -2.287861647703    -0.000013889316     1.007825032230
         H            1.592484135920    -1.963694647703     0.000013110684     1.007825032230
         H           -1.597090864080     1.957537352297     0.000030110684     1.007825032230
         H            2.191429135920     2.281704352297    -0.000024889316     1.007825032230
         H           -4.682796864080    -1.951895647703    -0.000024889316     1.007825032230
         H            4.066724135920    -2.316142647703     0.000018110684     1.007825032230
         H           -4.071329864080     2.309986352297     0.000021110684     1.007825032230
         H            4.678188135920     1.945740352297    -0.000014889316     1.007825032230
         H           -5.606051864080     0.357890352297    -0.000004889316     1.007825032230
         H            5.601445135920    -0.364042647703     0.000009110684     1.007825032230

  Basis Set: AUG-CC-PVTZ
    Blend: AUG-CC-PVTZ
  Basis Set: (AUG-CC-PVTZ AUX)
    Blend: AUG-CC-PVTZ-JKFIT
	 Reference Energy          =    -569.2671714844667576 [Eh]
	 Singles Energy            =      -0.0000000000000000 [Eh]
	 Same-Spin Energy          =      -0.6354728433451728 [Eh]
	 Opposite-Spin Energy      =      -1.9469525723928491 [Eh]
	 Correlation Energy        =      -2.5824254157380220 [Eh]
	 Total Energy              =    -571.8495969002048014 [Eh]

	 ================> DF-SCS-MP2 Energies <==================
	-----------------------------------------------------------
	 SCS Same-Spin Scale       =       0.3333333333333333 [-]
	 SCS Opposite-Spin Scale   =       1.2000000000000000 [-]
	 SCS Same-Spin Energy      =      -0.2118242811150576 [Eh]
	 SCS Opposite-Spin Energy  =      -2.3363430868714188 [Eh]
	 SCS Correlation Energy    =      -2.5481673679864763 [Eh]
	 SCS Total Energy          =    -571.8153388524532375 [Eh]
	-----------------------------------------------------------

  Dipole Moment: [D]
     X:    -0.0043      Y:    -0.0226      Z:     0.0000     Total:     0.0230

*** Psi4 exiting successfully. Buy a developer a beer!
