                               Psi4 1.3.2 release

  ==> Input File <==

--------------------------------------------------------------------------
#psi4
#
memory 32 gb

molecule  {
0 1
  N        0.3639666    -0.4152082    -0.0001122
  N       -0.3832800     0.5120360    -0.0003650
  C        1.7672300    -0.1861950    -0.0000230
  C       -1.7671580     0.1858050    -0.0001250
  C        2.6296550    -1.2889660    -0.0004100
  C       -2.2820560    -1.1203900     0.0004250
  C        2.2817410     1.1201620     0.0004430
  C       -2.6293090     1.2888360    -0.0004050
  C        4.0102370    -1.0927240    -0.0003780
  C       -3.6612700    -1.3047800     0.0004470
  C        3.6608930     1.3050510     0.0005180
  C       -4.0099580     1.0931000    -0.0003430
  C        4.5276310     0.2044750     0.0001450
  C       -4.5277070    -0.2039390     0.0001440
  H        2.1941740    -2.2850020    -0.0008280
  H       -1.5949460    -1.9607630     0.0007310
  H        1.5942790     1.9602490     0.0007180
  H       -2.1933450     2.2846620    -0.0007500
  H        4.6808280    -1.9484460    -0.0006320
  H       -4.0692680    -2.3129040     0.0009720
  H        4.0684950     2.3133330     0.0008240
  H       -4.6802440     1.9490580    -0.0004760
  H        5.6036530     0.3614050     0.0000240
  H       -5.6037540    -0.3606960     0.0002220
units angstrom
no_reorient  #important for SAPT in psi4, default
symmetry c1  #important for SAPT in psi4, default
}

set PROPERTIES_ORIGIN ["COM"]
properties('MP2/aug-cc-pvtz', properties = ['dipole'])
--------------------------------------------------------------------------

    Molecular point group: c1
  Charge       = 0
  Multiplicity = 1
  Basis Set: AUG-CC-PVTZ
    Blend: AUG-CC-PVTZ
  Basis Set: (AUG-CC-PVTZ AUX)
    Blend: AUG-CC-PVTZ-JKFIT

    Orbital Energies [Eh]
    ---------------------

    Doubly Occupied:

       1A    -15.620159     2A    -15.616811     3A    -11.270225
       4A    -11.267698     5A    -11.246861     6A    -11.246467
       7A    -11.244548     8A    -11.243898     9A    -11.243129
      10A    -11.242791    11A    -11.242557    12A    -11.241386
      13A    -11.241366    14A    -11.241260    15A     -1.403705
      16A     -1.171663    17A     -1.151733    18A     -1.073190
      19A     -1.023766    20A     -1.022314    21A     -1.012049
      22A     -0.921892    23A     -0.845222    24A     -0.840798
      25A     -0.821939    26A     -0.773794    27A     -0.724885
      28A     -0.699555    29A     -0.671527    30A     -0.665990
      31A     -0.630822    32A     -0.617851    33A     -0.604859
      34A     -0.599128    35A     -0.594139    36A     -0.593414
      37A     -0.580981    38A     -0.522498    39A     -0.520766
      40A     -0.514750    41A     -0.501205    42A     -0.497654
      43A     -0.484396    44A     -0.376603    45A     -0.361281
      46A     -0.344267    47A     -0.342665    48A     -0.310240

  @DF-RHF Final Energy:  -569.28315128096563

   => Energetics <=

    Nuclear Repulsion Energy =            751.1432103661760493
    One-Electron Energy =               -2260.7913313774170092
    Two-Electron Energy =                 940.3649697302754475
    Total Energy =                       -569.2831512809656260
  Basis Set: (AUG-CC-PVTZ AUX)
    Blend: AUG-CC-PVTZ-RI
    Molecular point group: c1

    Geometry (in Angstrom), charge = 0, multiplicity = 1:

       Center              X                  Y                   Z               Mass
    ------------   -----------------  -----------------  -----------------  -----------------
         N            0.365457271214    -0.422688301935    -0.000108822622    14.003074004430
         N           -0.381789328786     0.504555898065    -0.000361622622    14.003074004430
         C            1.768720671214    -0.193675101935    -0.000019622622    12.000000000000
         C           -1.765667328786     0.178324898065    -0.000121622622    12.000000000000
         C            2.631145671214    -1.296446101935    -0.000406622622    12.000000000000
         C           -2.280565328786    -1.127870101935     0.000428377378    12.000000000000
         C            2.283231671214     1.112681898065     0.000446377378    12.000000000000
         C           -2.627818328786     1.281355898065    -0.000401622622    12.000000000000
         C            4.011727671214    -1.100204101935    -0.000374622622    12.000000000000
         C           -3.659779328786    -1.312260101935     0.000450377378    12.000000000000
         C            3.662383671214     1.297570898065     0.000521377378    12.000000000000
         C           -4.008467328786     1.085619898065    -0.000339622622    12.000000000000
         C            4.529121671214     0.196994898065     0.000148377378    12.000000000000
         C           -4.526216328786    -0.211419101935     0.000147377378    12.000000000000
         H            2.195664671214    -2.292482101935    -0.000824622622     1.007825032230
         H           -1.593455328786    -1.968243101935     0.000734377378     1.007825032230
         H            1.595769671214     1.952768898065     0.000721377378     1.007825032230
         H           -2.191854328786     2.277181898065    -0.000746622622     1.007825032230
         H            4.682318671214    -1.955926101935    -0.000628622622     1.007825032230
         H           -4.067777328786    -2.320384101935     0.000975377378     1.007825032230
         H            4.069985671214     2.305852898065     0.000827377378     1.007825032230
         H           -4.678753328786     1.941577898065    -0.000472622622     1.007825032230
         H            5.605143671214     0.353924898065     0.000027377378     1.007825032230
         H           -5.602263328786    -0.368176101935     0.000225377378     1.007825032230

  Basis Set: AUG-CC-PVTZ
    Blend: AUG-CC-PVTZ
  Basis Set: (AUG-CC-PVTZ AUX)
    Blend: AUG-CC-PVTZ-JKFIT
	 Reference Energy          =    -569.2831512809656260 [Eh]
	 Singles Energy            =      -0.0000000000000000 [Eh]
	 Same-Spin Energy          =      -0.6292671119672306 [Eh]
	 Opposite-Spin Energy      =      -1.9335604233368646 [Eh]
	 Correlation Energy        =      -2.5628275353040952 [Eh]
	 Total Energy              =    -571.8459788162697350 [Eh]

	 ================> DF-SCS-MP2 Energies <==================
	-----------------------------------------------------------
	 SCS Same-Spin Scale       =       0.3333333333333333 [-]
	 SCS Opposite-Spin Scale   =       1.2000000000000000 [-]
	 SCS Same-Spin Energy      =      -0.2097557039890769 [Eh]
	 SCS Opposite-Spin Energy  =      -2.3202725080042375 [Eh]
	 SCS Correlation Energy    =      -2.5300282119933142 [Eh]
	 SCS Total Energy          =    -571.8131794929589660 [Eh]
	-----------------------------------------------------------

  Dipole Moment: [D]
     X:     0.1277      Y:    -0.0647      Z:     0.0004     Total:     0.1431

*** Psi4 exiting successfully. Buy a developer a beer!
