                               Psi4 1.3.2 release

  ==> Input File <==

--------------------------------------------------------------------------
#psi4
#
memory 32 gb

molecule  {
0 1
  N        0.3892662    -0.5366392    -0.0001269
  N       -0.3832800     0.5120360    -0.0003650
  C        1.7672300    -0.1861950    -0.0000230
  C       -1.7671580     0.1858050    -0.0001250
  C        2.6296550    -1.2889660    -0.0004100
  C       -2.2820560    -1.1203900     0.0004250
  C        2.2817410     1.1201620     0.0004430
  C       -2.6293090     1.2888360    -0.0004050
  C        4.0102370    -1.0927240    -0.0003780
  C       -3.6612700    -1.3047800     0.0004470
  C        3.6608930     1.3050510     0.0005180
  C       -4.0099580     1.0931000    -0.0003430
  C        4.5276310     0.2044750     0.0001450
  C       -4.5277070    -0.2039390     0.0001440
  H        2.1941740    -2.2850020    -0.0008280
  H       -1.5949460    -1.9607630     0.0007310
  H        1.5942790     1.9602490     0.0007180
  H       -2.1933450     2.2846620    -0.0007500
  H        4.6808280    -1.9484460    -0.0006320
  H       -4.0692680    -2.3129040     0.0009720
  H        4.0684950     2.3133330     0.0008240
  H       -4.6802440     1.9490580    -0.0004760
  H        5.6036530     0.3614050     0.0000240
  H       -5.6037540    -0.3606960     0.0002220
units angstrom
no_reorient  #important for SAPT in psi4, default
symmetry c1  #important for SAPT in psi4, default
}

set PROPERTIES_ORIGIN ["COM"]
properties('MP2/aug-cc-pvtz', properties = ['dipole'])
--------------------------------------------------------------------------

    Molecular point group: c1
  Charge       = 0
  Multiplicity = 1
  Basis Set: AUG-CC-PVTZ
    Blend: AUG-CC-PVTZ
  Basis Set: (AUG-CC-PVTZ AUX)
    Blend: AUG-CC-PVTZ-JKFIT

    Orbital Energies [Eh]
    ---------------------

    Doubly Occupied:

       1A    -15.635356     2A    -15.634115     3A    -11.270554
       4A    -11.270106     5A    -11.245966     6A    -11.245448
       7A    -11.244430     8A    -11.243766     9A    -11.243674
      10A    -11.243391    11A    -11.242690    12A    -11.242350
      13A    -11.242287    14A    -11.242000    15A     -1.347035
      16A     -1.172847    17A     -1.148840    18A     -1.076029
      19A     -1.023424    20A     -1.022875    21A     -1.005396
      22A     -0.926839    23A     -0.843508    24A     -0.839571
      25A     -0.816610    26A     -0.776493    27A     -0.715313
      28A     -0.699687    29A     -0.667253    30A     -0.659095
      31A     -0.631510    32A     -0.617936    33A     -0.599612
      34A     -0.594919    35A     -0.593821    36A     -0.578632
      37A     -0.570501    38A     -0.520837    39A     -0.518384
      40A     -0.515363    41A     -0.500142    42A     -0.498119
      43A     -0.474458    44A     -0.408619    45A     -0.363358
      46A     -0.344155    47A     -0.343505    48A     -0.300695

  @DF-RHF Final Energy:  -569.27366200299230

   => Energetics <=

    Nuclear Repulsion Energy =            748.8495840195803339
    One-Electron Energy =               -2256.3234683232913085
    Two-Electron Energy =                 938.2002223007186785
    Total Energy =                       -569.2736620029922960
  Basis Set: (AUG-CC-PVTZ AUX)
    Blend: AUG-CC-PVTZ-RI
    Molecular point group: c1

    Geometry (in Angstrom), charge = 0, multiplicity = 1:

       Center              X                  Y                   Z               Mass
    ------------   -----------------  -----------------  -----------------  -----------------
         N            0.388811223073    -0.534780735342    -0.000122392129    14.003074004430
         N           -0.383734976927     0.513894464658    -0.000360492129    14.003074004430
         C            1.766775023073    -0.184336535342    -0.000018492129    12.000000000000
         C           -1.767612976927     0.187663464658    -0.000120492129    12.000000000000
         C            2.629200023073    -1.287107535342    -0.000405492129    12.000000000000
         C           -2.282510976927    -1.118531535342     0.000429507871    12.000000000000
         C            2.281286023073     1.122020464658     0.000447507871    12.000000000000
         C           -2.629763976927     1.290694464658    -0.000400492129    12.000000000000
         C            4.009782023073    -1.090865535342    -0.000373492129    12.000000000000
         C           -3.661724976927    -1.302921535342     0.000451507871    12.000000000000
         C            3.660438023073     1.306909464658     0.000522507871    12.000000000000
         C           -4.010412976927     1.094958464658    -0.000338492129    12.000000000000
         C            4.527176023073     0.206333464658     0.000149507871    12.000000000000
         C           -4.528161976927    -0.202080535342     0.000148507871    12.000000000000
         H            2.193719023073    -2.283143535342    -0.000823492129     1.007825032230
         H           -1.595400976927    -1.958904535342     0.000735507871     1.007825032230
         H            1.593824023073     1.962107464658     0.000722507871     1.007825032230
         H           -2.193799976927     2.286520464658    -0.000745492129     1.007825032230
         H            4.680373023073    -1.946587535342    -0.000627492129     1.007825032230
         H           -4.069722976927    -2.311045535342     0.000976507871     1.007825032230
         H            4.068040023073     2.315191464658     0.000828507871     1.007825032230
         H           -4.680698976927     1.950916464658    -0.000471492129     1.007825032230
         H            5.603198023073     0.363263464658     0.000028507871     1.007825032230
         H           -5.604208976927    -0.358837535342     0.000226507871     1.007825032230

  Basis Set: AUG-CC-PVTZ
    Blend: AUG-CC-PVTZ
  Basis Set: (AUG-CC-PVTZ AUX)
    Blend: AUG-CC-PVTZ-JKFIT
	 Reference Energy          =    -569.2736620029922960 [Eh]
	 Singles Energy            =      -0.0000000000000000 [Eh]
	 Same-Spin Energy          =      -0.6339894944364128 [Eh]
	 Opposite-Spin Energy      =      -1.9442504027915866 [Eh]
	 Correlation Energy        =      -2.5782398972279994 [Eh]
	 Total Energy              =    -571.8519019002202413 [Eh]

	 ================> DF-SCS-MP2 Energies <==================
	-----------------------------------------------------------
	 SCS Same-Spin Scale       =       0.3333333333333333 [-]
	 SCS Opposite-Spin Scale   =       1.2000000000000000 [-]
	 SCS Same-Spin Energy      =      -0.2113298314788043 [Eh]
	 SCS Opposite-Spin Energy  =      -2.3331004833499036 [Eh]
	 SCS Correlation Energy    =      -2.5444303148287077 [Eh]
	 SCS Total Energy          =    -571.8180923178209696 [Eh]
	-----------------------------------------------------------

  Dipole Moment: [D]
     X:    -0.0278      Y:     0.0143      Z:     0.0004     Total:     0.0313

*** Psi4 exiting successfully. Buy a developer a beer!
