                               Psi4 1.3.2 release

  ==> Input File <==

--------------------------------------------------------------------------
#psi4
#
memory 32 gb

molecule  {
0 1
  N        0.3833600    -0.5125370    -0.0001240
  N       -0.5031009     0.6721702    -0.0004027
  C        1.7672300    -0.1861950    -0.0000230
  C       -1.7671580     0.1858050    -0.0001250
  C        2.6296550    -1.2889660    -0.0004100
  C       -2.2820560    -1.1203900     0.0004250
  C        2.2817410     1.1201620     0.0004430
  C       -2.6293090     1.2888360    -0.0004050
  C        4.0102370    -1.0927240    -0.0003780
  C       -3.6612700    -1.3047800     0.0004470
  C        3.6608930     1.3050510     0.0005180
  C       -4.0099580     1.0931000    -0.0003430
  C        4.5276310     0.2044750     0.0001450
  C       -4.5277070    -0.2039390     0.0001440
  H        2.1941740    -2.2850020    -0.0008280
  H       -1.5949460    -1.9607630     0.0007310
  H        1.5942790     1.9602490     0.0007180
  H       -2.1933450     2.2846620    -0.0007500
  H        4.6808280    -1.9484460    -0.0006320
  H       -4.0692680    -2.3129040     0.0009720
  H        4.0684950     2.3133330     0.0008240
  H       -4.6802440     1.9490580    -0.0004760
  H        5.6036530     0.3614050     0.0000240
  H       -5.6037540    -0.3606960     0.0002220
units angstrom
no_reorient  #important for SAPT in psi4, default
symmetry c1  #important for SAPT in psi4, default
}

set PROPERTIES_ORIGIN ["COM"]
properties('MP2/aug-cc-pvtz', properties = ['dipole'])
--------------------------------------------------------------------------

    Molecular point group: c1
  Charge       = 0
  Multiplicity = 1
  Basis Set: AUG-CC-PVTZ
    Blend: AUG-CC-PVTZ
  Basis Set: (AUG-CC-PVTZ AUX)
    Blend: AUG-CC-PVTZ-JKFIT

    Orbital Energies [Eh]
    ---------------------

    Doubly Occupied:

       1A    -15.646930     2A    -15.642635     3A    -11.273505
       4A    -11.266712     5A    -11.247417     6A    -11.247083
       7A    -11.246115     8A    -11.245531     9A    -11.244555
      10A    -11.244284    11A    -11.243744    12A    -11.243212
      13A    -11.241892    14A    -11.240670    15A     -1.290153
      16A     -1.180036    17A     -1.142894    18A     -1.089318
      19A     -1.024218    20A     -1.023604    21A     -0.994698
      22A     -0.937375    23A     -0.844739    24A     -0.838604
      25A     -0.810982    26A     -0.779352    27A     -0.706968
      28A     -0.698377    29A     -0.664761    30A     -0.653304
      31A     -0.633855    32A     -0.618710    33A     -0.600411
      34A     -0.594647    35A     -0.580889    36A     -0.571587
      37A     -0.554495    38A     -0.518584    39A     -0.517789
      40A     -0.516637    41A     -0.504521    42A     -0.494990
      43A     -0.457807    44A     -0.424231    45A     -0.370806
      46A     -0.345236    47A     -0.344395    48A     -0.278088

  @DF-RHF Final Energy:  -569.21052900083339

   => Energetics <=

    Nuclear Repulsion Energy =            746.7154956839567603
    One-Electron Energy =               -2252.0893538571599493
    Two-Electron Energy =                 936.1633291723697994
    Total Energy =                       -569.2105290008333895
  Basis Set: (AUG-CC-PVTZ AUX)
    Blend: AUG-CC-PVTZ-RI
    Molecular point group: c1

    Geometry (in Angstrom), charge = 0, multiplicity = 1:

       Center              X                  Y                   Z               Mass
    ------------   -----------------  -----------------  -----------------  -----------------
         N            0.392573978249    -0.524847107538    -0.000116815859    14.003074004430
         N           -0.493886921751     0.659860092462    -0.000395515859    14.003074004430
         C            1.776443978249    -0.198505107538    -0.000015815859    12.000000000000
         C           -1.757944021751     0.173494892462    -0.000117815859    12.000000000000
         C            2.638868978249    -1.301276107538    -0.000402815859    12.000000000000
         C           -2.272842021751    -1.132700107538     0.000432184141    12.000000000000
         C            2.290954978249     1.107851892462     0.000450184141    12.000000000000
         C           -2.620095021751     1.276525892462    -0.000397815859    12.000000000000
         C            4.019450978249    -1.105034107538    -0.000370815859    12.000000000000
         C           -3.652056021751    -1.317090107538     0.000454184141    12.000000000000
         C            3.670106978249     1.292740892462     0.000525184141    12.000000000000
         C           -4.000744021751     1.080789892462    -0.000335815859    12.000000000000
         C            4.536844978249     0.192164892462     0.000152184141    12.000000000000
         C           -4.518493021751    -0.216249107538     0.000151184141    12.000000000000
         H            2.203387978249    -2.297312107538    -0.000820815859     1.007825032230
         H           -1.585732021751    -1.973073107538     0.000738184141     1.007825032230
         H            1.603492978249     1.947938892462     0.000725184141     1.007825032230
         H           -2.184131021751     2.272351892462    -0.000742815859     1.007825032230
         H            4.690041978249    -1.960756107538    -0.000624815859     1.007825032230
         H           -4.060054021751    -2.325214107538     0.000979184141     1.007825032230
         H            4.077708978249     2.301022892462     0.000831184141     1.007825032230
         H           -4.671030021751     1.936747892462    -0.000468815859     1.007825032230
         H            5.612866978249     0.349094892462     0.000031184141     1.007825032230
         H           -5.594540021751    -0.373006107538     0.000229184141     1.007825032230

  Basis Set: AUG-CC-PVTZ
    Blend: AUG-CC-PVTZ
  Basis Set: (AUG-CC-PVTZ AUX)
    Blend: AUG-CC-PVTZ-JKFIT
	 Reference Energy          =    -569.2105290008333895 [Eh]
	 Singles Energy            =      -0.0000000000000000 [Eh]
	 Same-Spin Energy          =      -0.6449737903050323 [Eh]
	 Opposite-Spin Energy      =      -1.9657259735088926 [Eh]
	 Correlation Energy        =      -2.6106997638139249 [Eh]
	 Total Energy              =    -571.8212287646473442 [Eh]

	 ================> DF-SCS-MP2 Energies <==================
	-----------------------------------------------------------
	 SCS Same-Spin Scale       =       0.3333333333333333 [-]
	 SCS Opposite-Spin Scale   =       1.2000000000000000 [-]
	 SCS Same-Spin Energy      =      -0.2149912634350108 [Eh]
	 SCS Opposite-Spin Energy  =      -2.3588711682106709 [Eh]
	 SCS Correlation Energy    =      -2.5738624316456815 [Eh]
	 SCS Total Energy          =    -571.7843914324790831 [Eh]
	-----------------------------------------------------------

  Dipole Moment: [D]
     X:    -0.1002      Y:    -0.0811      Z:     0.0005     Total:     0.1289

*** Psi4 exiting successfully. Buy a developer a beer!
