                               Psi4 1.3.2 release

  ==> Input File <==

--------------------------------------------------------------------------
#psi4
#
memory 32 gb

molecule  {
0 1
  N        0.3833600    -0.5125370    -0.0001240
  N       -0.3832800     0.5120360    -0.0003650
  C        1.7672300    -0.1861950    -0.0000230
  C       -1.7671580     0.1858050    -0.0001250
  C        2.6296550    -1.2889660    -0.0004100
  C       -2.2820560    -1.1203900     0.0004250
  C        2.2817410     1.1201620     0.0004430
  C       -2.6293090     1.2888360    -0.0004050
  C        4.0102370    -1.0927240    -0.0003780
  C       -3.6612700    -1.3047800     0.0004470
  C        3.6608930     1.3050510     0.0005180
  C       -4.0099580     1.0931000    -0.0003430
  C        4.5276310     0.2044750     0.0001450
  C       -4.5277070    -0.2039390     0.0001440
  H        2.1941740    -2.2850020    -0.0008280
  H       -1.5949460    -1.9607630     0.0007310
  H        1.5942790     1.9602490     0.0007180
  H       -2.1933450     2.2846620    -0.0007500
  H        4.6808280    -1.9484460    -0.0006320
  H       -4.0692680    -2.3129040     0.0009720
  H        4.0684950     2.3133330     0.0008240
  H       -4.6802440     1.9490580    -0.0004760
  H        5.6036530     0.3614050     0.0000240
  H       -5.6037540    -0.3606960     0.0002220
units angstrom
no_reorient  #important for SAPT in psi4, default
symmetry c1  #important for SAPT in psi4, default
}

set PROPERTIES_ORIGIN ["COM"]
properties('MP2/aug-cc-pvtz', properties = ['dipole'])
--------------------------------------------------------------------------

    Molecular point group: c1
  Charge       = 0
  Multiplicity = 1
  Basis Set: AUG-CC-PVTZ
    Blend: AUG-CC-PVTZ
  Basis Set: (AUG-CC-PVTZ AUX)
    Blend: AUG-CC-PVTZ-JKFIT

    Orbital Energies [Eh]
    ---------------------

    Doubly Occupied:

       1A    -15.632276     2A    -15.631113     3A    -11.270045
       4A    -11.270038     5A    -11.245653     6A    -11.245648
       7A    -11.244061     8A    -11.244059     9A    -11.243532
      10A    -11.243527    11A    -11.242416    12A    -11.242412
      13A    -11.242117    14A    -11.242108    15A     -1.357556
      16A     -1.172556    17A     -1.149480    18A     -1.075369
      19A     -1.023311    20A     -1.022910    21A     -1.006764
      22A     -0.925789    23A     -0.843716    24A     -0.839794
      25A     -0.817666    26A     -0.775942    27A     -0.717116
      28A     -0.699598    29A     -0.668153    30A     -0.660338
      31A     -0.631341    32A     -0.617883    33A     -0.599458
      34A     -0.597245    35A     -0.593757    36A     -0.579006
      37A     -0.574480    38A     -0.521119    39A     -0.518966
      40A     -0.515223    41A     -0.499742    42A     -0.498674
      43A     -0.476615    44A     -0.403106    45A     -0.362897
      46A     -0.344006    47A     -0.343490    48A     -0.302742

  @DF-RHF Final Energy:  -569.27855198842997

   => Energetics <=

    Nuclear Repulsion Energy =            749.2952101292354428
    One-Electron Energy =               -2257.1978982493374133
    Two-Electron Energy =                 938.6241361316721168
    Total Energy =                       -569.2785519884299674
  Basis Set: (AUG-CC-PVTZ AUX)
    Blend: AUG-CC-PVTZ-RI
    Molecular point group: c1

    Geometry (in Angstrom), charge = 0, multiplicity = 1:

       Center              X                  Y                   Z               Mass
    ------------   -----------------  -----------------  -----------------  -----------------
         N            0.383359235276    -0.512532098268    -0.000119715152    14.003074004430
         N           -0.383280764724     0.512040901732    -0.000360715152    14.003074004430
         C            1.767229235276    -0.186190098268    -0.000018715152    12.000000000000
         C           -1.767158764724     0.185809901732    -0.000120715152    12.000000000000
         C            2.629654235276    -1.288961098268    -0.000405715152    12.000000000000
         C           -2.282056764724    -1.120385098268     0.000429284848    12.000000000000
         C            2.281740235276     1.120166901732     0.000447284848    12.000000000000
         C           -2.629309764724     1.288840901732    -0.000400715152    12.000000000000
         C            4.010236235276    -1.092719098268    -0.000373715152    12.000000000000
         C           -3.661270764724    -1.304775098268     0.000451284848    12.000000000000
         C            3.660892235276     1.305055901732     0.000522284848    12.000000000000
         C           -4.009958764724     1.093104901732    -0.000338715152    12.000000000000
         C            4.527630235276     0.204479901732     0.000149284848    12.000000000000
         C           -4.527707764724    -0.203934098268     0.000148284848    12.000000000000
         H            2.194173235276    -2.284997098268    -0.000823715152     1.007825032230
         H           -1.594946764724    -1.960758098268     0.000735284848     1.007825032230
         H            1.594278235276     1.960253901732     0.000722284848     1.007825032230
         H           -2.193345764724     2.284666901732    -0.000745715152     1.007825032230
         H            4.680827235276    -1.948441098268    -0.000627715152     1.007825032230
         H           -4.069268764724    -2.312899098268     0.000976284848     1.007825032230
         H            4.068494235276     2.313337901732     0.000828284848     1.007825032230
         H           -4.680244764724     1.949062901732    -0.000471715152     1.007825032230
         H            5.603652235276     0.361409901732     0.000028284848     1.007825032230
         H           -5.603754764724    -0.360691098268     0.000226284848     1.007825032230

  Basis Set: AUG-CC-PVTZ
    Blend: AUG-CC-PVTZ
  Basis Set: (AUG-CC-PVTZ AUX)
    Blend: AUG-CC-PVTZ-JKFIT
	 Reference Energy          =    -569.2785519884299674 [Eh]
	 Singles Energy            =      -0.0000000000000000 [Eh]
	 Same-Spin Energy          =      -0.6328612751687475 [Eh]
	 Opposite-Spin Energy      =      -1.9417856580941437 [Eh]
	 Correlation Energy        =      -2.5746469332628914 [Eh]
	 Total Energy              =    -571.8531989216928650 [Eh]

	 ================> DF-SCS-MP2 Energies <==================
	-----------------------------------------------------------
	 SCS Same-Spin Scale       =       0.3333333333333333 [-]
	 SCS Opposite-Spin Scale   =       1.2000000000000000 [-]
	 SCS Same-Spin Energy      =      -0.2109537583895825 [Eh]
	 SCS Opposite-Spin Energy  =      -2.3301427897129723 [Eh]
	 SCS Correlation Energy    =      -2.5410965481025549 [Eh]
	 SCS Total Energy          =    -571.8196485365325543 [Eh]
	-----------------------------------------------------------

  Dipole Moment: [D]
     X:    -0.0004      Y:     0.0003      Z:     0.0004     Total:     0.0006

*** Psi4 exiting successfully. Buy a developer a beer!
