                               Psi4 1.3.2 release

  ==> Input File <==

--------------------------------------------------------------------------
#psi4
#
memory 32 gb

molecule  {
0 1
  N        0.3833600    -0.5125370    -0.0001240
  N       -0.4185701     0.4846565    -0.0003646
  C        1.7672300    -0.1861950    -0.0000230
  C       -1.7671580     0.1858050    -0.0001250
  C        2.6296550    -1.2889660    -0.0004100
  C       -2.2820560    -1.1203900     0.0004250
  C        2.2817410     1.1201620     0.0004430
  C       -2.6293090     1.2888360    -0.0004050
  C        4.0102370    -1.0927240    -0.0003780
  C       -3.6612700    -1.3047800     0.0004470
  C        3.6608930     1.3050510     0.0005180
  C       -4.0099580     1.0931000    -0.0003430
  C        4.5276310     0.2044750     0.0001450
  C       -4.5277070    -0.2039390     0.0001440
  H        2.1941740    -2.2850020    -0.0008280
  H       -1.5949460    -1.9607630     0.0007310
  H        1.5942790     1.9602490     0.0007180
  H       -2.1933450     2.2846620    -0.0007500
  H        4.6808280    -1.9484460    -0.0006320
  H       -4.0692680    -2.3129040     0.0009720
  H        4.0684950     2.3133330     0.0008240
  H       -4.6802440     1.9490580    -0.0004760
  H        5.6036530     0.3614050     0.0000240
  H       -5.6037540    -0.3606960     0.0002220
units angstrom
no_reorient  #important for SAPT in psi4, default
symmetry c1  #important for SAPT in psi4, default
}

set PROPERTIES_ORIGIN ["COM"]
properties('MP2/aug-cc-pvtz', properties = ['dipole'])
--------------------------------------------------------------------------

    Molecular point group: c1
  Charge       = 0
  Multiplicity = 1
  Basis Set: AUG-CC-PVTZ
    Blend: AUG-CC-PVTZ
  Basis Set: (AUG-CC-PVTZ AUX)
    Blend: AUG-CC-PVTZ-JKFIT

    Orbital Energies [Eh]
    ---------------------

    Doubly Occupied:

       1A    -15.629051     2A    -15.626290     3A    -11.270399
       4A    -11.267369     5A    -11.246786     6A    -11.245525
       7A    -11.244981     8A    -11.243937     9A    -11.243556
      10A    -11.243336    11A    -11.242852    12A    -11.242259
      13A    -11.242067    14A    -11.241980    15A     -1.357395
      16A     -1.175227    17A     -1.149525    18A     -1.080412
      19A     -1.023857    20A     -1.022831    21A     -1.007384
      22A     -0.928466    23A     -0.845445    24A     -0.840151
      25A     -0.819031    26A     -0.775814    27A     -0.719790
      28A     -0.698209    29A     -0.670554    30A     -0.661180
      31A     -0.631892    32A     -0.617995    33A     -0.599777
      34A     -0.598280    35A     -0.593802    36A     -0.576893
      37A     -0.576409    38A     -0.521478    39A     -0.519660
      40A     -0.515876    41A     -0.500373    42A     -0.499329
      43A     -0.475965    44A     -0.396608    45A     -0.364724
      46A     -0.344223    47A     -0.343447    48A     -0.300316

  @DF-RHF Final Energy:  -569.27822367789463

   => Energetics <=

    Nuclear Repulsion Energy =            749.8169792216773430
    One-Electron Energy =               -2258.2249958992429129
    Two-Electron Energy =                 939.1297929996710536
    Total Energy =                       -569.2782236778946299
  Basis Set: (AUG-CC-PVTZ AUX)
    Blend: AUG-CC-PVTZ-RI
    Molecular point group: c1

    Geometry (in Angstrom), charge = 0, multiplicity = 1:

       Center              X                  Y                   Z               Mass
    ------------   -----------------  -----------------  -----------------  -----------------
         N            0.386073195870    -0.510426496865    -0.000119745913    14.003074004430
         N           -0.415856904130     0.486767003135    -0.000360345913    14.003074004430
         C            1.769943195870    -0.184084496865    -0.000018745913    12.000000000000
         C           -1.764444804130     0.187915503135    -0.000120745913    12.000000000000
         C            2.632368195870    -1.286855496865    -0.000405745913    12.000000000000
         C           -2.279342804130    -1.118279496865     0.000429254087    12.000000000000
         C            2.284454195870     1.122272503135     0.000447254087    12.000000000000
         C           -2.626595804130     1.290946503135    -0.000400745913    12.000000000000
         C            4.012950195870    -1.090613496865    -0.000373745913    12.000000000000
         C           -3.658556804130    -1.302669496865     0.000451254087    12.000000000000
         C            3.663606195870     1.307161503135     0.000522254087    12.000000000000
         C           -4.007244804130     1.095210503135    -0.000338745913    12.000000000000
         C            4.530344195870     0.206585503135     0.000149254087    12.000000000000
         C           -4.524993804130    -0.201828496865     0.000148254087    12.000000000000
         H            2.196887195870    -2.282891496865    -0.000823745913     1.007825032230
         H           -1.592232804130    -1.958652496865     0.000735254087     1.007825032230
         H            1.596992195870     1.962359503135     0.000722254087     1.007825032230
         H           -2.190631804130     2.286772503135    -0.000745745913     1.007825032230
         H            4.683541195870    -1.946335496865    -0.000627745913     1.007825032230
         H           -4.066554804130    -2.310793496865     0.000976254087     1.007825032230
         H            4.071208195870     2.315443503135     0.000828254087     1.007825032230
         H           -4.677530804130     1.951168503135    -0.000471745913     1.007825032230
         H            5.606366195870     0.363515503135     0.000028254087     1.007825032230
         H           -5.601040804130    -0.358585496865     0.000226254087     1.007825032230

  Basis Set: AUG-CC-PVTZ
    Blend: AUG-CC-PVTZ
  Basis Set: (AUG-CC-PVTZ AUX)
    Blend: AUG-CC-PVTZ-JKFIT
	 Reference Energy          =    -569.2782236778946299 [Eh]
	 Singles Energy            =      -0.0000000000000000 [Eh]
	 Same-Spin Energy          =      -0.6330693331653736 [Eh]
	 Opposite-Spin Energy      =      -1.9411528863967549 [Eh]
	 Correlation Energy        =      -2.5742222195621283 [Eh]
	 Total Energy              =    -571.8524458974567324 [Eh]

	 ================> DF-SCS-MP2 Energies <==================
	-----------------------------------------------------------
	 SCS Same-Spin Scale       =       0.3333333333333333 [-]
	 SCS Opposite-Spin Scale   =       1.2000000000000000 [-]
	 SCS Same-Spin Energy      =      -0.2110231110551245 [Eh]
	 SCS Opposite-Spin Energy  =      -2.3293834636761059 [Eh]
	 SCS Correlation Energy    =      -2.5404065747312305 [Eh]
	 SCS Total Energy          =    -571.8186302526258942 [Eh]
	-----------------------------------------------------------

  Dipole Moment: [D]
     X:    -0.1035      Y:     0.0190      Z:     0.0004     Total:     0.1053

*** Psi4 exiting successfully. Buy a developer a beer!
