                               Psi4 1.3.2 release

  ==> Input File <==

--------------------------------------------------------------------------
#psi4
#
memory 32 gb

molecule  {
0 1
  N        0.3778753    -0.4883354    -0.0001211
  N       -0.3832800     0.5120360    -0.0003650
  C        1.7672300    -0.1861950    -0.0000230
  C       -1.7671580     0.1858050    -0.0001250
  C        2.6296550    -1.2889660    -0.0004100
  C       -2.2820560    -1.1203900     0.0004250
  C        2.2817410     1.1201620     0.0004430
  C       -2.6293090     1.2888360    -0.0004050
  C        4.0102370    -1.0927240    -0.0003780
  C       -3.6612700    -1.3047800     0.0004470
  C        3.6608930     1.3050510     0.0005180
  C       -4.0099580     1.0931000    -0.0003430
  C        4.5276310     0.2044750     0.0001450
  C       -4.5277070    -0.2039390     0.0001440
  H        2.1941740    -2.2850020    -0.0008280
  H       -1.5949460    -1.9607630     0.0007310
  H        1.5942790     1.9602490     0.0007180
  H       -2.1933450     2.2846620    -0.0007500
  H        4.6808280    -1.9484460    -0.0006320
  H       -4.0692680    -2.3129040     0.0009720
  H        4.0684950     2.3133330     0.0008240
  H       -4.6802440     1.9490580    -0.0004760
  H        5.6036530     0.3614050     0.0000240
  H       -5.6037540    -0.3606960     0.0002220
units angstrom
no_reorient  #important for SAPT in psi4, default
symmetry c1  #important for SAPT in psi4, default
}

set PROPERTIES_ORIGIN ["COM"]
properties('MP2/aug-cc-pvtz', properties = ['dipole'])
--------------------------------------------------------------------------

    Molecular point group: c1
  Charge       = 0
  Multiplicity = 1
  Basis Set: AUG-CC-PVTZ
    Blend: AUG-CC-PVTZ
  Basis Set: (AUG-CC-PVTZ AUX)
    Blend: AUG-CC-PVTZ-JKFIT

    Orbital Energies [Eh]
    ---------------------

    Doubly Occupied:

       1A    -15.629254     2A    -15.627805     3A    -11.270012
       4A    -11.269509     5A    -11.245859     6A    -11.245356
       7A    -11.244693     8A    -11.243705     9A    -11.243448
      10A    -11.243302    11A    -11.242774    12A    -11.242145
      13A    -11.241943    14A    -11.241897    15A     -1.368514
      16A     -1.172292    17A     -1.150089    18A     -1.074752
      19A     -1.023350    20A     -1.022805    21A     -1.008118
      22A     -0.924763    23A     -0.843980    24A     -0.840028
      25A     -0.818740    26A     -0.775394    27A     -0.718990
      28A     -0.699530    29A     -0.669037    30A     -0.661646
      31A     -0.631187    32A     -0.617845    33A     -0.599553
      34A     -0.599186    35A     -0.593683    36A     -0.579424
      37A     -0.578821    38A     -0.521412    39A     -0.519513
      40A     -0.515091    41A     -0.499769    42A     -0.498780
      43A     -0.478698    44A     -0.397137    45A     -0.362459
      46A     -0.343987    47A     -0.343353    48A     -0.304721

  @DF-RHF Final Energy:  -569.28210147384971

   => Energetics <=

    Nuclear Repulsion Energy =            749.7477007821739790
    One-Electron Energy =               -2258.0829061487556828
    Two-Electron Energy =                 939.0531038927319969
    Total Energy =                       -569.2821014738497070
  Basis Set: (AUG-CC-PVTZ AUX)
    Blend: AUG-CC-PVTZ-RI
    Molecular point group: c1

    Geometry (in Angstrom), charge = 0, multiplicity = 1:

       Center              X                  Y                   Z               Mass
    ------------   -----------------  -----------------  -----------------  -----------------
         N            0.378296332315    -0.490191705483    -0.000117038174    14.003074004430
         N           -0.382858967685     0.510179694517    -0.000360938174    14.003074004430
         C            1.767651032315    -0.188051305483    -0.000018938174    12.000000000000
         C           -1.766736967685     0.183948694517    -0.000120938174    12.000000000000
         C            2.630076032315    -1.290822305483    -0.000405938174    12.000000000000
         C           -2.281634967685    -1.122246305483     0.000429061826    12.000000000000
         C            2.282162032315     1.118305694517     0.000447061826    12.000000000000
         C           -2.628887967685     1.286979694517    -0.000400938174    12.000000000000
         C            4.010658032315    -1.094580305483    -0.000373938174    12.000000000000
         C           -3.660848967685    -1.306636305483     0.000451061826    12.000000000000
         C            3.661314032315     1.303194694517     0.000522061826    12.000000000000
         C           -4.009536967685     1.091243694517    -0.000338938174    12.000000000000
         C            4.528052032315     0.202618694517     0.000149061826    12.000000000000
         C           -4.527285967685    -0.205795305483     0.000148061826    12.000000000000
         H            2.194595032315    -2.286858305483    -0.000823938174     1.007825032230
         H           -1.594524967685    -1.962619305483     0.000735061826     1.007825032230
         H            1.594700032315     1.958392694517     0.000722061826     1.007825032230
         H           -2.192923967685     2.282805694517    -0.000745938174     1.007825032230
         H            4.681249032315    -1.950302305483    -0.000627938174     1.007825032230
         H           -4.068846967685    -2.314760305483     0.000976061826     1.007825032230
         H            4.068916032315     2.311476694517     0.000828061826     1.007825032230
         H           -4.679822967685     1.947201694517    -0.000471938174     1.007825032230
         H            5.604074032315     0.359548694517     0.000028061826     1.007825032230
         H           -5.603332967685    -0.362552305483     0.000226061826     1.007825032230

  Basis Set: AUG-CC-PVTZ
    Blend: AUG-CC-PVTZ
  Basis Set: (AUG-CC-PVTZ AUX)
    Blend: AUG-CC-PVTZ-JKFIT
	 Reference Energy          =    -569.2821014738497070 [Eh]
	 Singles Energy            =      -0.0000000000000000 [Eh]
	 Same-Spin Energy          =      -0.6318222750913347 [Eh]
	 Opposite-Spin Energy      =      -1.9394822940083989 [Eh]
	 Correlation Energy        =      -2.5713045690997336 [Eh]
	 Total Energy              =    -571.8534060429494730 [Eh]

	 ================> DF-SCS-MP2 Energies <==================
	-----------------------------------------------------------
	 SCS Same-Spin Scale       =       0.3333333333333333 [-]
	 SCS Opposite-Spin Scale   =       1.2000000000000000 [-]
	 SCS Same-Spin Energy      =      -0.2106074250304449 [Eh]
	 SCS Opposite-Spin Energy  =      -2.3273787528100787 [Eh]
	 SCS Correlation Energy    =      -2.5379861778405237 [Eh]
	 SCS Total Energy          =    -571.8200876516901872 [Eh]
	-----------------------------------------------------------

  Dipole Moment: [D]
     X:     0.0292      Y:    -0.0146      Z:     0.0004     Total:     0.0326

*** Psi4 exiting successfully. Buy a developer a beer!
