                               Psi4 1.4a3.dev225

  ==> Input File <==

--------------------------------------------------------------------------
#psi4
#
memory 32 gb

molecule  {
0 1
  N       -0.3833490    -0.5122680     0.0000090
  N        0.3953320     0.5282788    -0.0000113
  C       -1.7672170    -0.1859390     0.0000050
  C        1.7672170     0.1859380    -0.0000040
  C       -2.6294640    -1.2888570    -0.0000090
  C        2.2819740    -1.1203090     0.0000060
  C       -2.2819730     1.1203080     0.0000150
  C        2.6294620     1.2888570    -0.0000150
  C       -4.0100960    -1.0929460    -0.0000130
  C        3.6611660    -1.3048860     0.0000120
  C       -3.6611640     1.3048870     0.0000130
  C        4.0100950     1.0929470    -0.0000080
  C       -4.5277130     0.2041430    -0.0000040
  C        4.5277130    -0.2041410     0.0000030
  H       -2.1937340    -2.2847830    -0.0000140
  H        1.5947880    -1.9606160     0.0000130
  H       -1.5947870     1.9606160     0.0000300
  H        2.1937330     2.2847830    -0.0000250
  H       -4.6804930    -1.9488170    -0.0000250
  H        4.0690280    -2.3130640     0.0000180
  H       -4.0690260     2.3130650     0.0000210
  H        4.6804920     1.9488190    -0.0000150
  H       -5.6037480     0.3609690    -0.0000050
  H        5.6037490    -0.3609640     0.0000090
units angstrom
no_reorient  #important for SAPT in psi4, default
symmetry c1  #important for SAPT in psi4, default
}

set PROPERTIES_ORIGIN ["COM"]
properties('MP2/aug-cc-pvtz', properties = ['dipole'])
--------------------------------------------------------------------------

    Molecular point group: c1
  Charge       = 0
  Multiplicity = 1
  Basis Set: AUG-CC-PVTZ
    Blend: AUG-CC-PVTZ
  Basis Set: (AUG-CC-PVTZ AUX)
    Blend: AUG-CC-PVTZ-JKFIT

    Orbital Energies [Eh]
    ---------------------

    Doubly Occupied:

       1A    -15.634138     2A    -15.633063     3A    -11.270557
       4A    -11.269576     5A    -11.245902     6A    -11.245674
       7A    -11.244362     8A    -11.243743     9A    -11.243701
      10A    -11.243561    11A    -11.242626    12A    -11.242298
      13A    -11.242277    14A    -11.242134    15A     -1.348316
      16A     -1.173308    17A     -1.148931    18A     -1.076900
      19A     -1.023415    20A     -1.022961    21A     -1.005677
      22A     -0.927191    23A     -0.843824    24A     -0.839674
      25A     -0.816995    26A     -0.776385    27A     -0.716012
      28A     -0.699388    29A     -0.667854    30A     -0.659398
      31A     -0.631596    32A     -0.617951    33A     -0.599464
      34A     -0.595626    35A     -0.593829    36A     -0.578305
      37A     -0.571323    38A     -0.520920    39A     -0.518603
      40A     -0.515483    41A     -0.500042    42A     -0.498538
      43A     -0.474613    44A     -0.406839    45A     -0.363657
      46A     -0.344122    47A     -0.343552    48A     -0.300487

  @DF-RHF Final Energy:  -569.27462866443875

   => Energetics <=

    Nuclear Repulsion Energy =            749.0010084756904689
    One-Electron Energy =               -2256.6216878530130998
    Two-Electron Energy =                 938.3460507128838799
    Total Energy =                       -569.2746286644387510
  Basis Set: (AUG-CC-PVTZ AUX)
    Blend: AUG-CC-PVTZ-RI
    Molecular point group: c1

    Geometry (in Angstrom), charge = 0, multiplicity = 1:

       Center              X                  Y                   Z               Mass
    ------------   -----------------  -----------------  -----------------  -----------------
         N           -0.384270555350    -0.513499475524     0.000009072232    14.003074004430
         N            0.394410444650     0.527047324476    -0.000011227768    14.003074004430
         C           -1.768138555350    -0.187170475524     0.000005072232    12.000000000000
         C            1.766295444650     0.184706524476    -0.000003927768    12.000000000000
         C           -2.630385555350    -1.290088475524    -0.000008927768    12.000000000000
         C            2.281052444650    -1.121540475524     0.000006072232    12.000000000000
         C           -2.282894555350     1.119076524476     0.000015072232    12.000000000000
         C            2.628540444650     1.287625524476    -0.000014927768    12.000000000000
         C           -4.011017555350    -1.094177475524    -0.000012927768    12.000000000000
         C            3.660244444650    -1.306117475524     0.000012072232    12.000000000000
         C           -3.662085555350     1.303655524476     0.000013072232    12.000000000000
         C            4.009173444650     1.091715524476    -0.000007927768    12.000000000000
         C           -4.528634555350     0.202911524476    -0.000003927768    12.000000000000
         C            4.526791444650    -0.205372475524     0.000003072232    12.000000000000
         H           -2.194655555350    -2.286014475524    -0.000013927768     1.007825032230
         H            1.593866444650    -1.961847475524     0.000013072232     1.007825032230
         H           -1.595708555350     1.959384524476     0.000030072232     1.007825032230
         H            2.192811444650     2.283551524476    -0.000024927768     1.007825032230
         H           -4.681414555350    -1.950048475524    -0.000024927768     1.007825032230
         H            4.068106444650    -2.314295475524     0.000018072232     1.007825032230
         H           -4.069947555350     2.311833524476     0.000021072232     1.007825032230
         H            4.679570444650     1.947587524476    -0.000014927768     1.007825032230
         H           -5.604669555350     0.359737524476    -0.000004927768     1.007825032230
         H            5.602827444650    -0.362195475524     0.000009072232     1.007825032230

  Basis Set: AUG-CC-PVTZ
    Blend: AUG-CC-PVTZ
  Basis Set: (AUG-CC-PVTZ AUX)
    Blend: AUG-CC-PVTZ-JKFIT
	 Reference Energy          =    -569.2746286644387510 [Eh]
	 Singles Energy            =      -0.0000000000000000 [Eh]
	 Same-Spin Energy          =      -0.6338652934551171 [Eh]
	 Opposite-Spin Energy      =      -1.9437793952841864 [Eh]
	 Correlation Energy        =      -2.5776446887393036 [Eh]
	 Total Energy              =    -571.8522733531780204 [Eh]

	 ================> DF-SCS-MP2 Energies <==================
	-----------------------------------------------------------
	 SCS Same-Spin Scale       =       0.3333333333333333 [-]
	 SCS Opposite-Spin Scale   =       1.2000000000000000 [-]
	 SCS Same-Spin Energy      =      -0.2112884311517057 [Eh]
	 SCS Opposite-Spin Energy  =      -2.3325352743410237 [Eh]
	 SCS Correlation Energy    =      -2.5438237054927293 [Eh]
	 SCS Total Energy          =    -571.8184523699314923 [Eh]
	-----------------------------------------------------------

  Dipole Moment: [D]
     X:    -0.0040      Y:    -0.0093      Z:     0.0000     Total:     0.0101

*** Psi4 exiting successfully. Buy a developer a beer!
