                               Psi4 1.3.2 release

  ==> Input File <==

--------------------------------------------------------------------------
#psi4
#
memory 32 gb

molecule  {
0 1
  N        0.3833600    -0.5125370    -0.0001240
  N       -0.3470559     0.5381672    -0.0003651
  C        1.7672300    -0.1861950    -0.0000230
  C       -1.7671580     0.1858050    -0.0001250
  C        2.6296550    -1.2889660    -0.0004100
  C       -2.2820560    -1.1203900     0.0004250
  C        2.2817410     1.1201620     0.0004430
  C       -2.6293090     1.2888360    -0.0004050
  C        4.0102370    -1.0927240    -0.0003780
  C       -3.6612700    -1.3047800     0.0004470
  C        3.6608930     1.3050510     0.0005180
  C       -4.0099580     1.0931000    -0.0003430
  C        4.5276310     0.2044750     0.0001450
  C       -4.5277070    -0.2039390     0.0001440
  H        2.1941740    -2.2850020    -0.0008280
  H       -1.5949460    -1.9607630     0.0007310
  H        1.5942790     1.9602490     0.0007180
  H       -2.1933450     2.2846620    -0.0007500
  H        4.6808280    -1.9484460    -0.0006320
  H       -4.0692680    -2.3129040     0.0009720
  H        4.0684950     2.3133330     0.0008240
  H       -4.6802440     1.9490580    -0.0004760
  H        5.6036530     0.3614050     0.0000240
  H       -5.6037540    -0.3606960     0.0002220
units angstrom
no_reorient  #important for SAPT in psi4, default
symmetry c1  #important for SAPT in psi4, default
}

set PROPERTIES_ORIGIN ["COM"]
properties('MP2/aug-cc-pvtz', properties = ['dipole'])
--------------------------------------------------------------------------

    Molecular point group: c1
  Charge       = 0
  Multiplicity = 1
  Basis Set: AUG-CC-PVTZ
    Blend: AUG-CC-PVTZ
  Basis Set: (AUG-CC-PVTZ AUX)
    Blend: AUG-CC-PVTZ-JKFIT

    Orbital Energies [Eh]
    ---------------------

    Doubly Occupied:

       1A    -15.636776     2A    -15.634171     3A    -11.272581
       4A    -11.269666     5A    -11.245638     6A    -11.244796
       7A    -11.244043     8A    -11.243615     9A    -11.243599
      10A    -11.243216    11A    -11.242460    12A    -11.242267
      13A    -11.242092    14A    -11.241956    15A     -1.358219
      16A     -1.170139    17A     -1.149402    18A     -1.070477
      19A     -1.023236    20A     -1.022518    21A     -1.006123
      22A     -0.923208    23A     -0.842284    24A     -0.839282
      25A     -0.816286    26A     -0.776122    27A     -0.714587
      28A     -0.701181    29A     -0.665495    30A     -0.659663
      31A     -0.630798    32A     -0.617766    33A     -0.600437
      34A     -0.595100    35A     -0.593664    36A     -0.580535
      37A     -0.573039    38A     -0.520892    39A     -0.518303
      40A     -0.514506    41A     -0.499966    42A     -0.496845
      43A     -0.477263    44A     -0.408350    45A     -0.361085
      46A     -0.343978    47A     -0.343325    48A     -0.304974

  @DF-RHF Final Energy:  -569.27562065345444

   => Energetics <=

    Nuclear Repulsion Energy =            748.8086806960512831
    One-Electron Energy =               -2256.2367514590278006
    Two-Electron Energy =                 938.1524501095219648
    Total Energy =                       -569.2756206534544390
  Basis Set: (AUG-CC-PVTZ AUX)
    Blend: AUG-CC-PVTZ-RI
    Molecular point group: c1

    Geometry (in Angstrom), charge = 0, multiplicity = 1:

       Center              X                  Y                   Z               Mass
    ------------   -----------------  -----------------  -----------------  -----------------
         N            0.380573446061    -0.514541700029    -0.000119707461    14.003074004430
         N           -0.349842453939     0.536162499971    -0.000360807461    14.003074004430
         C            1.764443446061    -0.188199700029    -0.000018707461    12.000000000000
         C           -1.769944553939     0.183800299971    -0.000120707461    12.000000000000
         C            2.626868446061    -1.290970700029    -0.000405707461    12.000000000000
         C           -2.284842553939    -1.122394700029     0.000429292539    12.000000000000
         C            2.278954446061     1.118157299971     0.000447292539    12.000000000000
         C           -2.632095553939     1.286831299971    -0.000400707461    12.000000000000
         C            4.007450446061    -1.094728700029    -0.000373707461    12.000000000000
         C           -3.664056553939    -1.306784700029     0.000451292539    12.000000000000
         C            3.658106446061     1.303046299971     0.000522292539    12.000000000000
         C           -4.012744553939     1.091095299971    -0.000338707461    12.000000000000
         C            4.524844446061     0.202470299971     0.000149292539    12.000000000000
         C           -4.530493553939    -0.205943700029     0.000148292539    12.000000000000
         H            2.191387446061    -2.287006700029    -0.000823707461     1.007825032230
         H           -1.597732553939    -1.962767700029     0.000735292539     1.007825032230
         H            1.591492446061     1.958244299971     0.000722292539     1.007825032230
         H           -2.196131553939     2.282657299971    -0.000745707461     1.007825032230
         H            4.678041446061    -1.950450700029    -0.000627707461     1.007825032230
         H           -4.072054553939    -2.314908700029     0.000976292539     1.007825032230
         H            4.065708446061     2.311328299971     0.000828292539     1.007825032230
         H           -4.683030553939     1.947053299971    -0.000471707461     1.007825032230
         H            5.600866446061     0.359400299971     0.000028292539     1.007825032230
         H           -5.606540553939    -0.362700700029     0.000226292539     1.007825032230

  Basis Set: AUG-CC-PVTZ
    Blend: AUG-CC-PVTZ
  Basis Set: (AUG-CC-PVTZ AUX)
    Blend: AUG-CC-PVTZ-JKFIT
	 Reference Energy          =    -569.2756206534544390 [Eh]
	 Singles Energy            =      -0.0000000000000000 [Eh]
	 Same-Spin Energy          =      -0.6328304888073841 [Eh]
	 Opposite-Spin Energy      =      -1.9427258066330695 [Eh]
	 Correlation Energy        =      -2.5755562954404536 [Eh]
	 Total Energy              =    -571.8511769488949312 [Eh]

	 ================> DF-SCS-MP2 Energies <==================
	-----------------------------------------------------------
	 SCS Same-Spin Scale       =       0.3333333333333333 [-]
	 SCS Opposite-Spin Scale   =       1.2000000000000000 [-]
	 SCS Same-Spin Energy      =      -0.2109434962691280 [Eh]
	 SCS Opposite-Spin Energy  =      -2.3312709679596835 [Eh]
	 SCS Correlation Energy    =      -2.5422144642288114 [Eh]
	 SCS Total Energy          =    -571.8178351176832166 [Eh]
	-----------------------------------------------------------

  Dipole Moment: [D]
     X:     0.0984      Y:    -0.0149      Z:     0.0004     Total:     0.0996

*** Psi4 exiting successfully. Buy a developer a beer!
