                               Psi4 1.4a3.dev225

  ==> Input File <==

--------------------------------------------------------------------------
#psi4
#
memory 32 gb

molecule  {
0 1
  N       -0.3833490    -0.5122680     0.0000090
  N        0.3833490     0.5122660    -0.0000110
  C       -1.7185517    -0.1974147     0.0000051
  C        1.7672170     0.1859380    -0.0000040
  C       -2.6294640    -1.2888570    -0.0000090
  C        2.2819740    -1.1203090     0.0000060
  C       -2.2819730     1.1203080     0.0000150
  C        2.6294620     1.2888570    -0.0000150
  C       -4.0100960    -1.0929460    -0.0000130
  C        3.6611660    -1.3048860     0.0000120
  C       -3.6611640     1.3048870     0.0000130
  C        4.0100950     1.0929470    -0.0000080
  C       -4.5277130     0.2041430    -0.0000040
  C        4.5277130    -0.2041410     0.0000030
  H       -2.1937340    -2.2847830    -0.0000140
  H        1.5947880    -1.9606160     0.0000130
  H       -1.5947870     1.9606160     0.0000300
  H        2.1937330     2.2847830    -0.0000250
  H       -4.6804930    -1.9488170    -0.0000250
  H        4.0690280    -2.3130640     0.0000180
  H       -4.0690260     2.3130650     0.0000210
  H        4.6804920     1.9488190    -0.0000150
  H       -5.6037480     0.3609690    -0.0000050
  H        5.6037490    -0.3609640     0.0000090
units angstrom
no_reorient  #important for SAPT in psi4, default
symmetry c1  #important for SAPT in psi4, default
}

set PROPERTIES_ORIGIN ["COM"]
properties('MP2/aug-cc-pvtz', properties = ['dipole'])
--------------------------------------------------------------------------

    Molecular point group: c1
  Charge       = 0
  Multiplicity = 1
  Basis Set: AUG-CC-PVTZ
    Blend: AUG-CC-PVTZ
  Basis Set: (AUG-CC-PVTZ AUX)
    Blend: AUG-CC-PVTZ-JKFIT

    Orbital Energies [Eh]
    ---------------------

    Doubly Occupied:

       1A    -15.631691     2A    -15.629611     3A    -11.271707
       4A    -11.270195     5A    -11.247313     6A    -11.246686
       7A    -11.246174     8A    -11.245805     9A    -11.244186
      10A    -11.243696    11A    -11.243023    12A    -11.242553
      13A    -11.242491    14A    -11.242282    15A     -1.364340
      16A     -1.172791    17A     -1.147009    18A     -1.081443
      19A     -1.023269    20A     -1.020814    21A     -1.005004
      22A     -0.929969    23A     -0.844606    24A     -0.838664
      25A     -0.817097    26A     -0.775774    27A     -0.718181
      28A     -0.699614    29A     -0.671399    30A     -0.662884
      31A     -0.630731    32A     -0.617446    33A     -0.599223
      34A     -0.596335    35A     -0.591021    36A     -0.579359
      37A     -0.578628    38A     -0.522934    39A     -0.520384
      40A     -0.513977    41A     -0.500403    42A     -0.493172
      43A     -0.476256    44A     -0.404846    45A     -0.364156
      46A     -0.343997    47A     -0.343033    48A     -0.297564

  @DF-RHF Final Energy:  -569.27473261319062

   => Energetics <=

    Nuclear Repulsion Energy =            749.4059657719155894
    One-Electron Energy =               -2257.3739309428292472
    Two-Electron Energy =                 938.6932325577230358
    Total Energy =                       -569.2747326131906220
  Basis Set: (AUG-CC-PVTZ AUX)
    Blend: AUG-CC-PVTZ-RI
    Molecular point group: c1

    Geometry (in Angstrom), charge = 0, multiplicity = 1:

       Center              X                  Y                   Z               Mass
    ------------   -----------------  -----------------  -----------------  -----------------
         N           -0.386556224897    -0.511511733429     0.000009042570    14.003074004430
         N            0.380141775103     0.513022266571    -0.000010957430    14.003074004430
         C           -1.721758924897    -0.196658433429     0.000005142570    12.000000000000
         C            1.764009775103     0.186694266571    -0.000003957430    12.000000000000
         C           -2.632671224897    -1.288100733429    -0.000008957430    12.000000000000
         C            2.278766775103    -1.119552733429     0.000006042570    12.000000000000
         C           -2.285180224897     1.121064266571     0.000015042570    12.000000000000
         C            2.626254775103     1.289613266571    -0.000014957430    12.000000000000
         C           -4.013303224897    -1.092189733429    -0.000012957430    12.000000000000
         C            3.657958775103    -1.304129733429     0.000012042570    12.000000000000
         C           -3.664371224897     1.305643266571     0.000013042570    12.000000000000
         C            4.006887775103     1.093703266571    -0.000007957430    12.000000000000
         C           -4.530920224897     0.204899266571    -0.000003957430    12.000000000000
         C            4.524505775103    -0.203384733429     0.000003042570    12.000000000000
         H           -2.196941224897    -2.284026733429    -0.000013957430     1.007825032230
         H            1.591580775103    -1.959859733429     0.000013042570     1.007825032230
         H           -1.597994224897     1.961372266571     0.000030042570     1.007825032230
         H            2.190525775103     2.285539266571    -0.000024957430     1.007825032230
         H           -4.683700224897    -1.948060733429    -0.000024957430     1.007825032230
         H            4.065820775103    -2.312307733429     0.000018042570     1.007825032230
         H           -4.072233224897     2.313821266571     0.000021042570     1.007825032230
         H            4.677284775103     1.949575266571    -0.000014957430     1.007825032230
         H           -5.606955224897     0.361725266571    -0.000004957430     1.007825032230
         H            5.600541775103    -0.360207733429     0.000009042570     1.007825032230

  Basis Set: AUG-CC-PVTZ
    Blend: AUG-CC-PVTZ
  Basis Set: (AUG-CC-PVTZ AUX)
    Blend: AUG-CC-PVTZ-JKFIT
	 Reference Energy          =    -569.2747326131906220 [Eh]
	 Singles Energy            =      -0.0000000000000000 [Eh]
	 Same-Spin Energy          =      -0.6335693887398670 [Eh]
	 Opposite-Spin Energy      =      -1.9424237759799694 [Eh]
	 Correlation Energy        =      -2.5759931647198364 [Eh]
	 Total Energy              =    -571.8507257779104975 [Eh]

	 ================> DF-SCS-MP2 Energies <==================
	-----------------------------------------------------------
	 SCS Same-Spin Scale       =       0.3333333333333333 [-]
	 SCS Opposite-Spin Scale   =       1.2000000000000000 [-]
	 SCS Same-Spin Energy      =      -0.2111897962466223 [Eh]
	 SCS Opposite-Spin Energy  =      -2.3309085311759632 [Eh]
	 SCS Correlation Energy    =      -2.5420983274225857 [Eh]
	 SCS Total Energy          =    -571.8168309406131584 [Eh]
	-----------------------------------------------------------

  Dipole Moment: [D]
     X:    -0.0616      Y:     0.0000      Z:     0.0000     Total:     0.0616

*** Psi4 exiting successfully. Buy a developer a beer!
