                               Psi4 1.4a3.dev225

  ==> Input File <==

--------------------------------------------------------------------------
#psi4
#
memory 32 gb

molecule  {
0 1
  N       -0.3833490    -0.5122680     0.0000090
  N        0.3833490     0.5122660    -0.0000110
  C       -1.7866831    -0.1813487     0.0000049
  C        1.7672170     0.1859380    -0.0000040
  C       -2.6294640    -1.2888570    -0.0000090
  C        2.2819740    -1.1203090     0.0000060
  C       -2.2819730     1.1203080     0.0000150
  C        2.6294620     1.2888570    -0.0000150
  C       -4.0100960    -1.0929460    -0.0000130
  C        3.6611660    -1.3048860     0.0000120
  C       -3.6611640     1.3048870     0.0000130
  C        4.0100950     1.0929470    -0.0000080
  C       -4.5277130     0.2041430    -0.0000040
  C        4.5277130    -0.2041410     0.0000030
  H       -2.1937340    -2.2847830    -0.0000140
  H        1.5947880    -1.9606160     0.0000130
  H       -1.5947870     1.9606160     0.0000300
  H        2.1937330     2.2847830    -0.0000250
  H       -4.6804930    -1.9488170    -0.0000250
  H        4.0690280    -2.3130640     0.0000180
  H       -4.0690260     2.3130650     0.0000210
  H        4.6804920     1.9488190    -0.0000150
  H       -5.6037480     0.3609690    -0.0000050
  H        5.6037490    -0.3609640     0.0000090
units angstrom
no_reorient  #important for SAPT in psi4, default
symmetry c1  #important for SAPT in psi4, default
}

set PROPERTIES_ORIGIN ["COM"]
properties('MP2/aug-cc-pvtz', properties = ['dipole'])
--------------------------------------------------------------------------

    Molecular point group: c1
  Charge       = 0
  Multiplicity = 1
  Basis Set: AUG-CC-PVTZ
    Blend: AUG-CC-PVTZ
  Basis Set: (AUG-CC-PVTZ AUX)
    Blend: AUG-CC-PVTZ-JKFIT

    Orbital Energies [Eh]
    ---------------------

    Doubly Occupied:

       1A    -15.632538     2A    -15.631219     3A    -11.269915
       4A    -11.269411     5A    -11.245513     6A    -11.245156
       7A    -11.243927     8A    -11.243573     9A    -11.243399
      10A    -11.243235    11A    -11.242294    12A    -11.242184
      13A    -11.241974    14A    -11.240976    15A     -1.355060
      16A     -1.172824    17A     -1.150364    18A     -1.073086
      19A     -1.024240    20A     -1.022982    21A     -1.007428
      22A     -0.924076    23A     -0.843621    24A     -0.840063
      25A     -0.817778    26A     -0.775958    27A     -0.716801
      28A     -0.699548    29A     -0.666915    30A     -0.659261
      31A     -0.631679    32A     -0.618037    33A     -0.601128
      34A     -0.596768    35A     -0.594146    36A     -0.578722
      37A     -0.572989    38A     -0.520709    39A     -0.518158
      40A     -0.515881    41A     -0.501708    42A     -0.498236
      43A     -0.476700    44A     -0.401987    45A     -0.362481
      46A     -0.344222    47A     -0.343506    48A     -0.304595

  @DF-RHF Final Energy:  -569.27833967006984

   => Energetics <=

    Nuclear Repulsion Energy =            749.2626116928597639
    One-Electron Energy =               -2257.1479555186670041
    Two-Electron Energy =                 938.6070041557373997
    Total Energy =                       -569.2783396700698404
  Basis Set: (AUG-CC-PVTZ AUX)
    Blend: AUG-CC-PVTZ-RI
    Molecular point group: c1

    Geometry (in Angstrom), charge = 0, multiplicity = 1:

       Center              X                  Y                   Z               Mass
    ------------   -----------------  -----------------  -----------------  -----------------
         N           -0.382066126857    -0.512570539135     0.000009055751    14.003074004430
         N            0.384631873143     0.511963460865    -0.000010944249    14.003074004430
         C           -1.785400226857    -0.181651239135     0.000004955751    12.000000000000
         C            1.768499873143     0.185635460865    -0.000003944249    12.000000000000
         C           -2.628181126857    -1.289159539135    -0.000008944249    12.000000000000
         C            2.283256873143    -1.120611539135     0.000006055751    12.000000000000
         C           -2.280690126857     1.120005460865     0.000015055751    12.000000000000
         C            2.630744873143     1.288554460865    -0.000014944249    12.000000000000
         C           -4.008813126857    -1.093248539135    -0.000012944249    12.000000000000
         C            3.662448873143    -1.305188539135     0.000012055751    12.000000000000
         C           -3.659881126857     1.304584460865     0.000013055751    12.000000000000
         C            4.011377873143     1.092644460865    -0.000007944249    12.000000000000
         C           -4.526430126857     0.203840460865    -0.000003944249    12.000000000000
         C            4.528995873143    -0.204443539135     0.000003055751    12.000000000000
         H           -2.192451126857    -2.285085539135    -0.000013944249     1.007825032230
         H            1.596070873143    -1.960918539135     0.000013055751     1.007825032230
         H           -1.593504126857     1.960313460865     0.000030055751     1.007825032230
         H            2.195015873143     2.284480460865    -0.000024944249     1.007825032230
         H           -4.679210126857    -1.949119539135    -0.000024944249     1.007825032230
         H            4.070310873143    -2.313366539135     0.000018055751     1.007825032230
         H           -4.067743126857     2.312762460865     0.000021055751     1.007825032230
         H            4.681774873143     1.948516460865    -0.000014944249     1.007825032230
         H           -5.602465126857     0.360666460865    -0.000004944249     1.007825032230
         H            5.605031873143    -0.361266539135     0.000009055751     1.007825032230

  Basis Set: AUG-CC-PVTZ
    Blend: AUG-CC-PVTZ
  Basis Set: (AUG-CC-PVTZ AUX)
    Blend: AUG-CC-PVTZ-JKFIT
	 Reference Energy          =    -569.2783396700698404 [Eh]
	 Singles Energy            =      -0.0000000000000000 [Eh]
	 Same-Spin Energy          =      -0.6326790505615818 [Eh]
	 Opposite-Spin Energy      =      -1.9416967445553439 [Eh]
	 Correlation Energy        =      -2.5743757951169259 [Eh]
	 Total Energy              =    -571.8527154651867477 [Eh]

	 ================> DF-SCS-MP2 Energies <==================
	-----------------------------------------------------------
	 SCS Same-Spin Scale       =       0.3333333333333333 [-]
	 SCS Opposite-Spin Scale   =       1.2000000000000000 [-]
	 SCS Same-Spin Energy      =      -0.2108930168538606 [Eh]
	 SCS Opposite-Spin Energy  =      -2.3300360934664126 [Eh]
	 SCS Correlation Energy    =      -2.5409291103202731 [Eh]
	 SCS Total Energy          =    -571.8192687803900753 [Eh]
	-----------------------------------------------------------

  Dipole Moment: [D]
     X:     0.0193      Y:    -0.0001      Z:     0.0000     Total:     0.0193

*** Psi4 exiting successfully. Buy a developer a beer!
