                               Psi4 1.3.2 release

  ==> Input File <==

--------------------------------------------------------------------------
#psi4
#
memory 32 gb

molecule  {
0 1
  N        0.3568290    -0.3660955    -0.0001062
  N       -0.3832800     0.5120360    -0.0003650
  C        1.7672300    -0.1861950    -0.0000230
  C       -1.7671580     0.1858050    -0.0001250
  C        2.6296550    -1.2889660    -0.0004100
  C       -2.2820560    -1.1203900     0.0004250
  C        2.2817410     1.1201620     0.0004430
  C       -2.6293090     1.2888360    -0.0004050
  C        4.0102370    -1.0927240    -0.0003780
  C       -3.6612700    -1.3047800     0.0004470
  C        3.6608930     1.3050510     0.0005180
  C       -4.0099580     1.0931000    -0.0003430
  C        4.5276310     0.2044750     0.0001450
  C       -4.5277070    -0.2039390     0.0001440
  H        2.1941740    -2.2850020    -0.0008280
  H       -1.5949460    -1.9607630     0.0007310
  H        1.5942790     1.9602490     0.0007180
  H       -2.1933450     2.2846620    -0.0007500
  H        4.6808280    -1.9484460    -0.0006320
  H       -4.0692680    -2.3129040     0.0009720
  H        4.0684950     2.3133330     0.0008240
  H       -4.6802440     1.9490580    -0.0004760
  H        5.6036530     0.3614050     0.0000240
  H       -5.6037540    -0.3606960     0.0002220
units angstrom
no_reorient  #important for SAPT in psi4, default
symmetry c1  #important for SAPT in psi4, default
}

set PROPERTIES_ORIGIN ["COM"]
properties('MP2/aug-cc-pvtz', properties = ['dipole'])
--------------------------------------------------------------------------

    Molecular point group: c1
  Charge       = 0
  Multiplicity = 1
  Basis Set: AUG-CC-PVTZ
    Blend: AUG-CC-PVTZ
  Basis Set: (AUG-CC-PVTZ AUX)
    Blend: AUG-CC-PVTZ-JKFIT

    Orbital Energies [Eh]
    ---------------------

    Doubly Occupied:

       1A    -15.614071     2A    -15.609112     3A    -11.270691
       4A    -11.266244     5A    -11.248342     6A    -11.247020
       7A    -11.244621     8A    -11.244056     9A    -11.242989
      10A    -11.242357    11A    -11.241932    12A    -11.241017
      13A    -11.240973    14A    -11.240717    15A     -1.428696
      16A     -1.171396    17A     -1.152683    18A     -1.072413
      19A     -1.024129    20A     -1.022092    21A     -1.014476
      22A     -0.920215    23A     -0.846571    24A     -0.841375
      25A     -0.823908    26A     -0.772794    27A     -0.728888
      28A     -0.699909    29A     -0.672998    30A     -0.669236
      31A     -0.630667    32A     -0.617999    33A     -0.607582
      34A     -0.606322    35A     -0.599211    36A     -0.593208
      37A     -0.582277    38A     -0.523451    39A     -0.521208
      40A     -0.514582    41A     -0.502132    42A     -0.496896
      43A     -0.487664    44A     -0.360849    45A     -0.360621
      46A     -0.344548    47A     -0.342163    48A     -0.313553

  @DF-RHF Final Energy:  -569.27421880964550

   => Energetics <=

    Nuclear Repulsion Energy =            752.1009893187542730
    One-Electron Energy =               -2262.6287084576697453
    Two-Electron Energy =                 941.2535003292699685
    Total Energy =                       -569.2742188096455038
  Basis Set: (AUG-CC-PVTZ AUX)
    Blend: AUG-CC-PVTZ-RI
    Molecular point group: c1

    Geometry (in Angstrom), charge = 0, multiplicity = 1:

       Center              X                  Y                   Z               Mass
    ------------   -----------------  -----------------  -----------------  -----------------
         N            0.358868583377    -0.377352579968    -0.000103284048    14.003074004430
         N           -0.381240416623     0.500778920032    -0.000362084048    14.003074004430
         C            1.769269583377    -0.197452079968    -0.000020084048    12.000000000000
         C           -1.765118416623     0.174547920032    -0.000122084048    12.000000000000
         C            2.631694583377    -1.300223079968    -0.000407084048    12.000000000000
         C           -2.280016416623    -1.131647079968     0.000427915952    12.000000000000
         C            2.283780583377     1.108904920032     0.000445915952    12.000000000000
         C           -2.627269416623     1.277578920032    -0.000402084048    12.000000000000
         C            4.012276583377    -1.103981079968    -0.000375084048    12.000000000000
         C           -3.659230416623    -1.316037079968     0.000449915952    12.000000000000
         C            3.662932583377     1.293793920032     0.000520915952    12.000000000000
         C           -4.007918416623     1.081842920032    -0.000340084048    12.000000000000
         C            4.529670583377     0.193217920032     0.000147915952    12.000000000000
         C           -4.525667416623    -0.215196079968     0.000146915952    12.000000000000
         H            2.196213583377    -2.296259079968    -0.000825084048     1.007825032230
         H           -1.592906416623    -1.972020079968     0.000733915952     1.007825032230
         H            1.596318583377     1.948991920032     0.000720915952     1.007825032230
         H           -2.191305416623     2.273404920032    -0.000747084048     1.007825032230
         H            4.682867583377    -1.959703079968    -0.000629084048     1.007825032230
         H           -4.067228416623    -2.324161079968     0.000974915952     1.007825032230
         H            4.070534583377     2.302075920032     0.000826915952     1.007825032230
         H           -4.678204416623     1.937800920032    -0.000473084048     1.007825032230
         H            5.605692583377     0.350147920032     0.000026915952     1.007825032230
         H           -5.601714416623    -0.371953079968     0.000224915952     1.007825032230

  Basis Set: AUG-CC-PVTZ
    Blend: AUG-CC-PVTZ
  Basis Set: (AUG-CC-PVTZ AUX)
    Blend: AUG-CC-PVTZ-JKFIT
	 Reference Energy          =    -569.2742188096455038 [Eh]
	 Singles Energy            =      -0.0000000000000000 [Eh]
	 Same-Spin Energy          =      -0.6280547471755679 [Eh]
	 Opposite-Spin Energy      =      -1.9304436314342983 [Eh]
	 Correlation Energy        =      -2.5584983786098663 [Eh]
	 Total Energy              =    -571.8327171882554012 [Eh]

	 ================> DF-SCS-MP2 Energies <==================
	-----------------------------------------------------------
	 SCS Same-Spin Scale       =       0.3333333333333333 [-]
	 SCS Opposite-Spin Scale   =       1.2000000000000000 [-]
	 SCS Same-Spin Energy      =      -0.2093515823918559 [Eh]
	 SCS Opposite-Spin Energy  =      -2.3165323577211581 [Eh]
	 SCS Correlation Energy    =      -2.5258839401130140 [Eh]
	 SCS Total Energy          =    -571.8001027497584801 [Eh]
	-----------------------------------------------------------

  Dipole Moment: [D]
     X:     0.2020      Y:    -0.1037      Z:     0.0004     Total:     0.2271

*** Psi4 exiting successfully. Buy a developer a beer!
