                               Psi4 1.3.2 release

  ==> Input File <==

--------------------------------------------------------------------------
#psi4
#
memory 32 gb

molecule  {
0 1
  N        0.3955922    -0.5606346    -0.0001297
  N       -0.3832800     0.5120360    -0.0003650
  C        1.7672300    -0.1861950    -0.0000230
  C       -1.7671580     0.1858050    -0.0001250
  C        2.6296550    -1.2889660    -0.0004100
  C       -2.2820560    -1.1203900     0.0004250
  C        2.2817410     1.1201620     0.0004430
  C       -2.6293090     1.2888360    -0.0004050
  C        4.0102370    -1.0927240    -0.0003780
  C       -3.6612700    -1.3047800     0.0004470
  C        3.6608930     1.3050510     0.0005180
  C       -4.0099580     1.0931000    -0.0003430
  C        4.5276310     0.2044750     0.0001450
  C       -4.5277070    -0.2039390     0.0001440
  H        2.1941740    -2.2850020    -0.0008280
  H       -1.5949460    -1.9607630     0.0007310
  H        1.5942790     1.9602490     0.0007180
  H       -2.1933450     2.2846620    -0.0007500
  H        4.6808280    -1.9484460    -0.0006320
  H       -4.0692680    -2.3129040     0.0009720
  H        4.0684950     2.3133330     0.0008240
  H       -4.6802440     1.9490580    -0.0004760
  H        5.6036530     0.3614050     0.0000240
  H       -5.6037540    -0.3606960     0.0002220
units angstrom
no_reorient  #important for SAPT in psi4, default
symmetry c1  #important for SAPT in psi4, default
}

set PROPERTIES_ORIGIN ["COM"]
properties('MP2/aug-cc-pvtz', properties = ['dipole'])
--------------------------------------------------------------------------

    Molecular point group: c1
  Charge       = 0
  Multiplicity = 1
  Basis Set: AUG-CC-PVTZ
    Blend: AUG-CC-PVTZ
  Basis Set: (AUG-CC-PVTZ AUX)
    Blend: AUG-CC-PVTZ-JKFIT

    Orbital Energies [Eh]
    ---------------------

    Doubly Occupied:

       1A    -15.638435     2A    -15.636834     3A    -11.271044
       4A    -11.270208     5A    -11.246296     6A    -11.245261
       7A    -11.244813     8A    -11.244009     9A    -11.243732
      10A    -11.242966    11A    -11.242849    12A    -11.242596
      13A    -11.242425    14A    -11.241585    15A     -1.336972
      16A     -1.173163    17A     -1.148168    18A     -1.076731
      19A     -1.023627    20A     -1.022763    21A     -1.004017
      22A     -0.927906    23A     -0.843347    24A     -0.839357
      25A     -0.815579    26A     -0.777045    27A     -0.713594
      28A     -0.699789    29A     -0.666347    30A     -0.657916
      31A     -0.631695    32A     -0.618005    33A     -0.599797
      34A     -0.593899    35A     -0.592409    36A     -0.578297
      37A     -0.566865    38A     -0.520554    39A     -0.517780
      40A     -0.515510    41A     -0.500653    42A     -0.497421
      43A     -0.472241    44A     -0.413666    45A     -0.363840
      46A     -0.344385    47A     -0.343448    48A     -0.298586

  @DF-RHF Final Energy:  -569.26757611036624

   => Energetics <=

    Nuclear Repulsion Energy =            748.4110645218262334
    One-Electron Energy =               -2255.4604351125276480
    Two-Electron Energy =                 937.7817944803352930
    Total Energy =                       -569.2675761103662353
  Basis Set: (AUG-CC-PVTZ AUX)
    Blend: AUG-CC-PVTZ-RI
    Molecular point group: c1

    Geometry (in Angstrom), charge = 0, multiplicity = 1:

       Center              X                  Y                   Z               Mass
    ------------   -----------------  -----------------  -----------------  -----------------
         N            0.394650726443    -0.556930785795    -0.000124976797    14.003074004430
         N           -0.384221473557     0.515739814205    -0.000360276797    14.003074004430
         C            1.766288526443    -0.182491185795    -0.000018276797    12.000000000000
         C           -1.768099473557     0.189508814205    -0.000120276797    12.000000000000
         C            2.628713526443    -1.285262185795    -0.000405276797    12.000000000000
         C           -2.282997473557    -1.116686185795     0.000429723203    12.000000000000
         C            2.280799526443     1.123865814205     0.000447723203    12.000000000000
         C           -2.630250473557     1.292539814205    -0.000400276797    12.000000000000
         C            4.009295526443    -1.089020185795    -0.000373276797    12.000000000000
         C           -3.662211473557    -1.301076185795     0.000451723203    12.000000000000
         C            3.659951526443     1.308754814205     0.000522723203    12.000000000000
         C           -4.010899473557     1.096803814205    -0.000338276797    12.000000000000
         C            4.526689526443     0.208178814205     0.000149723203    12.000000000000
         C           -4.528648473557    -0.200235185795     0.000148723203    12.000000000000
         H            2.193232526443    -2.281298185795    -0.000823276797     1.007825032230
         H           -1.595887473557    -1.957059185795     0.000735723203     1.007825032230
         H            1.593337526443     1.963952814205     0.000722723203     1.007825032230
         H           -2.194286473557     2.288365814205    -0.000745276797     1.007825032230
         H            4.679886526443    -1.944742185795    -0.000627276797     1.007825032230
         H           -4.070209473557    -2.309200185795     0.000976723203     1.007825032230
         H            4.067553526443     2.317036814205     0.000828723203     1.007825032230
         H           -4.681185473557     1.952761814205    -0.000471276797     1.007825032230
         H            5.602711526443     0.365108814205     0.000028723203     1.007825032230
         H           -5.604695473557    -0.356992185795     0.000226723203     1.007825032230

  Basis Set: AUG-CC-PVTZ
    Blend: AUG-CC-PVTZ
  Basis Set: (AUG-CC-PVTZ AUX)
    Blend: AUG-CC-PVTZ-JKFIT
	 Reference Energy          =    -569.2675761103662353 [Eh]
	 Singles Energy            =      -0.0000000000000000 [Eh]
	 Same-Spin Energy          =      -0.6352040259527947 [Eh]
	 Opposite-Spin Energy      =      -1.9468734599510431 [Eh]
	 Correlation Energy        =      -2.5820774859038380 [Eh]
	 Total Energy              =    -571.8496535962700591 [Eh]

	 ================> DF-SCS-MP2 Energies <==================
	-----------------------------------------------------------
	 SCS Same-Spin Scale       =       0.3333333333333333 [-]
	 SCS Opposite-Spin Scale   =       1.2000000000000000 [-]
	 SCS Same-Spin Energy      =      -0.2117346753175982 [Eh]
	 SCS Opposite-Spin Energy  =      -2.3362481519412515 [Eh]
	 SCS Correlation Energy    =      -2.5479828272588496 [Eh]
	 SCS Total Energy          =    -571.8155589376250418 [Eh]
	-----------------------------------------------------------

  Dipole Moment: [D]
     X:    -0.0525      Y:     0.0274      Z:     0.0004     Total:     0.0592

*** Psi4 exiting successfully. Buy a developer a beer!
