                               Psi4 1.3.2 release

  ==> Input File <==

--------------------------------------------------------------------------
#psi4
#
memory 32 gb

molecule  {
0 1
  N        0.3833600    -0.5125370    -0.0001240
  N       -0.4431904     0.5921031    -0.0003838
  C        1.7672300    -0.1861950    -0.0000230
  C       -1.7671580     0.1858050    -0.0001250
  C        2.6296550    -1.2889660    -0.0004100
  C       -2.2820560    -1.1203900     0.0004250
  C        2.2817410     1.1201620     0.0004430
  C       -2.6293090     1.2888360    -0.0004050
  C        4.0102370    -1.0927240    -0.0003780
  C       -3.6612700    -1.3047800     0.0004470
  C        3.6608930     1.3050510     0.0005180
  C       -4.0099580     1.0931000    -0.0003430
  C        4.5276310     0.2044750     0.0001450
  C       -4.5277070    -0.2039390     0.0001440
  H        2.1941740    -2.2850020    -0.0008280
  H       -1.5949460    -1.9607630     0.0007310
  H        1.5942790     1.9602490     0.0007180
  H       -2.1933450     2.2846620    -0.0007500
  H        4.6808280    -1.9484460    -0.0006320
  H       -4.0692680    -2.3129040     0.0009720
  H        4.0684950     2.3133330     0.0008240
  H       -4.6802440     1.9490580    -0.0004760
  H        5.6036530     0.3614050     0.0000240
  H       -5.6037540    -0.3606960     0.0002220
units angstrom
no_reorient  #important for SAPT in psi4, default
symmetry c1  #important for SAPT in psi4, default
}

set PROPERTIES_ORIGIN ["COM"]
properties('MP2/aug-cc-pvtz', properties = ['dipole'])
--------------------------------------------------------------------------

    Molecular point group: c1
  Charge       = 0
  Multiplicity = 1
  Basis Set: AUG-CC-PVTZ
    Blend: AUG-CC-PVTZ
  Basis Set: (AUG-CC-PVTZ AUX)
    Blend: AUG-CC-PVTZ-JKFIT

    Orbital Energies [Eh]
    ---------------------

    Doubly Occupied:

       1A    -15.640630     2A    -15.639168     3A    -11.272266
       4A    -11.267892     5A    -11.246782     6A    -11.246020
       7A    -11.245411     8A    -11.244261     9A    -11.244231
      10A    -11.243325    11A    -11.242952    12A    -11.242901
      13A    -11.242499    14A    -11.241252    15A     -1.317134
      16A     -1.176402    17A     -1.146436    18A     -1.082831
      19A     -1.023887    20A     -1.023132    21A     -1.000979
      22A     -0.932265    23A     -0.844219    24A     -0.839228
      25A     -0.814270    26A     -0.777900    27A     -0.711701
      28A     -0.698816    29A     -0.666540    30A     -0.656219
      31A     -0.632618    32A     -0.618257    33A     -0.599773
      34A     -0.594161    35A     -0.588728    36A     -0.575578
      37A     -0.561677    38A     -0.520037    39A     -0.517299
      40A     -0.516542    41A     -0.501984    42A     -0.497218
      43A     -0.466686    44A     -0.418305    45A     -0.366795
      46A     -0.344732    47A     -0.343740    48A     -0.290877

  @DF-RHF Final Energy:  -569.25130213836303

   => Energetics <=

    Nuclear Repulsion Energy =            747.9196024598073791
    One-Electron Energy =               -2254.4886860717469972
    Two-Electron Energy =                 937.3177814735767015
    Total Energy =                       -569.2513021383630303
  Basis Set: (AUG-CC-PVTZ AUX)
    Blend: AUG-CC-PVTZ-RI
    Molecular point group: c1

    Geometry (in Angstrom), charge = 0, multiplicity = 1:

       Center              X                  Y                   Z               Mass
    ------------   -----------------  -----------------  -----------------  -----------------
         N            0.387966602917    -0.518689602903    -0.000118269351    14.003074004430
         N           -0.438583797083     0.585950497097    -0.000378069351    14.003074004430
         C            1.771836602917    -0.192347602903    -0.000017269351    12.000000000000
         C           -1.762551397083     0.179652397097    -0.000119269351    12.000000000000
         C            2.634261602917    -1.295118602903    -0.000404269351    12.000000000000
         C           -2.277449397083    -1.126542602903     0.000430730649    12.000000000000
         C            2.286347602917     1.114009397097     0.000448730649    12.000000000000
         C           -2.624702397083     1.282683397097    -0.000399269351    12.000000000000
         C            4.014843602917    -1.098876602903    -0.000372269351    12.000000000000
         C           -3.656663397083    -1.310932602903     0.000452730649    12.000000000000
         C            3.665499602917     1.298898397097     0.000523730649    12.000000000000
         C           -4.005351397083     1.086947397097    -0.000337269351    12.000000000000
         C            4.532237602917     0.198322397097     0.000150730649    12.000000000000
         C           -4.523100397083    -0.210091602903     0.000149730649    12.000000000000
         H            2.198780602917    -2.291154602903    -0.000822269351     1.007825032230
         H           -1.590339397083    -1.966915602903     0.000736730649     1.007825032230
         H            1.598885602917     1.954096397097     0.000723730649     1.007825032230
         H           -2.188738397083     2.278509397097    -0.000744269351     1.007825032230
         H            4.685434602917    -1.954598602903    -0.000626269351     1.007825032230
         H           -4.064661397083    -2.319056602903     0.000977730649     1.007825032230
         H            4.073101602917     2.307180397097     0.000829730649     1.007825032230
         H           -4.675637397083     1.942905397097    -0.000470269351     1.007825032230
         H            5.608259602917     0.355252397097     0.000029730649     1.007825032230
         H           -5.599147397083    -0.366848602903     0.000227730649     1.007825032230

  Basis Set: AUG-CC-PVTZ
    Blend: AUG-CC-PVTZ
  Basis Set: (AUG-CC-PVTZ AUX)
    Blend: AUG-CC-PVTZ-JKFIT
	 Reference Energy          =    -569.2513021383630303 [Eh]
	 Singles Energy            =      -0.0000000000000000 [Eh]
	 Same-Spin Energy          =      -0.6383952665814916 [Eh]
	 Opposite-Spin Energy      =      -1.9527024059802707 [Eh]
	 Correlation Energy        =      -2.5910976725617623 [Eh]
	 Total Energy              =    -571.8423998109248032 [Eh]

	 ================> DF-SCS-MP2 Energies <==================
	-----------------------------------------------------------
	 SCS Same-Spin Scale       =       0.3333333333333333 [-]
	 SCS Opposite-Spin Scale   =       1.2000000000000000 [-]
	 SCS Same-Spin Energy      =      -0.2127984221938305 [Eh]
	 SCS Opposite-Spin Energy  =      -2.3432428871763249 [Eh]
	 SCS Correlation Energy    =      -2.5560413093701553 [Eh]
	 SCS Total Energy          =    -571.8073434477331602 [Eh]
	-----------------------------------------------------------

  Dipole Moment: [D]
     X:    -0.0123      Y:    -0.0433      Z:     0.0005     Total:     0.0450

*** Psi4 exiting successfully. Buy a developer a beer!
