                               Psi4 1.4a3.dev225

  ==> Input File <==

--------------------------------------------------------------------------
#psi4
#
memory 32 gb

molecule  {
0 1
  N       -0.3833490    -0.5122680     0.0000090
  N        0.3713660     0.4962532    -0.0000107
  C       -1.7672170    -0.1859390     0.0000050
  C        1.7672170     0.1859380    -0.0000040
  C       -2.6294640    -1.2888570    -0.0000090
  C        2.2819740    -1.1203090     0.0000060
  C       -2.2819730     1.1203080     0.0000150
  C        2.6294620     1.2888570    -0.0000150
  C       -4.0100960    -1.0929460    -0.0000130
  C        3.6611660    -1.3048860     0.0000120
  C       -3.6611640     1.3048870     0.0000130
  C        4.0100950     1.0929470    -0.0000080
  C       -4.5277130     0.2041430    -0.0000040
  C        4.5277130    -0.2041410     0.0000030
  H       -2.1937340    -2.2847830    -0.0000140
  H        1.5947880    -1.9606160     0.0000130
  H       -1.5947870     1.9606160     0.0000300
  H        2.1937330     2.2847830    -0.0000250
  H       -4.6804930    -1.9488170    -0.0000250
  H        4.0690280    -2.3130640     0.0000180
  H       -4.0690260     2.3130650     0.0000210
  H        4.6804920     1.9488190    -0.0000150
  H       -5.6037480     0.3609690    -0.0000050
  H        5.6037490    -0.3609640     0.0000090
units angstrom
no_reorient  #important for SAPT in psi4, default
symmetry c1  #important for SAPT in psi4, default
}

set PROPERTIES_ORIGIN ["COM"]
properties('MP2/aug-cc-pvtz', properties = ['dipole'])
--------------------------------------------------------------------------

    Molecular point group: c1
  Charge       = 0
  Multiplicity = 1
  Basis Set: AUG-CC-PVTZ
    Blend: AUG-CC-PVTZ
  Basis Set: (AUG-CC-PVTZ AUX)
    Blend: AUG-CC-PVTZ-JKFIT

    Orbital Energies [Eh]
    ---------------------

    Doubly Occupied:

       1A    -15.630302     2A    -15.629027     3A    -11.270508
       4A    -11.269497     5A    -11.245643     6A    -11.245389
       7A    -11.244448     8A    -11.243746     9A    -11.243465
      10A    -11.243347    11A    -11.242655    12A    -11.242187
      13A    -11.241996    14A    -11.241923    15A     -1.367371
      16A     -1.171829    17A     -1.150004    18A     -1.073837
      19A     -1.023241    20A     -1.022824    21A     -1.007822
      22A     -0.924338    23A     -0.843610    24A     -0.839914
      25A     -0.818331    26A     -0.775478    27A     -0.718226
      28A     -0.699833    29A     -0.668434    30A     -0.661349
      31A     -0.631096    32A     -0.617826    33A     -0.599628
      34A     -0.598667    35A     -0.593677    36A     -0.579716
      37A     -0.577989    38A     -0.521317    39A     -0.519325
      40A     -0.514974    41A     -0.499703    42A     -0.498559
      43A     -0.478595    44A     -0.399044    45A     -0.362156
      46A     -0.343945    47A     -0.343376    48A     -0.304935

  @DF-RHF Final Energy:  -569.28152457309568

   => Energetics <=

    Nuclear Repulsion Energy =            749.5937942702090595
    One-Electron Energy =               -2257.7804322168262843
    Two-Electron Energy =                 938.9051133735216581
    Total Energy =                       -569.2815245730956804
  Basis Set: (AUG-CC-PVTZ AUX)
    Blend: AUG-CC-PVTZ-RI
    Molecular point group: c1

    Geometry (in Angstrom), charge = 0, multiplicity = 1:

       Center              X                  Y                   Z               Mass
    ------------   -----------------  -----------------  -----------------  -----------------
         N           -0.382427466790    -0.511036569032     0.000009026089    14.003074004430
         N            0.372287533210     0.497484630968    -0.000010673911    14.003074004430
         C           -1.766295466790    -0.184707569032     0.000005026089    12.000000000000
         C            1.768138533210     0.187169430968    -0.000003973911    12.000000000000
         C           -2.628542466790    -1.287625569032    -0.000008973911    12.000000000000
         C            2.282895533210    -1.119077569032     0.000006026089    12.000000000000
         C           -2.281051466790     1.121539430968     0.000015026089    12.000000000000
         C            2.630383533210     1.290088430968    -0.000014973911    12.000000000000
         C           -4.009174466790    -1.091714569032    -0.000012973911    12.000000000000
         C            3.662087533210    -1.303654569032     0.000012026089    12.000000000000
         C           -3.660242466790     1.306118430968     0.000013026089    12.000000000000
         C            4.011016533210     1.094178430968    -0.000007973911    12.000000000000
         C           -4.526791466790     0.205374430968    -0.000003973911    12.000000000000
         C            4.528634533210    -0.202909569032     0.000003026089    12.000000000000
         H           -2.192812466790    -2.283551569032    -0.000013973911     1.007825032230
         H            1.595709533210    -1.959384569032     0.000013026089     1.007825032230
         H           -1.593865466790     1.961847430968     0.000030026089     1.007825032230
         H            2.194654533210     2.286014430968    -0.000024973911     1.007825032230
         H           -4.679571466790    -1.947585569032    -0.000024973911     1.007825032230
         H            4.069949533210    -2.311832569032     0.000018026089     1.007825032230
         H           -4.068104466790     2.314296430968     0.000021026089     1.007825032230
         H            4.681413533210     1.950050430968    -0.000014973911     1.007825032230
         H           -5.602826466790     0.362200430968    -0.000004973911     1.007825032230
         H            5.604670533210    -0.359732569032     0.000009026089     1.007825032230

  Basis Set: AUG-CC-PVTZ
    Blend: AUG-CC-PVTZ
  Basis Set: (AUG-CC-PVTZ AUX)
    Blend: AUG-CC-PVTZ-JKFIT
	 Reference Energy          =    -569.2815245730956804 [Eh]
	 Singles Energy            =      -0.0000000000000000 [Eh]
	 Same-Spin Energy          =      -0.6319134488698323 [Eh]
	 Opposite-Spin Energy      =      -1.9398948344452509 [Eh]
	 Correlation Energy        =      -2.5718082833150833 [Eh]
	 Total Energy              =    -571.8533328564108160 [Eh]

	 ================> DF-SCS-MP2 Energies <==================
	-----------------------------------------------------------
	 SCS Same-Spin Scale       =       0.3333333333333333 [-]
	 SCS Opposite-Spin Scale   =       1.2000000000000000 [-]
	 SCS Same-Spin Energy      =      -0.2106378162899441 [Eh]
	 SCS Opposite-Spin Energy  =      -2.3278738013343010 [Eh]
	 SCS Correlation Energy    =      -2.5385116176242453 [Eh]
	 SCS Total Energy          =    -571.8200361907199749 [Eh]
	-----------------------------------------------------------

  Dipole Moment: [D]
     X:     0.0065      Y:     0.0095      Z:     0.0000     Total:     0.0115

*** Psi4 exiting successfully. Buy a developer a beer!
