                               Psi4 1.3.2 release

  ==> Input File <==

--------------------------------------------------------------------------
#psi4
#
memory 32 gb

molecule  {
0 1
  O       -1.1540860    -0.8257380    -1.1262130
  O        2.2598080    -0.8403330    -0.7659410
  C        0.4122950     0.2355920     0.3463500
  C        0.8678900     1.5298080    -0.3436410
  C       -0.9920820    -0.1169500    -0.1343550
  C        1.3451220    -0.9372140     0.0454070
  C       -2.1570465     0.3870592     0.6970052
  C        2.1205030     2.1275510     0.2909850
  C        1.0642330    -2.2268080     0.7816390
  C       -3.4959710     0.2572470    -0.0522250
  H        0.3847180     0.3911920     1.4358330
  H        1.0510700     1.2964920    -1.3965080
  H        0.0539330     2.2643490    -0.3080990
  H       -1.9574920     1.5325250     0.8155200
  H       -2.1465810     0.0009680     1.6335740
  H        2.9579070     1.4317780     0.2172300
  H        2.4041530     3.0539960    -0.2168530
  H        1.9503170     2.3628610     1.3467280
  H       -3.6866900    -0.8062480    -0.2063170
  H       -3.5045250     0.7387230    -1.0324830
  H       -4.3076550     0.6763420     0.5479980
  H        0.9449730    -2.0486830     1.8550460
  H        1.8828740    -2.9264540     0.6079930
  H        0.1338470    -2.6618440     0.4039710
units angstrom
no_reorient  #important for SAPT in psi4, default
symmetry c1  #important for SAPT in psi4, default
}

set PROPERTIES_ORIGIN ["COM"]
properties('MP2/aug-cc-pvtz', properties = ['dipole'])
--------------------------------------------------------------------------

    Molecular point group: c1
  Charge       = 0
  Multiplicity = 1
  Basis Set: AUG-CC-PVTZ
    Blend: AUG-CC-PVTZ
  Basis Set: (AUG-CC-PVTZ AUX)
    Blend: AUG-CC-PVTZ-JKFIT

    Orbital Energies [Eh]
    ---------------------

    Doubly Occupied:

       1A    -20.558727     2A    -20.549047     3A    -11.346546
       4A    -11.338599     5A    -11.258385     6A    -11.252727
       7A    -11.236921     8A    -11.236088     9A    -11.227269
      10A    -11.217541    11A     -1.392685    12A     -1.378823
      13A     -1.107262    14A     -1.059226    15A     -1.022622
      16A     -0.969205    17A     -0.895621    18A     -0.837110
      19A     -0.772757    20A     -0.724139    21A     -0.685509
      22A     -0.672623    23A     -0.643500    24A     -0.628636
      25A     -0.620572    26A     -0.599248    27A     -0.591888
      28A     -0.568414    29A     -0.556197    30A     -0.541940
      31A     -0.533704    32A     -0.524285    33A     -0.507859
      34A     -0.506837    35A     -0.489481    36A     -0.484299
      37A     -0.479273    38A     -0.426851    39A     -0.407459

  @DF-RHF Final Energy:  -460.98157862197070

   => Energetics <=

    Nuclear Repulsion Energy =            550.9184750925734306
    One-Electron Energy =               -1720.1003589419653963
    Two-Electron Energy =                 708.2003052274211541
    Total Energy =                       -460.9815786219706979
  Basis Set: (AUG-CC-PVTZ AUX)
    Blend: AUG-CC-PVTZ-RI
    Molecular point group: c1

    Geometry (in Angstrom), charge = 0, multiplicity = 1:

       Center              X                  Y                   Z               Mass
    ------------   -----------------  -----------------  -----------------  -----------------
         O           -1.180800110300    -0.781925532900    -1.091430334687    15.994914619570
         O            2.233093889700    -0.796520532900    -0.731158334687    15.994914619570
         C            0.385580889700     0.279404467100     0.381132665313    12.000000000000
         C            0.841175889700     1.573620467100    -0.308858334687    12.000000000000
         C           -1.018796110300    -0.073137532900    -0.099572334687    12.000000000000
         C            1.318407889700    -0.893401532900     0.080189665313    12.000000000000
         C           -2.183760610300     0.430871667100     0.731787865313    12.000000000000
         C            2.093788889700     2.171363467100     0.325767665313    12.000000000000
         C            1.037518889700    -2.182995532900     0.816421665313    12.000000000000
         C           -3.522685110300     0.301059467100    -0.017442334687    12.000000000000
         H            0.358003889700     0.435004467100     1.470615665313     1.007825032230
         H            1.024355889700     1.340304467100    -1.361725334687     1.007825032230
         H            0.027218889700     2.308161467100    -0.273316334687     1.007825032230
         H           -1.984206110300     1.576337467100     0.850302665313     1.007825032230
         H           -2.173295110300     0.044780467100     1.668356665313     1.007825032230
         H            2.931192889700     1.475590467100     0.252012665313     1.007825032230
         H            2.377438889700     3.097808467100    -0.182070334687     1.007825032230
         H            1.923602889700     2.406673467100     1.381510665313     1.007825032230
         H           -3.713404110300    -0.762435532900    -0.171534334687     1.007825032230
         H           -3.531239110300     0.782535467100    -0.997700334687     1.007825032230
         H           -4.334369110300     0.720154467100     0.582780665313     1.007825032230
         H            0.918258889700    -2.004870532900     1.889828665313     1.007825032230
         H            1.856159889700    -2.882641532900     0.642775665313     1.007825032230
         H            0.107132889700    -2.618031532900     0.438753665313     1.007825032230

  Basis Set: AUG-CC-PVTZ
    Blend: AUG-CC-PVTZ
  Basis Set: (AUG-CC-PVTZ AUX)
    Blend: AUG-CC-PVTZ-JKFIT
	 Reference Energy          =    -460.9815786219706979 [Eh]
	 Singles Energy            =      -0.0000000000000000 [Eh]
	 Same-Spin Energy          =      -0.4688369089526308 [Eh]
	 Opposite-Spin Energy      =      -1.5691565649043930 [Eh]
	 Correlation Energy        =      -2.0379934738570240 [Eh]
	 Total Energy              =    -463.0195720958276979 [Eh]

	 ================> DF-SCS-MP2 Energies <==================
	-----------------------------------------------------------
	 SCS Same-Spin Scale       =       0.3333333333333333 [-]
	 SCS Opposite-Spin Scale   =       1.2000000000000000 [-]
	 SCS Same-Spin Energy      =      -0.1562789696508769 [Eh]
	 SCS Opposite-Spin Energy  =      -1.8829878778852716 [Eh]
	 SCS Correlation Energy    =      -2.0392668475361484 [Eh]
	 SCS Total Energy          =    -463.0208454695068667 [Eh]
	-----------------------------------------------------------

  Dipole Moment: [D]
     X:    -1.7646      Y:     1.3446      Z:     3.5964     Total:     4.2256

*** Psi4 exiting successfully. Buy a developer a beer!
