                               Psi4 1.3.2 release

  ==> Input File <==

--------------------------------------------------------------------------
#psi4
#
memory 32 gb

molecule  {
0 1
  O       -1.1540860    -0.8257380    -1.1262130
  O        2.2598080    -0.8403330    -0.7659410
  C        0.4122950     0.2355920     0.3463500
  C        0.8678900     1.5298080    -0.3436410
  C       -0.9920820    -0.1169500    -0.1343550
  C        1.3451220    -0.9372140     0.0454070
  C       -2.1567377     0.4274646     0.6675551
  C        2.1205030     2.1275510     0.2909850
  C        1.0642330    -2.2268080     0.7816390
  C       -3.4959710     0.2572470    -0.0522250
  H        0.3847180     0.3911920     1.4358330
  H        1.0510700     1.2964920    -1.3965080
  H        0.0539330     2.2643490    -0.3080990
  H       -1.9574920     1.5325250     0.8155200
  H       -2.1465810     0.0009680     1.6335740
  H        2.9579070     1.4317780     0.2172300
  H        2.4041530     3.0539960    -0.2168530
  H        1.9503170     2.3628610     1.3467280
  H       -3.6866900    -0.8062480    -0.2063170
  H       -3.5045250     0.7387230    -1.0324830
  H       -4.3076550     0.6763420     0.5479980
  H        0.9449730    -2.0486830     1.8550460
  H        1.8828740    -2.9264540     0.6079930
  H        0.1338470    -2.6618440     0.4039710
units angstrom
no_reorient  #important for SAPT in psi4, default
symmetry c1  #important for SAPT in psi4, default
}

set PROPERTIES_ORIGIN ["COM"]
properties('MP2/aug-cc-pvtz', properties = ['dipole'])
--------------------------------------------------------------------------

    Molecular point group: c1
  Charge       = 0
  Multiplicity = 1
  Basis Set: AUG-CC-PVTZ
    Blend: AUG-CC-PVTZ
  Basis Set: (AUG-CC-PVTZ AUX)
    Blend: AUG-CC-PVTZ-JKFIT

    Orbital Energies [Eh]
    ---------------------

    Doubly Occupied:

       1A    -20.558430     2A    -20.548909     3A    -11.346013
       4A    -11.338458     5A    -11.258458     6A    -11.252499
       7A    -11.237229     8A    -11.235871     9A    -11.226382
      10A    -11.217784    11A     -1.392487    12A     -1.378693
      13A     -1.107439    14A     -1.059898    15A     -1.022562
      16A     -0.969425    17A     -0.895023    18A     -0.837357
      19A     -0.770015    20A     -0.723616    21A     -0.683568
      22A     -0.672934    23A     -0.644407    24A     -0.627264
      25A     -0.622330    26A     -0.599198    27A     -0.591831
      28A     -0.568238    29A     -0.556248    30A     -0.539344
      31A     -0.533814    32A     -0.520684    33A     -0.511563
      34A     -0.507227    35A     -0.491476    36A     -0.484296
      37A     -0.482008    38A     -0.427074    39A     -0.407482

  @DF-RHF Final Energy:  -460.98961280804610

   => Energetics <=

    Nuclear Repulsion Energy =            551.0169785675907406
    One-Electron Energy =               -1720.3181176404686994
    Two-Electron Energy =                 708.3115262648318549
    Total Energy =                       -460.9896128080461040
  Basis Set: (AUG-CC-PVTZ AUX)
    Blend: AUG-CC-PVTZ-RI
    Molecular point group: c1

    Geometry (in Angstrom), charge = 0, multiplicity = 1:

       Center              X                  Y                   Z               Mass
    ------------   -----------------  -----------------  -----------------  -----------------
         O           -1.180826187825    -0.785337685726    -1.088943334386    15.994914619570
         O            2.233067812175    -0.799932685726    -0.728671334386    15.994914619570
         C            0.385554812175     0.275992314274     0.383619665614    12.000000000000
         C            0.841149812175     1.570208314274    -0.306371334386    12.000000000000
         C           -1.018822187825    -0.076549685726    -0.097085334386    12.000000000000
         C            1.318381812175    -0.896813685726     0.082676665614    12.000000000000
         C           -2.183477887825     0.467864914274     0.704824765614    12.000000000000
         C            2.093762812175     2.167951314274     0.328254665614    12.000000000000
         C            1.037492812175    -2.186407685726     0.818908665614    12.000000000000
         C           -3.522711187825     0.297647314274    -0.014955334386    12.000000000000
         H            0.357977812175     0.431592314274     1.473102665614     1.007825032230
         H            1.024329812175     1.336892314274    -1.359238334386     1.007825032230
         H            0.027192812175     2.304749314274    -0.270829334386     1.007825032230
         H           -1.984232187825     1.572925314274     0.852789665614     1.007825032230
         H           -2.173321187825     0.041368314274     1.670843665614     1.007825032230
         H            2.931166812175     1.472178314274     0.254499665614     1.007825032230
         H            2.377412812175     3.094396314274    -0.179583334386     1.007825032230
         H            1.923576812175     2.403261314274     1.383997665614     1.007825032230
         H           -3.713430187825    -0.765847685726    -0.169047334386     1.007825032230
         H           -3.531265187825     0.779123314274    -0.995213334386     1.007825032230
         H           -4.334395187825     0.716742314274     0.585267665614     1.007825032230
         H            0.918232812175    -2.008282685726     1.892315665614     1.007825032230
         H            1.856133812175    -2.886053685726     0.645262665614     1.007825032230
         H            0.107106812175    -2.621443685726     0.441240665614     1.007825032230

  Basis Set: AUG-CC-PVTZ
    Blend: AUG-CC-PVTZ
  Basis Set: (AUG-CC-PVTZ AUX)
    Blend: AUG-CC-PVTZ-JKFIT
	 Reference Energy          =    -460.9896128080461040 [Eh]
	 Singles Energy            =      -0.0000000000000000 [Eh]
	 Same-Spin Energy          =      -0.4688055903958739 [Eh]
	 Opposite-Spin Energy      =      -1.5688012359692907 [Eh]
	 Correlation Energy        =      -2.0376068263651645 [Eh]
	 Total Energy              =    -463.0272196344112672 [Eh]

	 ================> DF-SCS-MP2 Energies <==================
	-----------------------------------------------------------
	 SCS Same-Spin Scale       =       0.3333333333333333 [-]
	 SCS Opposite-Spin Scale   =       1.2000000000000000 [-]
	 SCS Same-Spin Energy      =      -0.1562685301319580 [Eh]
	 SCS Opposite-Spin Energy  =      -1.8825614831631488 [Eh]
	 SCS Correlation Energy    =      -2.0388300132951067 [Eh]
	 SCS Total Energy          =    -463.0284428213412298 [Eh]
	-----------------------------------------------------------

  Dipole Moment: [D]
     X:    -1.7672      Y:     1.3782      Z:     3.5966     Total:     4.2376

*** Psi4 exiting successfully. Buy a developer a beer!
