                               Psi4 1.3.2 release

  ==> Input File <==

--------------------------------------------------------------------------
#psi4
#
memory 32 gb

molecule  {
0 1
  O       -1.1540860    -0.8257380    -1.1262130
  O        2.2598080    -0.8403330    -0.7659410
  C        0.4122950     0.2355920     0.3463500
  C        0.8678900     1.5298080    -0.3436410
  C       -0.9920820    -0.1169500    -0.1343550
  C        1.3451220    -0.9372140     0.0454070
  C       -2.1573552     0.3466538     0.7264552
  C        2.1205030     2.1275510     0.2909850
  C        1.0642330    -2.2268080     0.7816390
  C       -3.4959710     0.2572470    -0.0522250
  H        0.3847180     0.3911920     1.4358330
  H        1.0510700     1.2964920    -1.3965080
  H        0.0539330     2.2643490    -0.3080990
  H       -1.9574920     1.5325250     0.8155200
  H       -2.1465810     0.0009680     1.6335740
  H        2.9579070     1.4317780     0.2172300
  H        2.4041530     3.0539960    -0.2168530
  H        1.9503170     2.3628610     1.3467280
  H       -3.6866900    -0.8062480    -0.2063170
  H       -3.5045250     0.7387230    -1.0324830
  H       -4.3076550     0.6763420     0.5479980
  H        0.9449730    -2.0486830     1.8550460
  H        1.8828740    -2.9264540     0.6079930
  H        0.1338470    -2.6618440     0.4039710
units angstrom
no_reorient  #important for SAPT in psi4, default
symmetry c1  #important for SAPT in psi4, default
}

set PROPERTIES_ORIGIN ["COM"]
properties('MP2/aug-cc-pvtz', properties = ['dipole'])
--------------------------------------------------------------------------

    Molecular point group: c1
  Charge       = 0
  Multiplicity = 1
  Basis Set: AUG-CC-PVTZ
    Blend: AUG-CC-PVTZ
  Basis Set: (AUG-CC-PVTZ AUX)
    Blend: AUG-CC-PVTZ-JKFIT

    Orbital Energies [Eh]
    ---------------------

    Doubly Occupied:

       1A    -20.559078     2A    -20.549195     3A    -11.347490
       4A    -11.338747     5A    -11.258345     6A    -11.253546
       7A    -11.236593     8A    -11.236303     9A    -11.228563
      10A    -11.217285    11A     -1.392938    12A     -1.378970
      13A     -1.107094    14A     -1.058729    15A     -1.022677
      16A     -0.968975    17A     -0.896622    18A     -0.836871
      19A     -0.776932    20A     -0.724900    21A     -0.688389
      22A     -0.672512    23A     -0.641920    24A     -0.629869
      25A     -0.618190    26A     -0.599260    27A     -0.591952
      28A     -0.568724    29A     -0.556396    30A     -0.545648
      31A     -0.534768    32A     -0.526051    33A     -0.506779
      34A     -0.504427    35A     -0.487948    36A     -0.484297
      37A     -0.473502    38A     -0.426540    39A     -0.407396

  @DF-RHF Final Energy:  -460.96756214728782

   => Energetics <=

    Nuclear Repulsion Energy =            550.7959962299288463
    One-Electron Energy =               -1719.8182758139214457
    Two-Electron Energy =                 708.0547174367048910
    Total Energy =                       -460.9675621472878220
  Basis Set: (AUG-CC-PVTZ AUX)
    Blend: AUG-CC-PVTZ-RI
    Molecular point group: c1

    Geometry (in Angstrom), charge = 0, multiplicity = 1:

       Center              X                  Y                   Z               Mass
    ------------   -----------------  -----------------  -----------------  -----------------
         O           -1.180774041221    -0.778513380074    -1.093917326542    15.994914619570
         O            2.233119958779    -0.793108380074    -0.733645326542    15.994914619570
         C            0.385606958779     0.282816619926     0.378645673458    12.000000000000
         C            0.841201958779     1.577032619926    -0.311345326542    12.000000000000
         C           -1.018770041221    -0.069725380074    -0.102059326542    12.000000000000
         C            1.318433958779    -0.889989380074     0.077702673458    12.000000000000
         C           -2.184043241221     0.393878419926     0.758750873458    12.000000000000
         C            2.093814958779     2.174775619926     0.323280673458    12.000000000000
         C            1.037544958779    -2.179583380074     0.813934673458    12.000000000000
         C           -3.522659041221     0.304471619926    -0.019929326542    12.000000000000
         H            0.358029958779     0.438416619926     1.468128673458     1.007825032230
         H            1.024381958779     1.343716619926    -1.364212326542     1.007825032230
         H            0.027244958779     2.311573619926    -0.275803326542     1.007825032230
         H           -1.984180041221     1.579749619926     0.847815673458     1.007825032230
         H           -2.173269041221     0.048192619926     1.665869673458     1.007825032230
         H            2.931218958779     1.479002619926     0.249525673458     1.007825032230
         H            2.377464958779     3.101220619926    -0.184557326542     1.007825032230
         H            1.923628958779     2.410085619926     1.379023673458     1.007825032230
         H           -3.713378041221    -0.759023380074    -0.174021326542     1.007825032230
         H           -3.531213041221     0.785947619926    -1.000187326542     1.007825032230
         H           -4.334343041221     0.723566619926     0.580293673458     1.007825032230
         H            0.918284958779    -2.001458380074     1.887341673458     1.007825032230
         H            1.856185958779    -2.879229380074     0.640288673458     1.007825032230
         H            0.107158958779    -2.614619380074     0.436266673458     1.007825032230

  Basis Set: AUG-CC-PVTZ
    Blend: AUG-CC-PVTZ
  Basis Set: (AUG-CC-PVTZ AUX)
    Blend: AUG-CC-PVTZ-JKFIT
	 Reference Energy          =    -460.9675621472878220 [Eh]
	 Singles Energy            =      -0.0000000000000000 [Eh]
	 Same-Spin Energy          =      -0.4689436463583528 [Eh]
	 Opposite-Spin Energy      =      -1.5697740433554517 [Eh]
	 Correlation Energy        =      -2.0387176897138044 [Eh]
	 Total Energy              =    -463.0062798370016139 [Eh]

	 ================> DF-SCS-MP2 Energies <==================
	-----------------------------------------------------------
	 SCS Same-Spin Scale       =       0.3333333333333333 [-]
	 SCS Opposite-Spin Scale   =       1.2000000000000000 [-]
	 SCS Same-Spin Energy      =      -0.1563145487861176 [Eh]
	 SCS Opposite-Spin Energy  =      -1.8837288520265418 [Eh]
	 SCS Correlation Energy    =      -2.0400434008126593 [Eh]
	 SCS Total Energy          =    -463.0076055481004573 [Eh]
	-----------------------------------------------------------

  Dipole Moment: [D]
     X:    -1.7651      Y:     1.3098      Z:     3.5900     Total:     4.2094

*** Psi4 exiting successfully. Buy a developer a beer!
