                               Psi4 1.3.2 release

  ==> Input File <==

--------------------------------------------------------------------------
#psi4
#
memory 32 gb

molecule  {
0 1
  O       -1.1540860    -0.8257380    -1.1262130
  O        2.2598080    -0.8403330    -0.7659410
  C        0.4122950     0.2355920     0.3463500
  C        0.8678900     1.5298080    -0.3436410
  C       -0.9920820    -0.1169500    -0.1343550
  C        1.3451220    -0.9372140     0.0454070
  C       -2.1576640     0.3062483     0.7559053
  C        2.1205030     2.1275510     0.2909850
  C        1.0642330    -2.2268080     0.7816390
  C       -3.4959710     0.2572470    -0.0522250
  H        0.3847180     0.3911920     1.4358330
  H        1.0510700     1.2964920    -1.3965080
  H        0.0539330     2.2643490    -0.3080990
  H       -1.9574920     1.5325250     0.8155200
  H       -2.1465810     0.0009680     1.6335740
  H        2.9579070     1.4317780     0.2172300
  H        2.4041530     3.0539960    -0.2168530
  H        1.9503170     2.3628610     1.3467280
  H       -3.6866900    -0.8062480    -0.2063170
  H       -3.5045250     0.7387230    -1.0324830
  H       -4.3076550     0.6763420     0.5479980
  H        0.9449730    -2.0486830     1.8550460
  H        1.8828740    -2.9264540     0.6079930
  H        0.1338470    -2.6618440     0.4039710
units angstrom
no_reorient  #important for SAPT in psi4, default
symmetry c1  #important for SAPT in psi4, default
}

set PROPERTIES_ORIGIN ["COM"]
properties('MP2/aug-cc-pvtz', properties = ['dipole'])
--------------------------------------------------------------------------

    Molecular point group: c1
  Charge       = 0
  Multiplicity = 1
  Basis Set: AUG-CC-PVTZ
    Blend: AUG-CC-PVTZ
  Basis Set: (AUG-CC-PVTZ AUX)
    Blend: AUG-CC-PVTZ-JKFIT

    Orbital Energies [Eh]
    ---------------------

    Doubly Occupied:

       1A    -20.559485     2A    -20.549354     3A    -11.348844
       4A    -11.338903     5A    -11.258343     6A    -11.254959
       7A    -11.236515     8A    -11.236246     9A    -11.230244
      10A    -11.217020    11A     -1.393250    12A     -1.379134
      13A     -1.106941    14A     -1.058456    15A     -1.022730
      16A     -0.968739    17A     -0.898123    18A     -0.836649
      19A     -0.782494    20A     -0.725817    21A     -0.691571
      22A     -0.672533    23A     -0.640151    24A     -0.630944
      25A     -0.615258    26A     -0.599203    27A     -0.592009
      28A     -0.569267    29A     -0.557121    30A     -0.549568
      31A     -0.536160    32A     -0.525973    33A     -0.506407
      34A     -0.502396    35A     -0.487234    36A     -0.484292
      37A     -0.465354    38A     -0.426124    39A     -0.407289

  @DF-RHF Final Energy:  -460.94699491026148

   => Energetics <=

    Nuclear Repulsion Energy =            550.6514315009239908
    One-Electron Energy =               -1719.4746542346588285
    Two-Electron Energy =                 707.8762278234733003
    Total Energy =                       -460.9469949102615374
  Basis Set: (AUG-CC-PVTZ AUX)
    Blend: AUG-CC-PVTZ-RI
    Molecular point group: c1

    Geometry (in Angstrom), charge = 0, multiplicity = 1:

       Center              X                  Y                   Z               Mass
    ------------   -----------------  -----------------  -----------------  -----------------
         O           -1.180747963697    -0.775101218803    -1.096404326843    15.994914619570
         O            2.233146036303    -0.789696218803    -0.736132326843    15.994914619570
         C            0.385633036303     0.286228781197     0.376158673157    12.000000000000
         C            0.841228036303     1.580444781197    -0.313832326843    12.000000000000
         C           -1.018743963697    -0.066313218803    -0.104546326843    12.000000000000
         C            1.318460036303    -0.886577218803     0.075215673157    12.000000000000
         C           -2.184325963697     0.356885081197     0.785713973157    12.000000000000
         C            2.093841036303     2.178187781197     0.320793673157    12.000000000000
         C            1.037571036303    -2.176171218803     0.811447673157    12.000000000000
         C           -3.522632963697     0.307883781197    -0.022416326843    12.000000000000
         H            0.358056036303     0.441828781197     1.465641673157     1.007825032230
         H            1.024408036303     1.347128781197    -1.366699326843     1.007825032230
         H            0.027271036303     2.314985781197    -0.278290326843     1.007825032230
         H           -1.984153963697     1.583161781197     0.845328673157     1.007825032230
         H           -2.173242963697     0.051604781197     1.663382673157     1.007825032230
         H            2.931245036303     1.482414781197     0.247038673157     1.007825032230
         H            2.377491036303     3.104632781197    -0.187044326843     1.007825032230
         H            1.923655036303     2.413497781197     1.376536673157     1.007825032230
         H           -3.713351963697    -0.755611218803    -0.176508326843     1.007825032230
         H           -3.531186963697     0.789359781197    -1.002674326843     1.007825032230
         H           -4.334316963697     0.726978781197     0.577806673157     1.007825032230
         H            0.918311036303    -1.998046218803     1.884854673157     1.007825032230
         H            1.856212036303    -2.875817218803     0.637801673157     1.007825032230
         H            0.107185036303    -2.611207218803     0.433779673157     1.007825032230

  Basis Set: AUG-CC-PVTZ
    Blend: AUG-CC-PVTZ
  Basis Set: (AUG-CC-PVTZ AUX)
    Blend: AUG-CC-PVTZ-JKFIT
	 Reference Energy          =    -460.9469949102614805 [Eh]
	 Singles Energy            =      -0.0000000000000000 [Eh]
	 Same-Spin Energy          =      -0.4691293436672518 [Eh]
	 Opposite-Spin Energy      =      -1.5706636980756388 [Eh]
	 Correlation Energy        =      -2.0397930417428904 [Eh]
	 Total Energy              =    -462.9867879520043630 [Eh]

	 ================> DF-SCS-MP2 Energies <==================
	-----------------------------------------------------------
	 SCS Same-Spin Scale       =       0.3333333333333333 [-]
	 SCS Opposite-Spin Scale   =       1.2000000000000000 [-]
	 SCS Same-Spin Energy      =      -0.1563764478890839 [Eh]
	 SCS Opposite-Spin Energy  =      -1.8847964376907664 [Eh]
	 SCS Correlation Energy    =      -2.0411728855798503 [Eh]
	 SCS Total Energy          =    -462.9881677958413206 [Eh]
	-----------------------------------------------------------

  Dipole Moment: [D]
     X:    -1.7681      Y:     1.2742      Z:     3.5777     Total:     4.1892

*** Psi4 exiting successfully. Buy a developer a beer!
