                               Psi4 1.3.2 release

  ==> Input File <==

--------------------------------------------------------------------------
#psi4
#
memory 32 gb

molecule  {
0 1
  O       -1.1540860    -0.8257380    -1.1262130
  O        2.2598080    -0.8403330    -0.7659410
  C        0.4122950     0.2355920     0.3463500
  C        0.8678900     1.5298080    -0.3436410
  C       -0.9920820    -0.1169500    -0.1343550
  C        1.3451220    -0.9372140     0.0454070
  C       -2.1579727     0.2658429     0.7853554
  C        2.1205030     2.1275510     0.2909850
  C        1.0642330    -2.2268080     0.7816390
  C       -3.4959710     0.2572470    -0.0522250
  H        0.3847180     0.3911920     1.4358330
  H        1.0510700     1.2964920    -1.3965080
  H        0.0539330     2.2643490    -0.3080990
  H       -1.9574920     1.5325250     0.8155200
  H       -2.1465810     0.0009680     1.6335740
  H        2.9579070     1.4317780     0.2172300
  H        2.4041530     3.0539960    -0.2168530
  H        1.9503170     2.3628610     1.3467280
  H       -3.6866900    -0.8062480    -0.2063170
  H       -3.5045250     0.7387230    -1.0324830
  H       -4.3076550     0.6763420     0.5479980
  H        0.9449730    -2.0486830     1.8550460
  H        1.8828740    -2.9264540     0.6079930
  H        0.1338470    -2.6618440     0.4039710
units angstrom
no_reorient  #important for SAPT in psi4, default
symmetry c1  #important for SAPT in psi4, default
}

set PROPERTIES_ORIGIN ["COM"]
properties('MP2/aug-cc-pvtz', properties = ['dipole'])
--------------------------------------------------------------------------

    Molecular point group: c1
  Charge       = 0
  Multiplicity = 1
  Basis Set: AUG-CC-PVTZ
    Blend: AUG-CC-PVTZ
  Basis Set: (AUG-CC-PVTZ AUX)
    Blend: AUG-CC-PVTZ-JKFIT

    Orbital Energies [Eh]
    ---------------------

    Doubly Occupied:

       1A    -20.559952     2A    -20.549526     3A    -11.350605
       4A    -11.339068     5A    -11.258385     6A    -11.256979
       7A    -11.236724     8A    -11.235884     9A    -11.232284
      10A    -11.216750    11A     -1.393621    12A     -1.379317
      13A     -1.106812    14A     -1.058472    15A     -1.022782
      16A     -0.968503    17A     -0.900245    18A     -0.836455
      19A     -0.789182    20A     -0.726782    21A     -0.694567
      22A     -0.672617    23A     -0.638533    24A     -0.631881
      25A     -0.611942    26A     -0.599015    27A     -0.592043
      28A     -0.570203    29A     -0.558894    30A     -0.552157
      31A     -0.537327    32A     -0.525233    33A     -0.506051
      34A     -0.500913    35A     -0.486936    36A     -0.484284
      37A     -0.456172    38A     -0.425556    39A     -0.407133

  @DF-RHF Final Energy:  -460.91923294208289

   => Energetics <=

    Nuclear Repulsion Energy =            550.4867527913211234
    One-Electron Energy =               -1719.0724049338712121
    Two-Electron Energy =                 707.6664192004672032
    Total Energy =                       -460.9192329420828855
  Basis Set: (AUG-CC-PVTZ AUX)
    Blend: AUG-CC-PVTZ-RI
    Molecular point group: c1

    Geometry (in Angstrom), charge = 0, multiplicity = 1:

       Center              X                  Y                   Z               Mass
    ------------   -----------------  -----------------  -----------------  -----------------
         O           -1.180721894618    -0.771689065977    -1.098891327143    15.994914619570
         O            2.233172105382    -0.786284065977    -0.738619327143    15.994914619570
         C            0.385659105382     0.289640934023     0.373671672857    12.000000000000
         C            0.841254105382     1.583856934023    -0.316319327143    12.000000000000
         C           -1.018717894618    -0.062901065977    -0.107033327143    12.000000000000
         C            1.318486105382    -0.883165065977     0.072728672857    12.000000000000
         C           -2.184608594618     0.319891834023     0.812677072857    12.000000000000
         C            2.093867105382     2.181599934023     0.318306672857    12.000000000000
         C            1.037597105382    -2.172759065977     0.808960672857    12.000000000000
         C           -3.522606894618     0.311295934023    -0.024903327143    12.000000000000
         H            0.358082105382     0.445240934023     1.463154672857     1.007825032230
         H            1.024434105382     1.350540934023    -1.369186327143     1.007825032230
         H            0.027297105382     2.318397934023    -0.280777327143     1.007825032230
         H           -1.984127894618     1.586573934023     0.842841672857     1.007825032230
         H           -2.173216894618     0.055016934023     1.660895672857     1.007825032230
         H            2.931271105382     1.485826934023     0.244551672857     1.007825032230
         H            2.377517105382     3.108044934023    -0.189531327143     1.007825032230
         H            1.923681105382     2.416909934023     1.374049672857     1.007825032230
         H           -3.713325894618    -0.752199065977    -0.178995327143     1.007825032230
         H           -3.531160894618     0.792771934023    -1.005161327143     1.007825032230
         H           -4.334290894618     0.730390934023     0.575319672857     1.007825032230
         H            0.918337105382    -1.994634065977     1.882367672857     1.007825032230
         H            1.856238105382    -2.872405065977     0.635314672857     1.007825032230
         H            0.107211105382    -2.607795065977     0.431292672857     1.007825032230

  Basis Set: AUG-CC-PVTZ
    Blend: AUG-CC-PVTZ
  Basis Set: (AUG-CC-PVTZ AUX)
    Blend: AUG-CC-PVTZ-JKFIT
	 Reference Energy          =    -460.9192329420828855 [Eh]
	 Singles Energy            =      -0.0000000000000000 [Eh]
	 Same-Spin Energy          =      -0.4693978132325983 [Eh]
	 Opposite-Spin Energy      =      -1.5718350545069142 [Eh]
	 Correlation Energy        =      -2.0412328677395126 [Eh]
	 Total Energy              =    -462.9604658098223808 [Eh]

	 ================> DF-SCS-MP2 Energies <==================
	-----------------------------------------------------------
	 SCS Same-Spin Scale       =       0.3333333333333333 [-]
	 SCS Opposite-Spin Scale   =       1.2000000000000000 [-]
	 SCS Same-Spin Energy      =      -0.1564659377441994 [Eh]
	 SCS Opposite-Spin Energy  =      -1.8862020654082969 [Eh]
	 SCS Correlation Energy    =      -2.0426680031524964 [Eh]
	 SCS Total Energy          =    -462.9619009452353566 [Eh]
	-----------------------------------------------------------

  Dipole Moment: [D]
     X:    -1.7728      Y:     1.2387      Z:     3.5598     Total:     4.1652

*** Psi4 exiting successfully. Buy a developer a beer!
