                               Psi4 1.4a3.dev225

  ==> Input File <==

--------------------------------------------------------------------------
#psi4
#
memory 32 gb

molecule  {
0 1
 Cl        1.0239510     2.3134080    -0.0075990
  O       -2.5545530    -1.5411200    -0.0264400
  N       -1.1683820     0.3068610    -0.0163620
  C        0.1096870    -0.2710340    -0.0061280
  C        1.2343910     0.5769770    -0.0015960
  C        0.3284730    -1.6588570    -0.0015270
  C        2.5300300     0.0689490     0.0091910
  C        1.6277130    -2.1636760     0.0089260
  C        2.7309420    -1.3104680     0.0141480
  C       -2.3977350    -0.3210840    -0.0173950
  C       -3.6392613     0.7113385     0.0398500
  H       -0.5282050    -2.3191560    -0.0064230
  H       -1.1804810     1.3202100    -0.0131680
  H        3.3690000     0.7589460     0.0128930
  H        1.7714720    -3.2410880     0.0123870
  H        3.7417620    -1.7087950     0.0220870
  H       -3.7187230     0.9816890     1.0666350
  H       -4.4568090     0.1237200    -0.3002800
  H       -3.3965620     1.5279900    -0.5904610
units angstrom
no_reorient  #important for SAPT in psi4, default
symmetry c1  #important for SAPT in psi4, default
}

set PROPERTIES_ORIGIN ["COM"]
properties('MP2/aug-cc-pvtz', properties = ['dipole'])
--------------------------------------------------------------------------

    Molecular point group: c1
  Charge       = 0
  Multiplicity = 1
  Basis Set: AUG-CC-PVTZ
    Blend: AUG-CC-PVTZ
  Basis Set: (AUG-CC-PVTZ AUX)
    Blend: AUG-CC-PVTZ-JKFIT

    Orbital Energies [Eh]
    ---------------------

    Doubly Occupied:

       1A   -104.856695     2A    -20.536802     3A    -15.614413
       4A    -11.374397     5A    -11.309285     6A    -11.308153
       7A    -11.257223     8A    -11.248491     9A    -11.246866
      10A    -11.244303    11A    -11.240217    12A    -10.580510
      13A     -8.047371    14A     -8.045623    15A     -8.045523
      16A     -1.388843    17A     -1.270938    18A     -1.181515
      19A     -1.125316    20A     -1.038749    21A     -1.007468
      22A     -0.986389    23A     -0.872322    24A     -0.831088
      25A     -0.789186    26A     -0.735652    27A     -0.681224
      28A     -0.676136    29A     -0.635206    30A     -0.633998
      31A     -0.621926    32A     -0.595304    33A     -0.591407
      34A     -0.582389    35A     -0.575276    36A     -0.539194
      37A     -0.535067    38A     -0.513434    39A     -0.480331
      40A     -0.471157    41A     -0.451870    42A     -0.424997
      43A     -0.344841    44A     -0.319173

  @DF-RHF Final Energy:  -896.59925868067830

   => Energetics <=

    Nuclear Repulsion Energy =            654.4503613593332148
    One-Electron Energy =               -2528.3867039566084713
    Two-Electron Energy =                 977.3370839165968391
    Total Energy =                       -896.5992586806783038
  Basis Set: (AUG-CC-PVTZ AUX)
    Blend: AUG-CC-PVTZ-RI
    Molecular point group: c1

    Geometry (in Angstrom), charge = 0, multiplicity = 1:

       Center              X                  Y                   Z               Mass
    ------------   -----------------  -----------------  -----------------  -----------------
         CL           0.997662641418     2.280553395513    -0.006611832172    34.968852682000
         O           -2.580841358582    -1.573974604487    -0.025452832172    15.994914619570
         N           -1.194670358582     0.274006395513    -0.015374832172    14.003074004430
         C            0.083398641418    -0.303888604487    -0.005140832172    12.000000000000
         C            1.208102641418     0.544122395513    -0.000608832172    12.000000000000
         C            0.302184641418    -1.691711604487    -0.000539832172    12.000000000000
         C            2.503741641418     0.036094395513     0.010178167828    12.000000000000
         C            1.601424641418    -2.196530604487     0.009913167828    12.000000000000
         C            2.704653641418    -1.343322604487     0.015135167828    12.000000000000
         C           -2.424023358582    -0.353938604487    -0.016407832172    12.000000000000
         C           -3.665549658582     0.678483895513     0.040837167828    12.000000000000
         H           -0.554493358582    -2.352010604487    -0.005435832172     1.007825032230
         H           -1.206769358582     1.287355395513    -0.012180832172     1.007825032230
         H            3.342711641418     0.726091395513     0.013880167828     1.007825032230
         H            1.745183641418    -3.273942604487     0.013374167828     1.007825032230
         H            3.715473641418    -1.741649604487     0.023074167828     1.007825032230
         H           -3.745011358582     0.948834395513     1.067622167828     1.007825032230
         H           -4.483097358582     0.090865395513    -0.299292832172     1.007825032230
         H           -3.422850358582     1.495135395513    -0.589473832172     1.007825032230

  Basis Set: AUG-CC-PVTZ
    Blend: AUG-CC-PVTZ
  Basis Set: (AUG-CC-PVTZ AUX)
    Blend: AUG-CC-PVTZ-JKFIT
	 Reference Energy          =    -896.5992586806783038 [Eh]
	 Singles Energy            =      -0.0000000000000000 [Eh]
	 Same-Spin Energy          =      -0.5337681305540826 [Eh]
	 Opposite-Spin Energy      =      -1.6207871142282322 [Eh]
	 Correlation Energy        =      -2.1545552447823146 [Eh]
	 Total Energy              =    -898.7538139254605767 [Eh]

	 ================> DF-SCS-MP2 Energies <==================
	-----------------------------------------------------------
	 SCS Same-Spin Scale       =       0.3333333333333333 [-]
	 SCS Opposite-Spin Scale   =       1.2000000000000000 [-]
	 SCS Same-Spin Energy      =      -0.1779227101846942 [Eh]
	 SCS Opposite-Spin Energy  =      -1.9449445370738785 [Eh]
	 SCS Correlation Energy    =      -2.1228672472585726 [Eh]
	 SCS Total Energy          =    -898.7221259279368724 [Eh]
	-----------------------------------------------------------

  Dipole Moment: [D]
     X:     0.7351      Y:     1.7740      Z:     0.0790     Total:     1.9219

*** Psi4 exiting successfully. Buy a developer a beer!
