                               Psi4 1.4a3.dev225

  ==> Input File <==

--------------------------------------------------------------------------
#psi4
#
memory 32 gb

molecule  {
0 1
 Cl        1.0239510     2.3134080    -0.0075990
  O       -2.5545530    -1.5411200    -0.0264400
  N       -1.1683820     0.3068610    -0.0163620
  C        0.1096870    -0.2710340    -0.0061280
  C        1.2367972     0.5571224    -0.0015274
  C        0.3284730    -1.6588570    -0.0015270
  C        2.5300300     0.0689490     0.0091910
  C        1.6277130    -2.1636760     0.0089260
  C        2.7309420    -1.3104680     0.0141480
  C       -2.3977350    -0.3210840    -0.0173950
  C       -3.5624210     0.6474400     0.0363070
  H       -0.5282050    -2.3191560    -0.0064230
  H       -1.1804810     1.3202100    -0.0131680
  H        3.3690000     0.7589460     0.0128930
  H        1.7714720    -3.2410880     0.0123870
  H        3.7417620    -1.7087950     0.0220870
  H       -3.7187230     0.9816890     1.0666350
  H       -4.4568090     0.1237200    -0.3002800
  H       -3.3965620     1.5279900    -0.5904610
units angstrom
no_reorient  #important for SAPT in psi4, default
symmetry c1  #important for SAPT in psi4, default
}

set PROPERTIES_ORIGIN ["COM"]
properties('MP2/aug-cc-pvtz', properties = ['dipole'])
--------------------------------------------------------------------------

    Molecular point group: c1
  Charge       = 0
  Multiplicity = 1
  Basis Set: AUG-CC-PVTZ
    Blend: AUG-CC-PVTZ
  Basis Set: (AUG-CC-PVTZ AUX)
    Blend: AUG-CC-PVTZ-JKFIT

    Orbital Energies [Eh]
    ---------------------

    Doubly Occupied:

       1A   -104.854234     2A    -20.535819     3A    -15.613998
       4A    -11.372074     5A    -11.308929     6A    -11.307680
       7A    -11.256733     8A    -11.248533     9A    -11.248526
      10A    -11.244721    11A    -11.240601    12A    -10.577840
      13A     -8.044655    14A     -8.042968    15A     -8.042867
      16A     -1.390905    17A     -1.271731    18A     -1.181115
      19A     -1.122992    20A     -1.046020    21A     -1.009927
      22A     -0.989054    23A     -0.872617    24A     -0.831102
      25A     -0.791306    26A     -0.736620    27A     -0.689203
      28A     -0.676409    29A     -0.637185    30A     -0.634061
      31A     -0.622485    32A     -0.597587    33A     -0.589187
      34A     -0.575247    35A     -0.570716    36A     -0.538662
      37A     -0.528400    38A     -0.511953    39A     -0.478558
      40A     -0.470021    41A     -0.452156    42A     -0.434925
      43A     -0.346343    44A     -0.320345

  @DF-RHF Final Energy:  -896.60714249966907

   => Energetics <=

    Nuclear Repulsion Energy =            656.2827580127819829
    One-Electron Energy =               -2532.0657837121639204
    Two-Electron Energy =                 979.1758831997129846
    Total Energy =                       -896.6071424996690666
  Basis Set: (AUG-CC-PVTZ AUX)
    Blend: AUG-CC-PVTZ-RI
    Molecular point group: c1

    Geometry (in Angstrom), charge = 0, multiplicity = 1:

       Center              X                  Y                   Z               Mass
    ------------   -----------------  -----------------  -----------------  -----------------
         CL           0.992036651110     2.286499325351    -0.006365172185    34.968852682000
         O           -2.586467348890    -1.568028674649    -0.025206172185    15.994914619570
         N           -1.200296348890     0.279952325351    -0.015128172185    14.003074004430
         C            0.077772651110    -0.297942674649    -0.004894172185    12.000000000000
         C            1.204882851110     0.530213725351    -0.000293572185    12.000000000000
         C            0.296558651110    -1.685765674649    -0.000293172185    12.000000000000
         C            2.498115651110     0.042040325351     0.010424827815    12.000000000000
         C            1.595798651110    -2.190584674649     0.010159827815    12.000000000000
         C            2.699027651110    -1.337376674649     0.015381827815    12.000000000000
         C           -2.429649348890    -0.347992674649    -0.016161172185    12.000000000000
         C           -3.594335348890     0.620531325351     0.037540827815    12.000000000000
         H           -0.560119348890    -2.346064674649    -0.005189172185     1.007825032230
         H           -1.212395348890     1.293301325351    -0.011934172185     1.007825032230
         H            3.337085651110     0.732037325351     0.014126827815     1.007825032230
         H            1.739557651110    -3.267996674649     0.013620827815     1.007825032230
         H            3.709847651110    -1.735703674649     0.023320827815     1.007825032230
         H           -3.750637348890     0.954780325351     1.067868827815     1.007825032230
         H           -4.488723348890     0.096811325351    -0.299046172185     1.007825032230
         H           -3.428476348890     1.501081325351    -0.589227172185     1.007825032230

  Basis Set: AUG-CC-PVTZ
    Blend: AUG-CC-PVTZ
  Basis Set: (AUG-CC-PVTZ AUX)
    Blend: AUG-CC-PVTZ-JKFIT
	 Reference Energy          =    -896.6071424996690666 [Eh]
	 Singles Energy            =      -0.0000000000000000 [Eh]
	 Same-Spin Energy          =      -0.5337810647854663 [Eh]
	 Opposite-Spin Energy      =      -1.6202141293812078 [Eh]
	 Correlation Energy        =      -2.1539951941666740 [Eh]
	 Total Energy              =    -898.7611376938357353 [Eh]

	 ================> DF-SCS-MP2 Energies <==================
	-----------------------------------------------------------
	 SCS Same-Spin Scale       =       0.3333333333333333 [-]
	 SCS Opposite-Spin Scale   =       1.2000000000000000 [-]
	 SCS Same-Spin Energy      =      -0.1779270215951554 [Eh]
	 SCS Opposite-Spin Energy  =      -1.9442569552574493 [Eh]
	 SCS Correlation Energy    =      -2.1221839768526047 [Eh]
	 SCS Total Energy          =    -898.7293264765216918 [Eh]
	-----------------------------------------------------------

  Dipole Moment: [D]
     X:     0.5978      Y:     1.7749      Z:     0.0894     Total:     1.8750

*** Psi4 exiting successfully. Buy a developer a beer!
