                               Psi4 1.4a3.dev225

  ==> Input File <==

--------------------------------------------------------------------------
#psi4
#
memory 32 gb

molecule  {
0 1
 Cl        1.0239510     2.3134080    -0.0075990
  O       -2.5545530    -1.5411200    -0.0264400
  N       -1.1683820     0.3068610    -0.0163620
  C        0.1096870    -0.2710340    -0.0061280
  C        1.2343910     0.5769770    -0.0015960
  C        0.3129007    -1.5600775    -0.0018545
  C        2.5300300     0.0689490     0.0091910
  C        1.6277130    -2.1636760     0.0089260
  C        2.7309420    -1.3104680     0.0141480
  C       -2.3977350    -0.3210840    -0.0173950
  C       -3.5624210     0.6474400     0.0363070
  H       -0.5282050    -2.3191560    -0.0064230
  H       -1.1804810     1.3202100    -0.0131680
  H        3.3690000     0.7589460     0.0128930
  H        1.7714720    -3.2410880     0.0123870
  H        3.7417620    -1.7087950     0.0220870
  H       -3.7187230     0.9816890     1.0666350
  H       -4.4568090     0.1237200    -0.3002800
  H       -3.3965620     1.5279900    -0.5904610
units angstrom
no_reorient  #important for SAPT in psi4, default
symmetry c1  #important for SAPT in psi4, default
}

set PROPERTIES_ORIGIN ["COM"]
properties('MP2/aug-cc-pvtz', properties = ['dipole'])
--------------------------------------------------------------------------

    Molecular point group: c1
  Charge       = 0
  Multiplicity = 1
  Basis Set: AUG-CC-PVTZ
    Blend: AUG-CC-PVTZ
  Basis Set: (AUG-CC-PVTZ AUX)
    Blend: AUG-CC-PVTZ-JKFIT

    Orbital Energies [Eh]
    ---------------------

    Doubly Occupied:

       1A   -104.857012     2A    -20.532856     3A    -15.609661
       4A    -11.369617     5A    -11.310474     6A    -11.295333
       7A    -11.256945     8A    -11.254044     9A    -11.246867
      10A    -11.244752    11A    -11.235332    12A    -10.580823
      13A     -8.047681    14A     -8.045929    15A     -8.045837
      16A     -1.388423    17A     -1.272320    18A     -1.183158
      19A     -1.127012    20A     -1.051882    21A     -1.004468
      22A     -0.989234    23A     -0.868988    24A     -0.836572
      25A     -0.785531    26A     -0.738254    27A     -0.685890
      28A     -0.670098    29A     -0.643468    30A     -0.633049
      31A     -0.621623    32A     -0.596729    33A     -0.584835
      34A     -0.577522    35A     -0.569000    36A     -0.532458
      37A     -0.528090    38A     -0.515957    39A     -0.481400
      40A     -0.469616    41A     -0.449043    42A     -0.428504
      43A     -0.342422    44A     -0.325964

  @DF-RHF Final Energy:  -896.59388802271769

   => Energetics <=

    Nuclear Repulsion Energy =            657.9489318051479358
    One-Electron Energy =               -2535.4162920482854133
    Two-Electron Energy =                 980.8734722204198988
    Total Energy =                       -896.5938880227176924
  Basis Set: (AUG-CC-PVTZ AUX)
    Blend: AUG-CC-PVTZ-RI
    Molecular point group: c1

    Geometry (in Angstrom), charge = 0, multiplicity = 1:

       Center              X                  Y                   Z               Mass
    ------------   -----------------  -----------------  -----------------  -----------------
         CL           0.993313008637     2.278077069518    -0.006337051640    34.968852682000
         O           -2.585190991363    -1.576450930482    -0.025178051640    15.994914619570
         N           -1.199019991363     0.271530069518    -0.015100051640    14.003074004430
         C            0.079049008637    -0.306364930482    -0.004866051640    12.000000000000
         C            1.203753008637     0.541646069518    -0.000334051640    12.000000000000
         C            0.282262708637    -1.595408430482    -0.000592551640    12.000000000000
         C            2.499392008637     0.033618069518     0.010452948360    12.000000000000
         C            1.597075008637    -2.199006930482     0.010187948360    12.000000000000
         C            2.700304008637    -1.345798930482     0.015409948360    12.000000000000
         C           -2.428372991363    -0.356414930482    -0.016133051640    12.000000000000
         C           -3.593058991363     0.612109069518     0.037568948360    12.000000000000
         H           -0.558842991363    -2.354486930482    -0.005161051640     1.007825032230
         H           -1.211118991363     1.284879069518    -0.011906051640     1.007825032230
         H            3.338362008637     0.723615069518     0.014154948360     1.007825032230
         H            1.740834008637    -3.276418930482     0.013648948360     1.007825032230
         H            3.711124008637    -1.744125930482     0.023348948360     1.007825032230
         H           -3.749360991363     0.946358069518     1.067896948360     1.007825032230
         H           -4.487446991363     0.088389069518    -0.299018051640     1.007825032230
         H           -3.427199991363     1.492659069518    -0.589199051640     1.007825032230

  Basis Set: AUG-CC-PVTZ
    Blend: AUG-CC-PVTZ
  Basis Set: (AUG-CC-PVTZ AUX)
    Blend: AUG-CC-PVTZ-JKFIT
	 Reference Energy          =    -896.5938880227176924 [Eh]
	 Singles Energy            =      -0.0000000000000000 [Eh]
	 Same-Spin Energy          =      -0.5338957081172974 [Eh]
	 Opposite-Spin Energy      =      -1.6209561953845055 [Eh]
	 Correlation Energy        =      -2.1548519035018030 [Eh]
	 Total Energy              =    -898.7487399262195140 [Eh]

	 ================> DF-SCS-MP2 Energies <==================
	-----------------------------------------------------------
	 SCS Same-Spin Scale       =       0.3333333333333333 [-]
	 SCS Opposite-Spin Scale   =       1.2000000000000000 [-]
	 SCS Same-Spin Energy      =      -0.1779652360390991 [Eh]
	 SCS Opposite-Spin Energy  =      -1.9451474344614066 [Eh]
	 SCS Correlation Energy    =      -2.1231126705005057 [Eh]
	 SCS Total Energy          =    -898.7170006932182105 [Eh]
	-----------------------------------------------------------

  Dipole Moment: [D]
     X:     0.7038      Y:     1.8267      Z:     0.0892     Total:     1.9596

*** Psi4 exiting successfully. Buy a developer a beer!
