                               Psi4 1.4a3.dev225

  ==> Input File <==

--------------------------------------------------------------------------
#psi4
#
memory 32 gb

molecule  {
0 1
 Cl        1.0239510     2.3134080    -0.0075990
  O       -2.5545530    -1.5411200    -0.0264400
  N       -1.1782731     0.2844670    -0.0163818
  C        0.1096870    -0.2710340    -0.0061280
  C        1.2343910     0.5769770    -0.0015960
  C        0.3284730    -1.6588570    -0.0015270
  C        2.5300300     0.0689490     0.0091910
  C        1.6277130    -2.1636760     0.0089260
  C        2.7309420    -1.3104680     0.0141480
  C       -2.3977350    -0.3210840    -0.0173950
  C       -3.5624210     0.6474400     0.0363070
  H       -0.5282050    -2.3191560    -0.0064230
  H       -1.1804810     1.3202100    -0.0131680
  H        3.3690000     0.7589460     0.0128930
  H        1.7714720    -3.2410880     0.0123870
  H        3.7417620    -1.7087950     0.0220870
  H       -3.7187230     0.9816890     1.0666350
  H       -4.4568090     0.1237200    -0.3002800
  H       -3.3965620     1.5279900    -0.5904610
units angstrom
no_reorient  #important for SAPT in psi4, default
symmetry c1  #important for SAPT in psi4, default
}

set PROPERTIES_ORIGIN ["COM"]
properties('MP2/aug-cc-pvtz', properties = ['dipole'])
--------------------------------------------------------------------------

    Molecular point group: c1
  Charge       = 0
  Multiplicity = 1
  Basis Set: AUG-CC-PVTZ
    Blend: AUG-CC-PVTZ
  Basis Set: (AUG-CC-PVTZ AUX)
    Blend: AUG-CC-PVTZ-JKFIT

    Orbital Energies [Eh]
    ---------------------

    Doubly Occupied:

       1A   -104.857364     2A    -20.531398     3A    -15.615227
       4A    -11.368472     5A    -11.310209     6A    -11.308859
       7A    -11.257737     8A    -11.248520     9A    -11.247759
      10A    -11.244867    11A    -11.240101    12A    -10.581164
      13A     -8.048025    14A     -8.046276    15A     -8.046174
      16A     -1.390074    17A     -1.271209    18A     -1.183248
      19A     -1.125766    20A     -1.045861    21A     -1.009061
      22A     -0.987819    23A     -0.873889    24A     -0.831365
      25A     -0.788820    26A     -0.733492    27A     -0.687771
      28A     -0.677227    29A     -0.636723    30A     -0.634858
      31A     -0.621889    32A     -0.594844    33A     -0.589697
      34A     -0.575065    35A     -0.570546    36A     -0.538624
      37A     -0.529769    38A     -0.513935    39A     -0.479919
      40A     -0.471550    41A     -0.450061    42A     -0.433008
      43A     -0.345096    44A     -0.319764

  @DF-RHF Final Energy:  -896.60600101089540

   => Energetics <=

    Nuclear Repulsion Energy =            656.4124144120952451
    One-Electron Energy =               -2532.3106302285423226
    Two-Electron Energy =                 979.2922148055517937
    Total Energy =                       -896.6060010108953975
  Basis Set: (AUG-CC-PVTZ AUX)
    Blend: AUG-CC-PVTZ-RI
    Molecular point group: c1

    Geometry (in Angstrom), charge = 0, multiplicity = 1:

       Center              X                  Y                   Z               Mass
    ------------   -----------------  -----------------  -----------------  -----------------
         CL           0.993026894015     2.286944985222    -0.006358661716    34.968852682000
         O           -2.585477105985    -1.567583014778    -0.025199661716    15.994914619570
         N           -1.209197205985     0.258003985222    -0.015141461716    14.003074004430
         C            0.078762894015    -0.297497014778    -0.004887661716    12.000000000000
         C            1.203466894015     0.550513985222    -0.000355661716    12.000000000000
         C            0.297548894015    -1.685320014778    -0.000286661716    12.000000000000
         C            2.499105894015     0.042485985222     0.010431338284    12.000000000000
         C            1.596788894015    -2.190139014778     0.010166338284    12.000000000000
         C            2.700017894015    -1.336931014778     0.015388338284    12.000000000000
         C           -2.428659105985    -0.347547014778    -0.016154661716    12.000000000000
         C           -3.593345105985     0.620976985222     0.037547338284    12.000000000000
         H           -0.559129105985    -2.345619014778    -0.005182661716     1.007825032230
         H           -1.211405105985     1.293746985222    -0.011927661716     1.007825032230
         H            3.338075894015     0.732482985222     0.014133338284     1.007825032230
         H            1.740547894015    -3.267551014778     0.013627338284     1.007825032230
         H            3.710837894015    -1.735258014778     0.023327338284     1.007825032230
         H           -3.749647105985     0.955225985222     1.067875338284     1.007825032230
         H           -4.487733105985     0.097256985222    -0.299039661716     1.007825032230
         H           -3.427486105985     1.501526985222    -0.589220661716     1.007825032230

  Basis Set: AUG-CC-PVTZ
    Blend: AUG-CC-PVTZ
  Basis Set: (AUG-CC-PVTZ AUX)
    Blend: AUG-CC-PVTZ-JKFIT
	 Reference Energy          =    -896.6060010108953975 [Eh]
	 Singles Energy            =      -0.0000000000000000 [Eh]
	 Same-Spin Energy          =      -0.5340915553793236 [Eh]
	 Opposite-Spin Energy      =      -1.6205741522237764 [Eh]
	 Correlation Energy        =      -2.1546657076031002 [Eh]
	 Total Energy              =    -898.7606667184984417 [Eh]

	 ================> DF-SCS-MP2 Energies <==================
	-----------------------------------------------------------
	 SCS Same-Spin Scale       =       0.3333333333333333 [-]
	 SCS Opposite-Spin Scale   =       1.2000000000000000 [-]
	 SCS Same-Spin Energy      =      -0.1780305184597745 [Eh]
	 SCS Opposite-Spin Energy  =      -1.9446889826685316 [Eh]
	 SCS Correlation Energy    =      -2.1227195011283060 [Eh]
	 SCS Total Energy          =    -898.7287205120237559 [Eh]
	-----------------------------------------------------------

  Dipole Moment: [D]
     X:     0.7136      Y:     1.9205      Z:     0.0887     Total:     2.0507

*** Psi4 exiting successfully. Buy a developer a beer!
