                               Psi4 1.4a3.dev225

  ==> Input File <==

--------------------------------------------------------------------------
#psi4
#
memory 32 gb

molecule  {
0 1
 Cl        1.0239510     2.3134080    -0.0075990
  O       -2.5545530    -1.5411200    -0.0264400
  N       -1.1683820     0.3068610    -0.0163620
  C        0.1096870    -0.2710340    -0.0061280
  C        1.1883840     0.4387586    -0.0015845
  C        0.3284730    -1.6588570    -0.0015270
  C        2.5300300     0.0689490     0.0091910
  C        1.6277130    -2.1636760     0.0089260
  C        2.7309420    -1.3104680     0.0141480
  C       -2.3977350    -0.3210840    -0.0173950
  C       -3.5624210     0.6474400     0.0363070
  H       -0.5282050    -2.3191560    -0.0064230
  H       -1.1804810     1.3202100    -0.0131680
  H        3.3690000     0.7589460     0.0128930
  H        1.7714720    -3.2410880     0.0123870
  H        3.7417620    -1.7087950     0.0220870
  H       -3.7187230     0.9816890     1.0666350
  H       -4.4568090     0.1237200    -0.3002800
  H       -3.3965620     1.5279900    -0.5904610
units angstrom
no_reorient  #important for SAPT in psi4, default
symmetry c1  #important for SAPT in psi4, default
}

set PROPERTIES_ORIGIN ["COM"]
properties('MP2/aug-cc-pvtz', properties = ['dipole'])
--------------------------------------------------------------------------

    Molecular point group: c1
  Charge       = 0
  Multiplicity = 1
  Basis Set: AUG-CC-PVTZ
    Blend: AUG-CC-PVTZ
  Basis Set: (AUG-CC-PVTZ AUX)
    Blend: AUG-CC-PVTZ-JKFIT

    Orbital Energies [Eh]
    ---------------------

    Doubly Occupied:

       1A   -104.839215     2A    -20.536897     3A    -15.615102
       4A    -11.373806     5A    -11.309519     6A    -11.299901
       7A    -11.262819     8A    -11.251242     9A    -11.250053
      10A    -11.249169    11A    -11.247180    12A    -10.562155
      13A     -8.028760    14A     -8.027330    15A     -8.027233
      16A     -1.392459    17A     -1.277497    18A     -1.184428
      19A     -1.105996    20A     -1.056266    21A     -1.009966
      22A     -1.000468    23A     -0.880061    24A     -0.834520
      25A     -0.799475    26A     -0.738380    27A     -0.695358
      28A     -0.680167    29A     -0.643966    30A     -0.636800
      31A     -0.628025    32A     -0.598955    33A     -0.581983
      34A     -0.577868    35A     -0.572132    36A     -0.542716
      37A     -0.527377    38A     -0.496202    39A     -0.468543
      40A     -0.459354    41A     -0.454826    42A     -0.436770
      43A     -0.350708    44A     -0.335353

  @DF-RHF Final Energy:  -896.58912529026236

   => Energetics <=

    Nuclear Repulsion Energy =            656.9827216298087933
    One-Electron Energy =               -2533.4497049263777626
    Two-Electron Energy =                 979.8778580063066102
    Total Energy =                       -896.5891252902623592
  Basis Set: (AUG-CC-PVTZ AUX)
    Blend: AUG-CC-PVTZ-RI
    Molecular point group: c1

    Geometry (in Angstrom), charge = 0, multiplicity = 1:

       Center              X                  Y                   Z               Mass
    ------------   -----------------  -----------------  -----------------  -----------------
         CL           0.995473676013     2.294902391626    -0.006361118453    34.968852682000
         O           -2.583030323987    -1.559625608374    -0.025202118453    15.994914619570
         N           -1.196859323987     0.288355391626    -0.015124118453    14.003074004430
         C            0.081209676013    -0.289539608374    -0.004890118453    12.000000000000
         C            1.159906676013     0.420252991626    -0.000346618453    12.000000000000
         C            0.299995676013    -1.677362608374    -0.000289118453    12.000000000000
         C            2.501552676013     0.050443391626     0.010428881547    12.000000000000
         C            1.599235676013    -2.182181608374     0.010163881547    12.000000000000
         C            2.702464676013    -1.328973608374     0.015385881547    12.000000000000
         C           -2.426212323987    -0.339589608374    -0.016157118453    12.000000000000
         C           -3.590898323987     0.628934391626     0.037544881547    12.000000000000
         H           -0.556682323987    -2.337661608374    -0.005185118453     1.007825032230
         H           -1.208958323987     1.301704391626    -0.011930118453     1.007825032230
         H            3.340522676013     0.740440391626     0.014130881547     1.007825032230
         H            1.742994676013    -3.259593608374     0.013624881547     1.007825032230
         H            3.713284676013    -1.727300608374     0.023324881547     1.007825032230
         H           -3.747200323987     0.963183391626     1.067872881547     1.007825032230
         H           -4.485286323987     0.105214391626    -0.299042118453     1.007825032230
         H           -3.425039323987     1.509484391626    -0.589223118453     1.007825032230

  Basis Set: AUG-CC-PVTZ
    Blend: AUG-CC-PVTZ
  Basis Set: (AUG-CC-PVTZ AUX)
    Blend: AUG-CC-PVTZ-JKFIT
	 Reference Energy          =    -896.5891252902623592 [Eh]
	 Singles Energy            =      -0.0000000000000000 [Eh]
	 Same-Spin Energy          =      -0.5329860208271476 [Eh]
	 Opposite-Spin Energy      =      -1.6196772440923968 [Eh]
	 Correlation Energy        =      -2.1526632649195445 [Eh]
	 Total Energy              =    -898.7417885551818699 [Eh]

	 ================> DF-SCS-MP2 Energies <==================
	-----------------------------------------------------------
	 SCS Same-Spin Scale       =       0.3333333333333333 [-]
	 SCS Opposite-Spin Scale   =       1.2000000000000000 [-]
	 SCS Same-Spin Energy      =      -0.1776620069423825 [Eh]
	 SCS Opposite-Spin Energy  =      -1.9436126929108761 [Eh]
	 SCS Correlation Energy    =      -2.1212746998532586 [Eh]
	 SCS Total Energy          =    -898.7103999901156612 [Eh]
	-----------------------------------------------------------

  Dipole Moment: [D]
     X:     0.6783      Y:     1.1936      Z:     0.0925     Total:     1.3760

*** Psi4 exiting successfully. Buy a developer a beer!
