                               Psi4 1.4a3.dev225

  ==> Input File <==

--------------------------------------------------------------------------
#psi4
#
memory 32 gb

molecule  {
0 1
 Cl        1.0239510     2.3134080    -0.0075990
  O       -2.5545530    -1.5411200    -0.0264400
  N       -1.1683820     0.3068610    -0.0163620
  C        0.1096870    -0.2710340    -0.0061280
  C        1.2343910     0.5769770    -0.0015960
  C        0.3284730    -1.6588570    -0.0015270
  C        2.5300300     0.0689490     0.0091910
  C        1.6277130    -2.1636760     0.0089260
  C        2.7309420    -1.3104680     0.0141480
  C       -2.3977350    -0.3210840    -0.0173950
  C       -3.5624210     0.6474400     0.0363070
  H       -0.5282050    -2.3191560    -0.0064230
  H       -1.1804810     1.3202100    -0.0131680
  H        3.2917659     0.6954261     0.0125522
  H        1.7714720    -3.2410880     0.0123870
  H        3.7417620    -1.7087950     0.0220870
  H       -3.7187230     0.9816890     1.0666350
  H       -4.4568090     0.1237200    -0.3002800
  H       -3.3965620     1.5279900    -0.5904610
units angstrom
no_reorient  #important for SAPT in psi4, default
symmetry c1  #important for SAPT in psi4, default
}

set PROPERTIES_ORIGIN ["COM"]
properties('MP2/aug-cc-pvtz', properties = ['dipole'])
--------------------------------------------------------------------------

    Molecular point group: c1
  Charge       = 0
  Multiplicity = 1
  Basis Set: AUG-CC-PVTZ
    Blend: AUG-CC-PVTZ
  Basis Set: (AUG-CC-PVTZ AUX)
    Blend: AUG-CC-PVTZ-JKFIT

    Orbital Energies [Eh]
    ---------------------

    Doubly Occupied:

       1A   -104.856674     2A    -20.535416     3A    -15.613378
       4A    -11.371567     5A    -11.308508     6A    -11.307368
       7A    -11.248269     8A    -11.247818     9A    -11.245668
      10A    -11.243402    11A    -11.239830    12A    -10.580491
      13A     -8.047353    14A     -8.045608    15A     -8.045508
      16A     -1.390473    17A     -1.271162    18A     -1.182593
      19A     -1.125123    20A     -1.046325    21A     -1.011793
      22A     -0.987310    23A     -0.874306    24A     -0.832027
      25A     -0.795165    26A     -0.737707    27A     -0.692121
      28A     -0.676210    29A     -0.636033    30A     -0.633649
      31A     -0.631661    32A     -0.599195    33A     -0.591817
      34A     -0.574642    35A     -0.570359    36A     -0.540784
      37A     -0.528801    38A     -0.515704    39A     -0.479698
      40A     -0.470927    41A     -0.451324    42A     -0.434467
      43A     -0.344456    44A     -0.318558

  @DF-RHF Final Energy:  -896.60111822758086

   => Energetics <=

    Nuclear Repulsion Energy =            656.8313775866139395
    One-Electron Energy =               -2533.1025006311283505
    Two-Electron Energy =                 979.6700048169334423
    Total Energy =                       -896.6011182275808551
  Basis Set: (AUG-CC-PVTZ AUX)
    Blend: AUG-CC-PVTZ-RI
    Molecular point group: c1

    Geometry (in Angstrom), charge = 0, multiplicity = 1:

       Center              X                  Y                   Z               Mass
    ------------   -----------------  -----------------  -----------------  -----------------
         CL           0.992667978164     2.285468509339    -0.006358270033    34.968852682000
         O           -2.585836021836    -1.569059490661    -0.025199270033    15.994914619570
         N           -1.199665021836     0.278921509339    -0.015121270033    14.003074004430
         C            0.078403978164    -0.298973490661    -0.004887270033    12.000000000000
         C            1.203107978164     0.549037509339    -0.000355270033    12.000000000000
         C            0.297189978164    -1.686796490661    -0.000286270033    12.000000000000
         C            2.498746978164     0.041009509339     0.010431729967    12.000000000000
         C            1.596429978164    -2.191615490661     0.010166729967    12.000000000000
         C            2.699658978164    -1.338407490661     0.015388729967    12.000000000000
         C           -2.429018021836    -0.349023490661    -0.016154270033    12.000000000000
         C           -3.593704021836     0.619500509339     0.037547729967    12.000000000000
         H           -0.559488021836    -2.347095490661    -0.005182270033     1.007825032230
         H           -1.211764021836     1.292270509339    -0.011927270033     1.007825032230
         H            3.260482878164     0.667486609339     0.013792929967     1.007825032230
         H            1.740188978164    -3.269027490661     0.013627729967     1.007825032230
         H            3.710478978164    -1.736734490661     0.023327729967     1.007825032230
         H           -3.750006021836     0.953749509339     1.067875729967     1.007825032230
         H           -4.488092021836     0.095780509339    -0.299039270033     1.007825032230
         H           -3.427845021836     1.500050509339    -0.589220270033     1.007825032230

  Basis Set: AUG-CC-PVTZ
    Blend: AUG-CC-PVTZ
  Basis Set: (AUG-CC-PVTZ AUX)
    Blend: AUG-CC-PVTZ-JKFIT
	 Reference Energy          =    -896.6011182275808551 [Eh]
	 Singles Energy            =      -0.0000000000000000 [Eh]
	 Same-Spin Energy          =      -0.5337627381333159 [Eh]
	 Opposite-Spin Energy      =      -1.6199704730704860 [Eh]
	 Correlation Energy        =      -2.1537332112038019 [Eh]
	 Total Energy              =    -898.7548514387846126 [Eh]

	 ================> DF-SCS-MP2 Energies <==================
	-----------------------------------------------------------
	 SCS Same-Spin Scale       =       0.3333333333333333 [-]
	 SCS Opposite-Spin Scale   =       1.2000000000000000 [-]
	 SCS Same-Spin Energy      =      -0.1779209127111053 [Eh]
	 SCS Opposite-Spin Energy  =      -1.9439645676845831 [Eh]
	 SCS Correlation Energy    =      -2.1218854803956884 [Eh]
	 SCS Total Energy          =    -898.7230037079765452 [Eh]
	-----------------------------------------------------------

  Dipole Moment: [D]
     X:     0.5945      Y:     1.8692      Z:     0.0889     Total:     1.9634

*** Psi4 exiting successfully. Buy a developer a beer!
