                               Psi4 1.4a3.dev225

  ==> Input File <==

--------------------------------------------------------------------------
#psi4
#
memory 32 gb

molecule  {
0 1
 Cl        1.0239510     2.3134080    -0.0075990
  O       -2.5545530    -1.5411200    -0.0264400
  N       -1.1683820     0.3068610    -0.0163620
  C        0.1096870    -0.2710340    -0.0061280
  C        1.2343910     0.5769770    -0.0015960
  C        0.3284730    -1.6588570    -0.0015270
  C        2.5300300     0.0689490     0.0091910
  C        1.6090713    -2.1564328     0.0087760
  C        2.7309420    -1.3104680     0.0141480
  C       -2.3977350    -0.3210840    -0.0173950
  C       -3.5624210     0.6474400     0.0363070
  H       -0.5282050    -2.3191560    -0.0064230
  H       -1.1804810     1.3202100    -0.0131680
  H        3.3690000     0.7589460     0.0128930
  H        1.7714720    -3.2410880     0.0123870
  H        3.7417620    -1.7087950     0.0220870
  H       -3.7187230     0.9816890     1.0666350
  H       -4.4568090     0.1237200    -0.3002800
  H       -3.3965620     1.5279900    -0.5904610
units angstrom
no_reorient  #important for SAPT in psi4, default
symmetry c1  #important for SAPT in psi4, default
}

set PROPERTIES_ORIGIN ["COM"]
properties('MP2/aug-cc-pvtz', properties = ['dipole'])
--------------------------------------------------------------------------

    Molecular point group: c1
  Charge       = 0
  Multiplicity = 1
  Basis Set: AUG-CC-PVTZ
    Blend: AUG-CC-PVTZ
  Basis Set: (AUG-CC-PVTZ AUX)
    Blend: AUG-CC-PVTZ-JKFIT

    Orbital Energies [Eh]
    ---------------------

    Doubly Occupied:

       1A   -104.856266     2A    -20.535682     3A    -15.613831
       4A    -11.371906     5A    -11.309101     6A    -11.307550
       7A    -11.256807     8A    -11.248483     9A    -11.247961
      10A    -11.244832    11A    -11.237927    12A    -10.580079
      13A     -8.046941    14A     -8.045195    15A     -8.045093
      16A     -1.390789    17A     -1.271578    18A     -1.181994
      19A     -1.125926    20A     -1.044736    21A     -1.010969
      22A     -0.986548    23A     -0.871355    24A     -0.830517
      25A     -0.790383    26A     -0.735337    27A     -0.688519
      28A     -0.676636    29A     -0.636574    30A     -0.633899
      31A     -0.620550    32A     -0.597443    33A     -0.591095
      34A     -0.575087    35A     -0.570604    36A     -0.540818
      37A     -0.528901    38A     -0.510595    39A     -0.480127
      40A     -0.470927    41A     -0.451468    42A     -0.434590
      43A     -0.347093    44A     -0.317471

  @DF-RHF Final Energy:  -896.60654368151290

   => Energetics <=

    Nuclear Repulsion Energy =            656.5334325576554875
    One-Electron Energy =               -2532.5595876082547875
    Two-Electron Energy =                 979.4196113690863967
    Total Energy =                       -896.6065436815129033
  Basis Set: (AUG-CC-PVTZ AUX)
    Blend: AUG-CC-PVTZ-RI
    Molecular point group: c1

    Geometry (in Angstrom), charge = 0, multiplicity = 1:

       Center              X                  Y                   Z               Mass
    ------------   -----------------  -----------------  -----------------  -----------------
         CL           0.993530916237     2.284575556349    -0.006349652995    34.968852682000
         O           -2.584973083763    -1.569952443651    -0.025190652995    15.994914619570
         N           -1.198802083763     0.278028556349    -0.015112652995    14.003074004430
         C            0.079266916237    -0.299866443651    -0.004878652995    12.000000000000
         C            1.203970916237     0.548144556349    -0.000346652995    12.000000000000
         C            0.298052916237    -1.687689443651    -0.000277652995    12.000000000000
         C            2.499609916237     0.040116556349     0.010440347005    12.000000000000
         C            1.578651216237    -2.185265243651     0.010025347005    12.000000000000
         C            2.700521916237    -1.339300443651     0.015397347005    12.000000000000
         C           -2.428155083763    -0.349916443651    -0.016145652995    12.000000000000
         C           -3.592841083763     0.618607556349     0.037556347005    12.000000000000
         H           -0.558625083763    -2.347988443651    -0.005173652995     1.007825032230
         H           -1.210901083763     1.291377556349    -0.011918652995     1.007825032230
         H            3.338579916237     0.730113556349     0.014142347005     1.007825032230
         H            1.741051916237    -3.269920443651     0.013636347005     1.007825032230
         H            3.711341916237    -1.737627443651     0.023336347005     1.007825032230
         H           -3.749143083763     0.952856556349     1.067884347005     1.007825032230
         H           -4.487229083763     0.094887556349    -0.299030652995     1.007825032230
         H           -3.426982083763     1.499157556349    -0.589211652995     1.007825032230

  Basis Set: AUG-CC-PVTZ
    Blend: AUG-CC-PVTZ
  Basis Set: (AUG-CC-PVTZ AUX)
    Blend: AUG-CC-PVTZ-JKFIT
	 Reference Energy          =    -896.6065436815129033 [Eh]
	 Singles Energy            =      -0.0000000000000000 [Eh]
	 Same-Spin Energy          =      -0.5339426845450053 [Eh]
	 Opposite-Spin Energy      =      -1.6204198760430015 [Eh]
	 Correlation Energy        =      -2.1543625605880070 [Eh]
	 Total Energy              =    -898.7609062421008730 [Eh]

	 ================> DF-SCS-MP2 Energies <==================
	-----------------------------------------------------------
	 SCS Same-Spin Scale       =       0.3333333333333333 [-]
	 SCS Opposite-Spin Scale   =       1.2000000000000000 [-]
	 SCS Same-Spin Energy      =      -0.1779808948483351 [Eh]
	 SCS Opposite-Spin Energy  =      -1.9445038512516017 [Eh]
	 SCS Correlation Energy    =      -2.1224847460999370 [Eh]
	 SCS Total Energy          =    -898.7290284276128887 [Eh]
	-----------------------------------------------------------

  Dipole Moment: [D]
     X:     0.5907      Y:     1.8660      Z:     0.0890     Total:     1.9593

*** Psi4 exiting successfully. Buy a developer a beer!
