                               Psi4 1.4a3.dev225

  ==> Input File <==

--------------------------------------------------------------------------
#psi4
#
memory 32 gb

molecule  {
0 1
 Cl        1.0239510     2.3134080    -0.0075990
  O       -2.5545530    -1.5411200    -0.0264400
  N       -1.1683820     0.3068610    -0.0163620
  C        0.1096870    -0.2710340    -0.0061280
  C        1.3142376     0.6371802    -0.0012743
  C        0.3284730    -1.6588570    -0.0015270
  C        2.5300300     0.0689490     0.0091910
  C        1.6277130    -2.1636760     0.0089260
  C        2.7309420    -1.3104680     0.0141480
  C       -2.3977350    -0.3210840    -0.0173950
  C       -3.5624210     0.6474400     0.0363070
  H       -0.5282050    -2.3191560    -0.0064230
  H       -1.1804810     1.3202100    -0.0131680
  H        3.3690000     0.7589460     0.0128930
  H        1.7714720    -3.2410880     0.0123870
  H        3.7417620    -1.7087950     0.0220870
  H       -3.7187230     0.9816890     1.0666350
  H       -4.4568090     0.1237200    -0.3002800
  H       -3.3965620     1.5279900    -0.5904610
units angstrom
no_reorient  #important for SAPT in psi4, default
symmetry c1  #important for SAPT in psi4, default
}

set PROPERTIES_ORIGIN ["COM"]
properties('MP2/aug-cc-pvtz', properties = ['dipole'])
--------------------------------------------------------------------------

    Molecular point group: c1
  Charge       = 0
  Multiplicity = 1
  Basis Set: AUG-CC-PVTZ
    Blend: AUG-CC-PVTZ
  Basis Set: (AUG-CC-PVTZ AUX)
    Blend: AUG-CC-PVTZ-JKFIT

    Orbital Energies [Eh]
    ---------------------

    Doubly Occupied:

       1A   -104.861676     2A    -20.535937     3A    -15.614874
       4A    -11.371690     5A    -11.315346     6A    -11.309087
       7A    -11.249685     8A    -11.248617     9A    -11.247438
      10A    -11.240890    11A    -11.236019    12A    -10.586162
      13A     -8.053145    14A     -8.051238    15A     -8.051137
      16A     -1.390533    17A     -1.268510    18A     -1.190109
      19A     -1.128397    20A     -1.042305    21A     -1.013396
      22A     -0.979679    23A     -0.869368    24A     -0.828263
      25A     -0.784599    26A     -0.736639    27A     -0.687326
      28A     -0.677357    29A     -0.635335    30A     -0.632967
      31A     -0.614171    32A     -0.600974    33A     -0.596153
      34A     -0.573050    35A     -0.569442    36A     -0.539654
      37A     -0.533213    38A     -0.511393    39A     -0.481605
      40A     -0.471808    41A     -0.451695    42A     -0.433240
      43A     -0.349912    44A     -0.307296

  @DF-RHF Final Energy:  -896.59551479182176

   => Energetics <=

    Nuclear Repulsion Energy =            655.6871271364302629
    One-Electron Energy =               -2530.8226242177302083
    Two-Electron Energy =                 978.5399822894781892
    Total Energy =                       -896.5955147918217563
  Basis Set: (AUG-CC-PVTZ AUX)
    Blend: AUG-CC-PVTZ-RI
    Molecular point group: c1

    Geometry (in Angstrom), charge = 0, multiplicity = 1:

       Center              X                  Y                   Z               Mass
    ------------   -----------------  -----------------  -----------------  -----------------
         CL           0.986538882251     2.280815737976    -0.006383140652    34.968852682000
         O           -2.591965117749    -1.573712262024    -0.025224140652    15.994914619570
         N           -1.205794117749     0.274268737976    -0.015146140652    14.003074004430
         C            0.072274882251    -0.303626262024    -0.004912140652    12.000000000000
         C            1.276825482251     0.604587937976    -0.000058440652    12.000000000000
         C            0.291060882251    -1.691449262024    -0.000311140652    12.000000000000
         C            2.492617882251     0.036356737976     0.010406859348    12.000000000000
         C            1.590300882251    -2.196268262024     0.010141859348    12.000000000000
         C            2.693529882251    -1.343060262024     0.015363859348    12.000000000000
         C           -2.435147117749    -0.353676262024    -0.016179140652    12.000000000000
         C           -3.599833117749     0.614847737976     0.037522859348    12.000000000000
         H           -0.565617117749    -2.351748262024    -0.005207140652     1.007825032230
         H           -1.217893117749     1.287617737976    -0.011952140652     1.007825032230
         H            3.331587882251     0.726353737976     0.014108859348     1.007825032230
         H            1.734059882251    -3.273680262024     0.013602859348     1.007825032230
         H            3.704349882251    -1.741387262024     0.023302859348     1.007825032230
         H           -3.756135117749     0.949096737976     1.067850859348     1.007825032230
         H           -4.494221117749     0.091127737976    -0.299064140652     1.007825032230
         H           -3.433974117749     1.495397737976    -0.589245140652     1.007825032230

  Basis Set: AUG-CC-PVTZ
    Blend: AUG-CC-PVTZ
  Basis Set: (AUG-CC-PVTZ AUX)
    Blend: AUG-CC-PVTZ-JKFIT
	 Reference Energy          =    -896.5955147918217563 [Eh]
	 Singles Energy            =      -0.0000000000000000 [Eh]
	 Same-Spin Energy          =      -0.5343964214131712 [Eh]
	 Opposite-Spin Energy      =      -1.6215342229796610 [Eh]
	 Correlation Energy        =      -2.1559306443928321 [Eh]
	 Total Energy              =    -898.7514454362145671 [Eh]

	 ================> DF-SCS-MP2 Energies <==================
	-----------------------------------------------------------
	 SCS Same-Spin Scale       =       0.3333333333333333 [-]
	 SCS Opposite-Spin Scale   =       1.2000000000000000 [-]
	 SCS Same-Spin Energy      =      -0.1781321404710571 [Eh]
	 SCS Opposite-Spin Energy  =      -1.9458410675755931 [Eh]
	 SCS Correlation Energy    =      -2.1239732080466500 [Eh]
	 SCS Total Energy          =    -898.7194879998684200 [Eh]
	-----------------------------------------------------------

  Dipole Moment: [D]
     X:     0.5086      Y:     2.1254      Z:     0.0874     Total:     2.1871

*** Psi4 exiting successfully. Buy a developer a beer!
