                               Psi4 1.4a3.dev225

  ==> Input File <==

--------------------------------------------------------------------------
#psi4
#
memory 32 gb

molecule  {
0 1
 Cl        1.0239510     2.3134080    -0.0075990
  O       -2.5545530    -1.5411200    -0.0264400
  N       -1.1683820     0.3068610    -0.0163620
  C        0.1096870    -0.2710340    -0.0061280
  C        1.2343910     0.5769770    -0.0015960
  C        0.3284730    -1.6588570    -0.0015270
  C        2.5300300     0.0689490     0.0091910
  C        1.6743173    -2.1817841     0.0093010
  C        2.7309420    -1.3104680     0.0141480
  C       -2.3977350    -0.3210840    -0.0173950
  C       -3.5624210     0.6474400     0.0363070
  H       -0.5282050    -2.3191560    -0.0064230
  H       -1.1804810     1.3202100    -0.0131680
  H        3.3690000     0.7589460     0.0128930
  H        1.7714720    -3.2410880     0.0123870
  H        3.7417620    -1.7087950     0.0220870
  H       -3.7187230     0.9816890     1.0666350
  H       -4.4568090     0.1237200    -0.3002800
  H       -3.3965620     1.5279900    -0.5904610
units angstrom
no_reorient  #important for SAPT in psi4, default
symmetry c1  #important for SAPT in psi4, default
}

set PROPERTIES_ORIGIN ["COM"]
properties('MP2/aug-cc-pvtz', properties = ['dipole'])
--------------------------------------------------------------------------

    Molecular point group: c1
  Charge       = 0
  Multiplicity = 1
  Basis Set: AUG-CC-PVTZ
    Blend: AUG-CC-PVTZ
  Basis Set: (AUG-CC-PVTZ AUX)
    Blend: AUG-CC-PVTZ-JKFIT

    Orbital Energies [Eh]
    ---------------------

    Doubly Occupied:

       1A   -104.857068     2A    -20.535168     3A    -15.612911
       4A    -11.371180     5A    -11.310216     6A    -11.307375
       7A    -11.257519     8A    -11.248860     9A    -11.248028
      10A    -11.244385    11A    -11.242144    12A    -10.580885
      13A     -8.047745    14A     -8.045992    15A     -8.045896
      16A     -1.390120    17A     -1.270735    18A     -1.181734
      19A     -1.123828    20A     -1.045365    21A     -1.004172
      22A     -0.990063    23A     -0.871844    24A     -0.830895
      25A     -0.788703    26A     -0.737465    27A     -0.688537
      28A     -0.675516    29A     -0.636730    30A     -0.633289
      31A     -0.624896    32A     -0.596770    33A     -0.590700
      34A     -0.574209    35A     -0.569853    36A     -0.532186
      37A     -0.528855    38A     -0.519911    39A     -0.478959
      40A     -0.470831    41A     -0.451873    42A     -0.434032
      43A     -0.339295    44A     -0.322063

  @DF-RHF Final Energy:  -896.60370651485209

   => Energetics <=

    Nuclear Repulsion Energy =            655.6040783757687223
    One-Electron Energy =               -2530.6979716887858558
    Two-Electron Energy =                 978.4901867981650412
    Total Energy =                       -896.6037065148520924
  Basis Set: (AUG-CC-PVTZ AUX)
    Blend: AUG-CC-PVTZ-RI
    Molecular point group: c1

    Geometry (in Angstrom), charge = 0, multiplicity = 1:

       Center              X                  Y                   Z               Mass
    ------------   -----------------  -----------------  -----------------  -----------------
         CL           0.988898871117     2.286375335117    -0.006386924608    34.968852682000
         O           -2.589605128883    -1.568152664883    -0.025227924608    15.994914619570
         N           -1.203434128883     0.279828335117    -0.015149924608    14.003074004430
         C            0.074634871117    -0.298066664883    -0.004915924608    12.000000000000
         C            1.199338871117     0.549944335117    -0.000383924608    12.000000000000
         C            0.293420871117    -1.685889664883    -0.000314924608    12.000000000000
         C            2.494977871117     0.041916335117     0.010403075392    12.000000000000
         C            1.639265171117    -2.208816764883     0.010513075392    12.000000000000
         C            2.695889871117    -1.337500664883     0.015360075392    12.000000000000
         C           -2.432787128883    -0.348116664883    -0.016182924608    12.000000000000
         C           -3.597473128883     0.620407335117     0.037519075392    12.000000000000
         H           -0.563257128883    -2.346188664883    -0.005210924608     1.007825032230
         H           -1.215533128883     1.293177335117    -0.011955924608     1.007825032230
         H            3.333947871117     0.731913335117     0.014105075392     1.007825032230
         H            1.736419871117    -3.268120664883     0.013599075392     1.007825032230
         H            3.706709871117    -1.735827664883     0.023299075392     1.007825032230
         H           -3.753775128883     0.954656335117     1.067847075392     1.007825032230
         H           -4.491861128883     0.096687335117    -0.299067924608     1.007825032230
         H           -3.431614128883     1.500957335117    -0.589248924608     1.007825032230

  Basis Set: AUG-CC-PVTZ
    Blend: AUG-CC-PVTZ
  Basis Set: (AUG-CC-PVTZ AUX)
    Blend: AUG-CC-PVTZ-JKFIT
	 Reference Energy          =    -896.6037065148520924 [Eh]
	 Singles Energy            =      -0.0000000000000000 [Eh]
	 Same-Spin Energy          =      -0.5339393575574960 [Eh]
	 Opposite-Spin Energy      =      -1.6207666257362718 [Eh]
	 Correlation Energy        =      -2.1547059832937681 [Eh]
	 Total Energy              =    -898.7584124981458444 [Eh]

	 ================> DF-SCS-MP2 Energies <==================
	-----------------------------------------------------------
	 SCS Same-Spin Scale       =       0.3333333333333333 [-]
	 SCS Opposite-Spin Scale   =       1.2000000000000000 [-]
	 SCS Same-Spin Energy      =      -0.1779797858524987 [Eh]
	 SCS Opposite-Spin Energy  =      -1.9449199508835262 [Eh]
	 SCS Correlation Energy    =      -2.1228997367360249 [Eh]
	 SCS Total Energy          =    -898.7266062515881231 [Eh]
	-----------------------------------------------------------

  Dipole Moment: [D]
     X:     0.5944      Y:     1.8651      Z:     0.0888     Total:     1.9596

*** Psi4 exiting successfully. Buy a developer a beer!
