                               Psi4 1.4a3.dev225

  ==> Input File <==

--------------------------------------------------------------------------
#psi4
#
memory 32 gb

molecule  {
0 1
 Cl        1.0239510     2.3134080    -0.0075990
  O       -2.5545530    -1.5411200    -0.0264400
  N       -1.1683820     0.3068610    -0.0163620
  C        0.1096870    -0.2710340    -0.0061280
  C        1.2343910     0.5769770    -0.0015960
  C        0.3284730    -1.6588570    -0.0015270
  C        2.5300300     0.0689490     0.0091910
  C        1.4412959    -2.0912438     0.0074262
  C        2.7309420    -1.3104680     0.0141480
  C       -2.3977350    -0.3210840    -0.0173950
  C       -3.5624210     0.6474400     0.0363070
  H       -0.5282050    -2.3191560    -0.0064230
  H       -1.1804810     1.3202100    -0.0131680
  H        3.3690000     0.7589460     0.0128930
  H        1.7714720    -3.2410880     0.0123870
  H        3.7417620    -1.7087950     0.0220870
  H       -3.7187230     0.9816890     1.0666350
  H       -4.4568090     0.1237200    -0.3002800
  H       -3.3965620     1.5279900    -0.5904610
units angstrom
no_reorient  #important for SAPT in psi4, default
symmetry c1  #important for SAPT in psi4, default
}

set PROPERTIES_ORIGIN ["COM"]
properties('MP2/aug-cc-pvtz', properties = ['dipole'])
--------------------------------------------------------------------------

    Molecular point group: c1
  Charge       = 0
  Multiplicity = 1
  Basis Set: AUG-CC-PVTZ
    Blend: AUG-CC-PVTZ
  Basis Set: (AUG-CC-PVTZ AUX)
    Blend: AUG-CC-PVTZ-JKFIT

    Orbital Energies [Eh]
    ---------------------

    Doubly Occupied:

       1A   -104.854865     2A    -20.537128     3A    -15.616537
       4A    -11.373882     5A    -11.312570     6A    -11.302922
       7A    -11.254997     8A    -11.251524     9A    -11.249779
      10A    -11.241571    11A    -11.215057    12A    -10.578655
      13A     -8.045518    14A     -8.043788    15A     -8.043675
      16A     -1.392647    17A     -1.274389    18A     -1.186143
      19A     -1.139922    20A     -1.045741    21A     -1.029606
      22A     -0.977862    23A     -0.869384    24A     -0.829239
      25A     -0.793775    26A     -0.728186    27A     -0.690720
      28A     -0.679635    29A     -0.642147    30A     -0.635865
      31A     -0.616257    32A     -0.600463    33A     -0.591196
      34A     -0.578815    35A     -0.569815    36A     -0.553238
      37A     -0.529717    38A     -0.487738    39A     -0.471161
      40A     -0.469690    41A     -0.453012    42A     -0.431650
      43A     -0.374123    44A     -0.306068

  @DF-RHF Final Energy:  -896.54418580941456

   => Energetics <=

    Nuclear Repulsion Energy =            659.3198942524805943
    One-Electron Energy =               -2537.9868165235602646
    Two-Electron Energy =                 982.1227364616652267
    Total Energy =                       -896.5441858094145573
  Basis Set: (AUG-CC-PVTZ AUX)
    Blend: AUG-CC-PVTZ-RI
    Molecular point group: c1

    Geometry (in Angstrom), charge = 0, multiplicity = 1:

       Center              X                  Y                   Z               Mass
    ------------   -----------------  -----------------  -----------------  -----------------
         CL           1.005441887376     2.279947557861    -0.006253825902    34.968852682000
         O           -2.573062112624    -1.574580442139    -0.025094825902    15.994914619570
         N           -1.186891112624     0.273400557861    -0.015016825902    14.003074004430
         C            0.091177887376    -0.304494442139    -0.004782825902    12.000000000000
         C            1.215881887376     0.543516557861    -0.000250825902    12.000000000000
         C            0.309963887376    -1.692317442139    -0.000181825902    12.000000000000
         C            2.511520887376     0.035488557861     0.010536174098    12.000000000000
         C            1.422786787376    -2.124704242139     0.008771374098    12.000000000000
         C            2.712432887376    -1.343928442139     0.015493174098    12.000000000000
         C           -2.416244112624    -0.354544442139    -0.016049825902    12.000000000000
         C           -3.580930112624     0.613979557861     0.037652174098    12.000000000000
         H           -0.546714112624    -2.352616442139    -0.005077825902     1.007825032230
         H           -1.198990112624     1.286749557861    -0.011822825902     1.007825032230
         H            3.350490887376     0.725485557861     0.014238174098     1.007825032230
         H            1.752962887376    -3.274548442139     0.013732174098     1.007825032230
         H            3.723252887376    -1.742255442139     0.023432174098     1.007825032230
         H           -3.737232112624     0.948228557861     1.067980174098     1.007825032230
         H           -4.475318112624     0.090259557861    -0.298934825902     1.007825032230
         H           -3.415071112624     1.494529557861    -0.589115825902     1.007825032230

  Basis Set: AUG-CC-PVTZ
    Blend: AUG-CC-PVTZ
  Basis Set: (AUG-CC-PVTZ AUX)
    Blend: AUG-CC-PVTZ-JKFIT
	 Reference Energy          =    -896.5441858094145573 [Eh]
	 Singles Energy            =      -0.0000000000000000 [Eh]
	 Same-Spin Energy          =      -0.5333922412814014 [Eh]
	 Opposite-Spin Energy      =      -1.6219751211254705 [Eh]
	 Correlation Energy        =      -2.1553673624068717 [Eh]
	 Total Energy              =    -898.6995531718214352 [Eh]

	 ================> DF-SCS-MP2 Energies <==================
	-----------------------------------------------------------
	 SCS Same-Spin Scale       =       0.3333333333333333 [-]
	 SCS Opposite-Spin Scale   =       1.2000000000000000 [-]
	 SCS Same-Spin Energy      =      -0.1777974137604671 [Eh]
	 SCS Opposite-Spin Energy  =      -1.9463701453505644 [Eh]
	 SCS Correlation Energy    =      -2.1241675591110316 [Eh]
	 SCS Total Energy          =    -898.6683533685255725 [Eh]
	-----------------------------------------------------------

  Dipole Moment: [D]
     X:     0.5574      Y:     1.9069      Z:     0.0892     Total:     1.9887

*** Psi4 exiting successfully. Buy a developer a beer!
