                               Psi4 1.4a3.dev225

  ==> Input File <==

--------------------------------------------------------------------------
#psi4
#
memory 32 gb

molecule  {
0 1
 Cl        1.0239510     2.3134080    -0.0075990
  O       -2.5545530    -1.5411200    -0.0264400
  N       -1.1683820     0.3068610    -0.0163620
  C        0.1096870    -0.2710340    -0.0061280
  C        1.2343910     0.5769770    -0.0015960
  C        0.3284730    -1.6588570    -0.0015270
  C        2.6753165     0.0823964     0.0101369
  C        1.6277130    -2.1636760     0.0089260
  C        2.7309420    -1.3104680     0.0141480
  C       -2.3977350    -0.3210840    -0.0173950
  C       -3.5624210     0.6474400     0.0363070
  H       -0.5282050    -2.3191560    -0.0064230
  H       -1.1804810     1.3202100    -0.0131680
  H        3.3690000     0.7589460     0.0128930
  H        1.7714720    -3.2410880     0.0123870
  H        3.7417620    -1.7087950     0.0220870
  H       -3.7187230     0.9816890     1.0666350
  H       -4.4568090     0.1237200    -0.3002800
  H       -3.3965620     1.5279900    -0.5904610
units angstrom
no_reorient  #important for SAPT in psi4, default
symmetry c1  #important for SAPT in psi4, default
}

set PROPERTIES_ORIGIN ["COM"]
properties('MP2/aug-cc-pvtz', properties = ['dipole'])
--------------------------------------------------------------------------

    Molecular point group: c1
  Charge       = 0
  Multiplicity = 1
  Basis Set: AUG-CC-PVTZ
    Blend: AUG-CC-PVTZ
  Basis Set: (AUG-CC-PVTZ AUX)
    Blend: AUG-CC-PVTZ-JKFIT

    Orbital Energies [Eh]
    ---------------------

    Doubly Occupied:

       1A   -104.854670     2A    -20.535355     3A    -15.613228
       4A    -11.371972     5A    -11.318476     6A    -11.308473
       7A    -11.262516     8A    -11.249911     9A    -11.248633
      10A    -11.248336    11A    -11.245053    12A    -10.578511
      13A     -8.045359    14A     -8.043637    15A     -8.043550
      16A     -1.390714    17A     -1.270252    18A     -1.172102
      19A     -1.123083    20A     -1.046882    21A     -1.008091
      22A     -0.981527    23A     -0.873266    24A     -0.826967
      25A     -0.798169    26A     -0.738092    27A     -0.691185
      28A     -0.673746    29A     -0.648263    30A     -0.633520
      31A     -0.628115    32A     -0.600808    33A     -0.584350
      34A     -0.571271    35A     -0.570015    36A     -0.540856
      37A     -0.525013    38A     -0.515070    39A     -0.478679
      40A     -0.461481    41A     -0.450943    42A     -0.434633
      43A     -0.337351    44A     -0.319578

  @DF-RHF Final Energy:  -896.57774833148187

   => Energetics <=

    Nuclear Repulsion Energy =            653.3768065611781140
    One-Electron Energy =               -2526.1857078676612218
    Two-Electron Energy =                 976.2311529750013506
    Total Energy =                       -896.5777483314818710
  Basis Set: (AUG-CC-PVTZ AUX)
    Blend: AUG-CC-PVTZ-RI
    Molecular point group: c1

    Geometry (in Angstrom), charge = 0, multiplicity = 1:

       Center              X                  Y                   Z               Mass
    ------------   -----------------  -----------------  -----------------  -----------------
         CL           0.981893071482     2.284135098170    -0.006427454825    34.968852682000
         O           -2.596610928518    -1.570392901830    -0.025268454825    15.994914619570
         N           -1.210439928518     0.277588098170    -0.015190454825    14.003074004430
         C            0.067629071482    -0.300306901830    -0.004956454825    12.000000000000
         C            1.192333071482     0.547704098170    -0.000424454825    12.000000000000
         C            0.286415071482    -1.688129901830    -0.000355454825    12.000000000000
         C            2.633258571482     0.053123498170     0.011308445175    12.000000000000
         C            1.585655071482    -2.192948901830     0.010097545175    12.000000000000
         C            2.688884071482    -1.339740901830     0.015319545175    12.000000000000
         C           -2.439792928518    -0.350356901830    -0.016223454825    12.000000000000
         C           -3.604478928518     0.618167098170     0.037478545175    12.000000000000
         H           -0.570262928518    -2.348428901830    -0.005251454825     1.007825032230
         H           -1.222538928518     1.290937098170    -0.011996454825     1.007825032230
         H            3.326942071482     0.729673098170     0.014064545175     1.007825032230
         H            1.729414071482    -3.270360901830     0.013558545175     1.007825032230
         H            3.699704071482    -1.738067901830     0.023258545175     1.007825032230
         H           -3.760780928518     0.952416098170     1.067806545175     1.007825032230
         H           -4.498866928518     0.094447098170    -0.299108454825     1.007825032230
         H           -3.438619928518     1.498717098170    -0.589289454825     1.007825032230

  Basis Set: AUG-CC-PVTZ
    Blend: AUG-CC-PVTZ
  Basis Set: (AUG-CC-PVTZ AUX)
    Blend: AUG-CC-PVTZ-JKFIT
	 Reference Energy          =    -896.5777483314818710 [Eh]
	 Singles Energy            =      -0.0000000000000000 [Eh]
	 Same-Spin Energy          =      -0.5341967072394457 [Eh]
	 Opposite-Spin Energy      =      -1.6228663500765013 [Eh]
	 Correlation Energy        =      -2.1570630573159471 [Eh]
	 Total Energy              =    -898.7348113887977661 [Eh]

	 ================> DF-SCS-MP2 Energies <==================
	-----------------------------------------------------------
	 SCS Same-Spin Scale       =       0.3333333333333333 [-]
	 SCS Opposite-Spin Scale   =       1.2000000000000000 [-]
	 SCS Same-Spin Energy      =      -0.1780655690798152 [Eh]
	 SCS Opposite-Spin Energy  =      -1.9474396200918014 [Eh]
	 SCS Correlation Energy    =      -2.1255051891716166 [Eh]
	 SCS Total Energy          =    -898.7032535206534476 [Eh]
	-----------------------------------------------------------

  Dipole Moment: [D]
     X:     0.5966      Y:     1.8330      Z:     0.0893     Total:     1.9297

*** Psi4 exiting successfully. Buy a developer a beer!
