                               Psi4 1.4a3.dev225

  ==> Input File <==

--------------------------------------------------------------------------
#psi4
#
memory 32 gb

molecule  {
0 1
 Cl        1.0239510     2.3134080    -0.0075990
  O       -2.5545530    -1.5411200    -0.0264400
  N       -1.1683820     0.3068610    -0.0163620
  C        0.1096870    -0.2710340    -0.0061280
  C        1.2343910     0.5769770    -0.0015960
  C        0.3284730    -1.6588570    -0.0015270
  C        2.5300300     0.0689490     0.0091910
  C        1.6277130    -2.1636760     0.0089260
  C        2.7237356    -1.2609904     0.0139702
  C       -2.3977350    -0.3210840    -0.0173950
  C       -3.5624210     0.6474400     0.0363070
  H       -0.5282050    -2.3191560    -0.0064230
  H       -1.1804810     1.3202100    -0.0131680
  H        3.3690000     0.7589460     0.0128930
  H        1.7714720    -3.2410880     0.0123870
  H        3.7417620    -1.7087950     0.0220870
  H       -3.7187230     0.9816890     1.0666350
  H       -4.4568090     0.1237200    -0.3002800
  H       -3.3965620     1.5279900    -0.5904610
units angstrom
no_reorient  #important for SAPT in psi4, default
symmetry c1  #important for SAPT in psi4, default
}

set PROPERTIES_ORIGIN ["COM"]
properties('MP2/aug-cc-pvtz', properties = ['dipole'])
--------------------------------------------------------------------------

    Molecular point group: c1
  Charge       = 0
  Multiplicity = 1
  Basis Set: AUG-CC-PVTZ
    Blend: AUG-CC-PVTZ
  Basis Set: (AUG-CC-PVTZ AUX)
    Blend: AUG-CC-PVTZ-JKFIT

    Orbital Energies [Eh]
    ---------------------

    Doubly Occupied:

       1A   -104.856159     2A    -20.535414     3A    -15.613445
       4A    -11.371753     5A    -11.308599     6A    -11.307123
       7A    -11.251032     8A    -11.250884     9A    -11.248350
      10A    -11.243166    11A    -11.240413    12A    -10.579961
      13A     -8.046821    14A     -8.045080    15A     -8.044981
      16A     -1.390600    17A     -1.271318    18A     -1.183482
      19A     -1.125770    20A     -1.047784    21A     -1.011684
      22A     -0.984975    23A     -0.868338    24A     -0.833812
      25A     -0.788859    26A     -0.737009    27A     -0.688718
      28A     -0.672225    29A     -0.639302    30A     -0.633764
      31A     -0.622671    32A     -0.599393    33A     -0.590686
      34A     -0.575371    35A     -0.569908    36A     -0.529474
      37A     -0.529424    38A     -0.517206    39A     -0.479678
      40A     -0.470419    41A     -0.453000    42A     -0.433976
      43A     -0.347123    44A     -0.318180

  @DF-RHF Final Energy:  -896.60389870890617

   => Energetics <=

    Nuclear Repulsion Energy =            656.8912927104125856
    One-Electron Energy =               -2533.2757263568937560
    Two-Electron Energy =                 979.7805349375751121
    Total Energy =                       -896.6038987089061720
  Basis Set: (AUG-CC-PVTZ AUX)
    Blend: AUG-CC-PVTZ-RI
    Molecular point group: c1

    Geometry (in Angstrom), charge = 0, multiplicity = 1:

       Center              X                  Y                   Z               Mass
    ------------   -----------------  -----------------  -----------------  -----------------
         CL           0.992719083702     2.281577186389    -0.006347679374    34.968852682000
         O           -2.585784916298    -1.572950813611    -0.025188679374    15.994914619570
         N           -1.199613916298     0.275030186389    -0.015110679374    14.003074004430
         C            0.078455083702    -0.302864813611    -0.004876679374    12.000000000000
         C            1.203159083702     0.545146186389    -0.000344679374    12.000000000000
         C            0.297241083702    -1.690687813611    -0.000275679374    12.000000000000
         C            2.498798083702     0.037118186389     0.010442320626    12.000000000000
         C            1.596481083702    -2.195506813611     0.010177320626    12.000000000000
         C            2.692503683702    -1.292821213611     0.015221520626    12.000000000000
         C           -2.428966916298    -0.352914813611    -0.016143679374    12.000000000000
         C           -3.593652916298     0.615609186389     0.037558320626    12.000000000000
         H           -0.559436916298    -2.350986813611    -0.005171679374     1.007825032230
         H           -1.211712916298     1.288379186389    -0.011916679374     1.007825032230
         H            3.337768083702     0.727115186389     0.014144320626     1.007825032230
         H            1.740240083702    -3.272918813611     0.013638320626     1.007825032230
         H            3.710530083702    -1.740625813611     0.023338320626     1.007825032230
         H           -3.749954916298     0.949858186389     1.067886320626     1.007825032230
         H           -4.488040916298     0.091889186389    -0.299028679374     1.007825032230
         H           -3.427793916298     1.496159186389    -0.589209679374     1.007825032230

  Basis Set: AUG-CC-PVTZ
    Blend: AUG-CC-PVTZ
  Basis Set: (AUG-CC-PVTZ AUX)
    Blend: AUG-CC-PVTZ-JKFIT
	 Reference Energy          =    -896.6038987089061720 [Eh]
	 Singles Energy            =      -0.0000000000000000 [Eh]
	 Same-Spin Energy          =      -0.5339189156499164 [Eh]
	 Opposite-Spin Energy      =      -1.6204498053174390 [Eh]
	 Correlation Energy        =      -2.1543687209673554 [Eh]
	 Total Energy              =    -898.7582674298735128 [Eh]

	 ================> DF-SCS-MP2 Energies <==================
	-----------------------------------------------------------
	 SCS Same-Spin Scale       =       0.3333333333333333 [-]
	 SCS Opposite-Spin Scale   =       1.2000000000000000 [-]
	 SCS Same-Spin Energy      =      -0.1779729718833055 [Eh]
	 SCS Opposite-Spin Energy  =      -1.9445397663809267 [Eh]
	 SCS Correlation Energy    =      -2.1225127382642324 [Eh]
	 SCS Total Energy          =    -898.7264114471704488 [Eh]
	-----------------------------------------------------------

  Dipole Moment: [D]
     X:     0.5901      Y:     1.8538      Z:     0.0889     Total:     1.9475

*** Psi4 exiting successfully. Buy a developer a beer!
