                               Psi4 1.4a3.dev225

  ==> Input File <==

--------------------------------------------------------------------------
#psi4
#
memory 32 gb

molecule  {
0 1
 Cl        1.0239510     2.3134080    -0.0075990
  O       -2.5545530    -1.5411200    -0.0264400
  N       -1.1683820     0.3068610    -0.0163620
  C        0.1096870    -0.2710340    -0.0061280
  C        1.2343910     0.5769770    -0.0015960
  C        0.3284730    -1.6588570    -0.0015270
  C        2.5300300     0.0689490     0.0091910
  C        1.6277130    -2.1636760     0.0089260
  C        2.7309420    -1.3104680     0.0141480
  C       -2.3977350    -0.3210840    -0.0173950
  C       -3.5624210     0.6474400     0.0363070
  H       -0.6866105    -2.4412497    -0.0073283
  H       -1.1804810     1.3202100    -0.0131680
  H        3.3690000     0.7589460     0.0128930
  H        1.7714720    -3.2410880     0.0123870
  H        3.7417620    -1.7087950     0.0220870
  H       -3.7187230     0.9816890     1.0666350
  H       -4.4568090     0.1237200    -0.3002800
  H       -3.3965620     1.5279900    -0.5904610
units angstrom
no_reorient  #important for SAPT in psi4, default
symmetry c1  #important for SAPT in psi4, default
}

set PROPERTIES_ORIGIN ["COM"]
properties('MP2/aug-cc-pvtz', properties = ['dipole'])
--------------------------------------------------------------------------

    Molecular point group: c1
  Charge       = 0
  Multiplicity = 1
  Basis Set: AUG-CC-PVTZ
    Blend: AUG-CC-PVTZ
  Basis Set: (AUG-CC-PVTZ AUX)
    Blend: AUG-CC-PVTZ-JKFIT

    Orbital Energies [Eh]
    ---------------------

    Doubly Occupied:

       1A   -104.856559     2A    -20.535962     3A    -15.613738
       4A    -11.372643     5A    -11.309321     6A    -11.308154
       7A    -11.256328     8A    -11.255999     9A    -11.248771
      10A    -11.247822    11A    -11.243990    12A    -10.580366
      13A     -8.047227    14A     -8.045477    15A     -8.045377
      16A     -1.391649    17A     -1.271391    18A     -1.181767
      19A     -1.123933    20A     -1.043975    21A     -1.005100
      22A     -0.987704    23A     -0.866961    24A     -0.828173
      25A     -0.785900    26A     -0.735901    27A     -0.689719
      28A     -0.667406    29A     -0.636278    30A     -0.634124
      31A     -0.611579    32A     -0.596060    33A     -0.582427
      34A     -0.574881    35A     -0.568428    36A     -0.534013
      37A     -0.529277    38A     -0.504666    39A     -0.479752
      40A     -0.470299    41A     -0.451939    42A     -0.426561
      43A     -0.343782    44A     -0.318830

  @DF-RHF Final Energy:  -896.58316750964718

   => Energetics <=

    Nuclear Repulsion Energy =            655.4288163760674024
    One-Electron Energy =               -2530.4035509724931217
    Two-Electron Energy =                 978.3915670867784229
    Total Energy =                       -896.5831675096471827
  Basis Set: (AUG-CC-PVTZ AUX)
    Blend: AUG-CC-PVTZ-RI
    Molecular point group: c1

    Geometry (in Angstrom), charge = 0, multiplicity = 1:

       Center              X                  Y                   Z               Mass
    ------------   -----------------  -----------------  -----------------  -----------------
         CL           0.993151956387     2.285817751112    -0.006354904246    34.968852682000
         O           -2.585352043613    -1.568710248888    -0.025195904246    15.994914619570
         N           -1.199181043613     0.279270751112    -0.015117904246    14.003074004430
         C            0.078887956387    -0.298624248888    -0.004883904246    12.000000000000
         C            1.203591956387     0.549386751112    -0.000351904246    12.000000000000
         C            0.297673956387    -1.686447248888    -0.000282904246    12.000000000000
         C            2.499230956387     0.041358751112     0.010435095754    12.000000000000
         C            1.596913956387    -2.191266248888     0.010170095754    12.000000000000
         C            2.700142956387    -1.338058248888     0.015392095754    12.000000000000
         C           -2.428534043613    -0.348674248888    -0.016150904246    12.000000000000
         C           -3.593220043613     0.619849751112     0.037551095754    12.000000000000
         H           -0.717409543613    -2.468839948888    -0.006084204246     1.007825032230
         H           -1.211280043613     1.292619751112    -0.011923904246     1.007825032230
         H            3.338200956387     0.731355751112     0.014137095754     1.007825032230
         H            1.740672956387    -3.268678248888     0.013631095754     1.007825032230
         H            3.710962956387    -1.736385248888     0.023331095754     1.007825032230
         H           -3.749522043613     0.954098751112     1.067879095754     1.007825032230
         H           -4.487608043613     0.096129751112    -0.299035904246     1.007825032230
         H           -3.427361043613     1.500399751112    -0.589216904246     1.007825032230

  Basis Set: AUG-CC-PVTZ
    Blend: AUG-CC-PVTZ
  Basis Set: (AUG-CC-PVTZ AUX)
    Blend: AUG-CC-PVTZ-JKFIT
	 Reference Energy          =    -896.5831675096471827 [Eh]
	 Singles Energy            =      -0.0000000000000000 [Eh]
	 Same-Spin Energy          =      -0.5351123167888598 [Eh]
	 Opposite-Spin Energy      =      -1.6230929128765708 [Eh]
	 Correlation Energy        =      -2.1582052296654304 [Eh]
	 Total Energy              =    -898.7413727393126237 [Eh]

	 ================> DF-SCS-MP2 Energies <==================
	-----------------------------------------------------------
	 SCS Same-Spin Scale       =       0.3333333333333333 [-]
	 SCS Opposite-Spin Scale   =       1.2000000000000000 [-]
	 SCS Same-Spin Energy      =      -0.1783707722629533 [Eh]
	 SCS Opposite-Spin Energy  =      -1.9477114954518848 [Eh]
	 SCS Correlation Energy    =      -2.1260822677148381 [Eh]
	 SCS Total Energy          =    -898.7092497773620607 [Eh]
	-----------------------------------------------------------

  Dipole Moment: [D]
     X:     0.4722      Y:     1.8555      Z:     0.0880     Total:     1.9167

*** Psi4 exiting successfully. Buy a developer a beer!
