                               Psi4 1.4a3.dev225

  ==> Input File <==

--------------------------------------------------------------------------
#psi4
#
memory 32 gb

molecule  {
0 1
 Cl        1.0239510     2.3134080    -0.0075990
  O       -2.5545530    -1.5411200    -0.0264400
  N       -1.1683820     0.3068610    -0.0163620
  C        0.1096870    -0.2710340    -0.0061280
  C        1.2343910     0.5769770    -0.0015960
  C        0.3284730    -1.6588570    -0.0015270
  C        2.5300300     0.0689490     0.0091910
  C        1.6277130    -2.1636760     0.0089260
  C        2.7021163    -1.1125575     0.0134368
  C       -2.3977350    -0.3210840    -0.0173950
  C       -3.5624210     0.6474400     0.0363070
  H       -0.5282050    -2.3191560    -0.0064230
  H       -1.1804810     1.3202100    -0.0131680
  H        3.3690000     0.7589460     0.0128930
  H        1.7714720    -3.2410880     0.0123870
  H        3.7417620    -1.7087950     0.0220870
  H       -3.7187230     0.9816890     1.0666350
  H       -4.4568090     0.1237200    -0.3002800
  H       -3.3965620     1.5279900    -0.5904610
units angstrom
no_reorient  #important for SAPT in psi4, default
symmetry c1  #important for SAPT in psi4, default
}

set PROPERTIES_ORIGIN ["COM"]
properties('MP2/aug-cc-pvtz', properties = ['dipole'])
--------------------------------------------------------------------------

    Molecular point group: c1
  Charge       = 0
  Multiplicity = 1
  Basis Set: AUG-CC-PVTZ
    Blend: AUG-CC-PVTZ
  Basis Set: (AUG-CC-PVTZ AUX)
    Blend: AUG-CC-PVTZ-JKFIT

    Orbital Energies [Eh]
    ---------------------

    Doubly Occupied:

       1A   -104.855144     2A    -20.535277     3A    -15.613504
       4A    -11.372143     5A    -11.308591     6A    -11.304304
       7A    -11.258438     8A    -11.248513     9A    -11.241736
      10A    -11.238775    11A    -11.228382    12A    -10.578906
      13A     -8.045759    14A     -8.044039    15A     -8.043942
      16A     -1.390818    17A     -1.271769    18A     -1.192555
      19A     -1.130111    20A     -1.063022    21A     -1.016676
      22A     -0.976632    23A     -0.858148    24A     -0.844476
      25A     -0.784325    26A     -0.739568    27A     -0.690312
      28A     -0.663311    29A     -0.648655    30A     -0.634114
      31A     -0.624436    32A     -0.604738    33A     -0.589419
      34A     -0.578315    35A     -0.569137    36A     -0.532615
      37A     -0.532182    38A     -0.490087    39A     -0.481258
      40A     -0.463608    41A     -0.460274    42A     -0.430511
      43A     -0.362162    44A     -0.312750

  @DF-RHF Final Energy:  -896.54423795539219

   => Energetics <=

    Nuclear Repulsion Energy =            659.0521630513406990
    One-Electron Energy =               -2537.4859232030830754
    Two-Electron Energy =                 981.8895221963500717
    Total Energy =                       -896.5442379553921910
  Basis Set: (AUG-CC-PVTZ AUX)
    Blend: AUG-CC-PVTZ-RI
    Molecular point group: c1

    Geometry (in Angstrom), charge = 0, multiplicity = 1:

       Center              X                  Y                   Z               Mass
    ------------   -----------------  -----------------  -----------------  -----------------
         CL           0.994253914544     2.271039407979    -0.006309811415    34.968852682000
         O           -2.584250085456    -1.583488592021    -0.025150811415    15.994914619570
         N           -1.198079085456     0.264492407979    -0.015072811415    14.003074004430
         C            0.079989914544    -0.313402592021    -0.004838811415    12.000000000000
         C            1.204693914544     0.534608407979    -0.000306811415    12.000000000000
         C            0.298775914544    -1.701225592021    -0.000237811415    12.000000000000
         C            2.500332914544     0.026580407979     0.010480188585    12.000000000000
         C            1.598015914544    -2.206044592021     0.010215188585    12.000000000000
         C            2.672419214544    -1.154926092021     0.014725988585    12.000000000000
         C           -2.427432085456    -0.363452592021    -0.016105811415    12.000000000000
         C           -3.592118085456     0.605071407979     0.037596188585    12.000000000000
         H           -0.557902085456    -2.361524592021    -0.005133811415     1.007825032230
         H           -1.210178085456     1.277841407979    -0.011878811415     1.007825032230
         H            3.339302914544     0.716577407979     0.014182188585     1.007825032230
         H            1.741774914544    -3.283456592021     0.013676188585     1.007825032230
         H            3.712064914544    -1.751163592021     0.023376188585     1.007825032230
         H           -3.748420085456     0.939320407979     1.067924188585     1.007825032230
         H           -4.486506085456     0.081351407979    -0.298990811415     1.007825032230
         H           -3.426259085456     1.485621407979    -0.589171811415     1.007825032230

  Basis Set: AUG-CC-PVTZ
    Blend: AUG-CC-PVTZ
  Basis Set: (AUG-CC-PVTZ AUX)
    Blend: AUG-CC-PVTZ-JKFIT
	 Reference Energy          =    -896.5442379553921910 [Eh]
	 Singles Energy            =      -0.0000000000000000 [Eh]
	 Same-Spin Energy          =      -0.5334077319874684 [Eh]
	 Opposite-Spin Energy      =      -1.6219438645279771 [Eh]
	 Correlation Energy        =      -2.1553515965154455 [Eh]
	 Total Energy              =    -898.6995895519075930 [Eh]

	 ================> DF-SCS-MP2 Energies <==================
	-----------------------------------------------------------
	 SCS Same-Spin Scale       =       0.3333333333333333 [-]
	 SCS Opposite-Spin Scale   =       1.2000000000000000 [-]
	 SCS Same-Spin Energy      =      -0.1778025773291561 [Eh]
	 SCS Opposite-Spin Energy  =      -1.9463326374335725 [Eh]
	 SCS Correlation Energy    =      -2.1241352147627288 [Eh]
	 SCS Total Energy          =    -898.6683731701549505 [Eh]
	-----------------------------------------------------------

  Dipole Moment: [D]
     X:     0.5572      Y:     1.8318      Z:     0.0888     Total:     1.9167

*** Psi4 exiting successfully. Buy a developer a beer!
