                               Psi4 1.4a3.dev225

  ==> Input File <==

--------------------------------------------------------------------------
#psi4
#
memory 32 gb

molecule  {
0 1
 Cl        1.0239510     2.3134080    -0.0075990
  O       -2.5545530    -1.5411200    -0.0264400
  N       -1.1683820     0.3068610    -0.0163620
  C        0.1096870    -0.2710340    -0.0061280
  C        1.2343910     0.5769770    -0.0015960
  C        0.3284730    -1.6588570    -0.0015270
  C        2.5300300     0.0689490     0.0091910
  C        1.6277130    -2.1636760     0.0089260
  C        2.7309420    -1.3104680     0.0141480
  C       -2.3977350    -0.3210840    -0.0173950
  C       -3.5624210     0.6474400     0.0363070
  H       -0.5282050    -2.3191560    -0.0064230
  H       -1.1804810     1.3202100    -0.0131680
  H        3.3690000     0.7589460     0.0128930
  H        1.7714720    -3.2410880     0.0123870
  H        3.7417620    -1.7087950     0.0220870
  H       -3.7187230     0.9816890     1.0666350
  H       -4.3747344     0.1717798    -0.2693927
  H       -3.3965620     1.5279900    -0.5904610
units angstrom
no_reorient  #important for SAPT in psi4, default
symmetry c1  #important for SAPT in psi4, default
}

set PROPERTIES_ORIGIN ["COM"]
properties('MP2/aug-cc-pvtz', properties = ['dipole'])
--------------------------------------------------------------------------

    Molecular point group: c1
  Charge       = 0
  Multiplicity = 1
  Basis Set: AUG-CC-PVTZ
    Blend: AUG-CC-PVTZ
  Basis Set: (AUG-CC-PVTZ AUX)
    Blend: AUG-CC-PVTZ-JKFIT

    Orbital Energies [Eh]
    ---------------------

    Doubly Occupied:

       1A   -104.856316     2A    -20.535757     3A    -15.613058
       4A    -11.371253     5A    -11.308796     6A    -11.307663
       7A    -11.256877     8A    -11.248148     9A    -11.243915
      10A    -11.239774    11A    -11.236986    12A    -10.580131
      13A     -8.046992    14A     -8.045244    15A     -8.045145
      16A     -1.390745    17A     -1.271022    18A     -1.181682
      19A     -1.125018    20A     -1.048137    21A     -1.010889
      22A     -0.991759    23A     -0.873020    24A     -0.831101
      25A     -0.790592    26A     -0.736949    27A     -0.688367
      28A     -0.676947    29A     -0.636114    30A     -0.635066
      31A     -0.623736    32A     -0.596993    33A     -0.590847
      34A     -0.588616    35A     -0.574331    36A     -0.538715
      37A     -0.529199    38A     -0.513775    39A     -0.479651
      40A     -0.470783    41A     -0.451483    42A     -0.434301
      43A     -0.344481    44A     -0.318649

  @DF-RHF Final Energy:  -896.60076713505180

   => Energetics <=

    Nuclear Repulsion Energy =            656.7618440738276604
    One-Electron Energy =               -2532.9671735195365727
    Two-Electron Energy =                 979.6045623106571156
    Total Energy =                       -896.6007671350517967
  Basis Set: (AUG-CC-PVTZ AUX)
    Blend: AUG-CC-PVTZ-RI
    Molecular point group: c1

    Geometry (in Angstrom), charge = 0, multiplicity = 1:

       Center              X                  Y                   Z               Mass
    ------------   -----------------  -----------------  -----------------  -----------------
         CL           0.991718112305     2.284803223968    -0.006544465175    34.968852682000
         O           -2.586785887695    -1.569724776032    -0.025385465175    15.994914619570
         N           -1.200614887695     0.278256223968    -0.015307465175    14.003074004430
         C            0.077454112305    -0.299638776032    -0.005073465175    12.000000000000
         C            1.202158112305     0.548372223968    -0.000541465175    12.000000000000
         C            0.296240112305    -1.687461776032    -0.000472465175    12.000000000000
         C            2.497797112305     0.040344223968     0.010245534825    12.000000000000
         C            1.595480112305    -2.192280776032     0.009980534825    12.000000000000
         C            2.698709112305    -1.339072776032     0.015202534825    12.000000000000
         C           -2.429967887695    -0.349688776032    -0.016340465175    12.000000000000
         C           -3.594653887695     0.618835223968     0.037361534825    12.000000000000
         H           -0.560437887695    -2.347760776032    -0.005368465175     1.007825032230
         H           -1.212713887695     1.291605223968    -0.012113465175     1.007825032230
         H            3.336767112305     0.730341223968     0.013947534825     1.007825032230
         H            1.739239112305    -3.269692776032     0.013441534825     1.007825032230
         H            3.709529112305    -1.737399776032     0.023141534825     1.007825032230
         H           -3.750955887695     0.953084223968     1.067689534825     1.007825032230
         H           -4.406967287695     0.143175023968    -0.268338165175     1.007825032230
         H           -3.428794887695     1.499385223968    -0.589406465175     1.007825032230

  Basis Set: AUG-CC-PVTZ
    Blend: AUG-CC-PVTZ
  Basis Set: (AUG-CC-PVTZ AUX)
    Blend: AUG-CC-PVTZ-JKFIT
	 Reference Energy          =    -896.6007671350517967 [Eh]
	 Singles Energy            =      -0.0000000000000000 [Eh]
	 Same-Spin Energy          =      -0.5339589702136047 [Eh]
	 Opposite-Spin Energy      =      -1.6199675238480906 [Eh]
	 Correlation Energy        =      -2.1539264940616953 [Eh]
	 Total Energy              =    -898.7546936291134898 [Eh]

	 ================> DF-SCS-MP2 Energies <==================
	-----------------------------------------------------------
	 SCS Same-Spin Scale       =       0.3333333333333333 [-]
	 SCS Opposite-Spin Scale   =       1.2000000000000000 [-]
	 SCS Same-Spin Energy      =      -0.1779863234045349 [Eh]
	 SCS Opposite-Spin Energy  =      -1.9439610286177087 [Eh]
	 SCS Correlation Energy    =      -2.1219473520222434 [Eh]
	 SCS Total Energy          =    -898.7227144870740858 [Eh]
	-----------------------------------------------------------

  Dipole Moment: [D]
     X:     0.5721      Y:     1.8728      Z:     0.0873     Total:     1.9602

*** Psi4 exiting successfully. Buy a developer a beer!
