                               Psi4 1.4a3.dev225

  ==> Input File <==

--------------------------------------------------------------------------
#psi4
#
memory 32 gb

molecule  {
0 1
 Cl        1.0239510     2.3134080    -0.0075990
  O       -2.5545530    -1.5411200    -0.0264400
  N       -1.1683820     0.3068610    -0.0163620
  C        0.0914638    -0.2627942    -0.0062739
  C        1.2343910     0.5769770    -0.0015960
  C        0.3284730    -1.6588570    -0.0015270
  C        2.5300300     0.0689490     0.0091910
  C        1.6277130    -2.1636760     0.0089260
  C        2.7309420    -1.3104680     0.0141480
  C       -2.3977350    -0.3210840    -0.0173950
  C       -3.5624210     0.6474400     0.0363070
  H       -0.5282050    -2.3191560    -0.0064230
  H       -1.1804810     1.3202100    -0.0131680
  H        3.3690000     0.7589460     0.0128930
  H        1.7714720    -3.2410880     0.0123870
  H        3.7417620    -1.7087950     0.0220870
  H       -3.7187230     0.9816890     1.0666350
  H       -4.4568090     0.1237200    -0.3002800
  H       -3.3965620     1.5279900    -0.5904610
units angstrom
no_reorient  #important for SAPT in psi4, default
symmetry c1  #important for SAPT in psi4, default
}

set PROPERTIES_ORIGIN ["COM"]
properties('MP2/aug-cc-pvtz', properties = ['dipole'])
--------------------------------------------------------------------------

    Molecular point group: c1
  Charge       = 0
  Multiplicity = 1
  Basis Set: AUG-CC-PVTZ
    Blend: AUG-CC-PVTZ
  Basis Set: (AUG-CC-PVTZ AUX)
    Blend: AUG-CC-PVTZ-JKFIT

    Orbital Energies [Eh]
    ---------------------

    Doubly Occupied:

       1A   -104.855393     2A    -20.537431     3A    -15.615459
       4A    -11.373300     5A    -11.309816     6A    -11.308204
       7A    -11.256533     8A    -11.249460     9A    -11.247740
      10A    -11.243102    11A    -11.240217    12A    -10.579258
      13A     -8.046116    14A     -8.044381    15A     -8.044277
      16A     -1.392790    17A     -1.276814    18A     -1.180947
      19A     -1.123487    20A     -1.045548    21A     -1.008039
      22A     -0.986424    23A     -0.873378    24A     -0.830306
      25A     -0.790631    26A     -0.738957    27A     -0.689745
      28A     -0.676891    29A     -0.635915    30A     -0.634196
      31A     -0.621290    32A     -0.598146    33A     -0.590257
      34A     -0.575551    35A     -0.571677    36A     -0.538681
      37A     -0.529257    38A     -0.511559    39A     -0.479197
      40A     -0.470336    41A     -0.453656    42A     -0.435816
      43A     -0.343797    44A     -0.315793

  @DF-RHF Final Energy:  -896.60605248723778

   => Energetics <=

    Nuclear Repulsion Energy =            656.2733436175828956
    One-Electron Energy =               -2532.0192548332815932
    Two-Electron Energy =                 979.1398587284609221
    Total Energy =                       -896.6060524872377755
  Basis Set: (AUG-CC-PVTZ AUX)
    Blend: AUG-CC-PVTZ-RI
    Molecular point group: c1

    Geometry (in Angstrom), charge = 0, multiplicity = 1:

       Center              X                  Y                   Z               Mass
    ------------   -----------------  -----------------  -----------------  -----------------
         CL           0.993501205437     2.284504804178    -0.006349944068    34.968852682000
         O           -2.585002794563    -1.570023195822    -0.025190944068    15.994914619570
         N           -1.198831794563     0.277957804178    -0.015112944068    14.003074004430
         C            0.061014005437    -0.291697395822    -0.005024844068    12.000000000000
         C            1.203941205437     0.548073804178    -0.000346944068    12.000000000000
         C            0.298023205437    -1.687760195822    -0.000277944068    12.000000000000
         C            2.499580205437     0.040045804178     0.010440055932    12.000000000000
         C            1.597263205437    -2.192579195822     0.010175055932    12.000000000000
         C            2.700492205437    -1.339371195822     0.015397055932    12.000000000000
         C           -2.428184794563    -0.349987195822    -0.016145944068    12.000000000000
         C           -3.592870794563     0.618536804178     0.037556055932    12.000000000000
         H           -0.558654794563    -2.348059195822    -0.005173944068     1.007825032230
         H           -1.210930794563     1.291306804178    -0.011918944068     1.007825032230
         H            3.338550205437     0.730042804178     0.014142055932     1.007825032230
         H            1.741022205437    -3.269991195822     0.013636055932     1.007825032230
         H            3.711312205437    -1.737698195822     0.023336055932     1.007825032230
         H           -3.749172794563     0.952785804178     1.067884055932     1.007825032230
         H           -4.487258794563     0.094816804178    -0.299030944068     1.007825032230
         H           -3.427011794563     1.499086804178    -0.589211944068     1.007825032230

  Basis Set: AUG-CC-PVTZ
    Blend: AUG-CC-PVTZ
  Basis Set: (AUG-CC-PVTZ AUX)
    Blend: AUG-CC-PVTZ-JKFIT
	 Reference Energy          =    -896.6060524872377755 [Eh]
	 Singles Energy            =      -0.0000000000000000 [Eh]
	 Same-Spin Energy          =      -0.5342024388055114 [Eh]
	 Opposite-Spin Energy      =      -1.6207555696715041 [Eh]
	 Correlation Energy        =      -2.1549580084770157 [Eh]
	 Total Energy              =    -898.7610104957147996 [Eh]

	 ================> DF-SCS-MP2 Energies <==================
	-----------------------------------------------------------
	 SCS Same-Spin Scale       =       0.3333333333333333 [-]
	 SCS Opposite-Spin Scale   =       1.2000000000000000 [-]
	 SCS Same-Spin Energy      =      -0.1780674796018371 [Eh]
	 SCS Opposite-Spin Energy  =      -1.9449066836058049 [Eh]
	 SCS Correlation Energy    =      -2.1229741632076422 [Eh]
	 SCS Total Energy          =    -898.7290266504454621 [Eh]
	-----------------------------------------------------------

  Dipole Moment: [D]
     X:     0.4687      Y:     1.8780      Z:     0.0884     Total:     1.9376

*** Psi4 exiting successfully. Buy a developer a beer!
