                               Psi4 1.4a3.dev225

  ==> Input File <==

--------------------------------------------------------------------------
#psi4
#
memory 32 gb

molecule  {
0 1
 Cl        1.0239510     2.3134080    -0.0075990
  O       -2.5545530    -1.5411200    -0.0264400
  N       -1.1683820     0.3068610    -0.0163620
  C        0.1096870    -0.2710340    -0.0061280
  C        1.2343910     0.5769770    -0.0015960
  C        0.3284730    -1.6588570    -0.0015270
  C        2.5300300     0.0689490     0.0091910
  C        1.6277130    -2.1636760     0.0089260
  C        2.7309420    -1.3104680     0.0141480
  C       -2.3799240    -0.3119863    -0.0173800
  C       -3.5624210     0.6474400     0.0363070
  H       -0.5282050    -2.3191560    -0.0064230
  H       -1.1804810     1.3202100    -0.0131680
  H        3.3690000     0.7589460     0.0128930
  H        1.7714720    -3.2410880     0.0123870
  H        3.7417620    -1.7087950     0.0220870
  H       -3.7187230     0.9816890     1.0666350
  H       -4.4568090     0.1237200    -0.3002800
  H       -3.3965620     1.5279900    -0.5904610
units angstrom
no_reorient  #important for SAPT in psi4, default
symmetry c1  #important for SAPT in psi4, default
}

set PROPERTIES_ORIGIN ["COM"]
properties('MP2/aug-cc-pvtz', properties = ['dipole'])
--------------------------------------------------------------------------

    Molecular point group: c1
  Charge       = 0
  Multiplicity = 1
  Basis Set: AUG-CC-PVTZ
    Blend: AUG-CC-PVTZ
  Basis Set: (AUG-CC-PVTZ AUX)
    Blend: AUG-CC-PVTZ-JKFIT

    Orbital Energies [Eh]
    ---------------------

    Doubly Occupied:

       1A   -104.857809     2A    -20.531369     3A    -15.616683
       4A    -11.370155     5A    -11.310537     6A    -11.309309
       7A    -11.258027     8A    -11.249174     9A    -11.247513
      10A    -11.245542    11A    -11.241231    12A    -10.581622
      13A     -8.048482    14A     -8.046732    15A     -8.046632
      16A     -1.383502    17A     -1.274828    18A     -1.184347
      19A     -1.126449    20A     -1.045251    21A     -1.009263
      22A     -0.987467    23A     -0.875116    24A     -0.832303
      25A     -0.792236    26A     -0.738633    27A     -0.685864
      28A     -0.677150    29A     -0.636885    30A     -0.633636
      31A     -0.622062    32A     -0.594031    33A     -0.589391
      34A     -0.575482    35A     -0.570724    36A     -0.539248
      37A     -0.528889    38A     -0.514758    39A     -0.479813
      40A     -0.472228    41A     -0.449785    42A     -0.431246
      43A     -0.345639    44A     -0.321022

  @DF-RHF Final Energy:  -896.60590335414270

   => Energetics <=

    Nuclear Repulsion Energy =            656.4483115987258088
    One-Electron Energy =               -2532.3522992539510597
    Two-Electron Energy =                 979.2980843010824401
    Total Energy =                       -896.6059033541426970
  Basis Set: (AUG-CC-PVTZ AUX)
    Blend: AUG-CC-PVTZ-RI
    Molecular point group: c1

    Geometry (in Angstrom), charge = 0, multiplicity = 1:

       Center              X                  Y                   Z               Mass
    ------------   -----------------  -----------------  -----------------  -----------------
         CL           0.990943009681     2.284443898812    -0.006361366930    34.968852682000
         O           -2.587560990319    -1.570084101188    -0.025202366930    15.994914619570
         N           -1.201389990319     0.277896898812    -0.015124366930    14.003074004430
         C            0.076679009681    -0.299998101188    -0.004890366930    12.000000000000
         C            1.201383009681     0.548012898812    -0.000358366930    12.000000000000
         C            0.295465009681    -1.687821101188    -0.000289366930    12.000000000000
         C            2.497022009681     0.039984898812     0.010428633070    12.000000000000
         C            1.594705009681    -2.192640101188     0.010163633070    12.000000000000
         C            2.697934009681    -1.339432101188     0.015385633070    12.000000000000
         C           -2.412931990319    -0.340950401188    -0.016142366930    12.000000000000
         C           -3.595428990319     0.618475898812     0.037544633070    12.000000000000
         H           -0.561212990319    -2.348120101188    -0.005185366930     1.007825032230
         H           -1.213488990319     1.291245898812    -0.011930366930     1.007825032230
         H            3.335992009681     0.729981898812     0.014130633070     1.007825032230
         H            1.738464009681    -3.270052101188     0.013624633070     1.007825032230
         H            3.708754009681    -1.737759101188     0.023324633070     1.007825032230
         H           -3.751730990319     0.952724898812     1.067872633070     1.007825032230
         H           -4.489816990319     0.094755898812    -0.299042366930     1.007825032230
         H           -3.429569990319     1.499025898812    -0.589223366930     1.007825032230

  Basis Set: AUG-CC-PVTZ
    Blend: AUG-CC-PVTZ
  Basis Set: (AUG-CC-PVTZ AUX)
    Blend: AUG-CC-PVTZ-JKFIT
	 Reference Energy          =    -896.6059033541426970 [Eh]
	 Singles Energy            =      -0.0000000000000000 [Eh]
	 Same-Spin Energy          =      -0.5341045992639122 [Eh]
	 Opposite-Spin Energy      =      -1.6207660318110413 [Eh]
	 Correlation Energy        =      -2.1548706310749535 [Eh]
	 Total Energy              =    -898.7607739852176110 [Eh]

	 ================> DF-SCS-MP2 Energies <==================
	-----------------------------------------------------------
	 SCS Same-Spin Scale       =       0.3333333333333333 [-]
	 SCS Opposite-Spin Scale   =       1.2000000000000000 [-]
	 SCS Same-Spin Energy      =      -0.1780348664213041 [Eh]
	 SCS Opposite-Spin Energy  =      -1.9449192381732494 [Eh]
	 SCS Correlation Energy    =      -2.1229541045945535 [Eh]
	 SCS Total Energy          =    -898.7288574587372523 [Eh]
	-----------------------------------------------------------

  Dipole Moment: [D]
     X:     0.8116      Y:     1.9258      Z:     0.0886     Total:     2.0917

*** Psi4 exiting successfully. Buy a developer a beer!
