                               Psi4 1.4a3.dev225

  ==> Input File <==

--------------------------------------------------------------------------
#psi4
#
memory 32 gb

molecule  {
0 1
 Cl        1.0239510     2.3134080    -0.0075990
  O       -2.5545530    -1.5411200    -0.0264400
  N       -1.1683820     0.3068610    -0.0163620
  C        0.1096870    -0.2710340    -0.0061280
  C        1.2343910     0.5769770    -0.0015960
  C        0.3284730    -1.6588570    -0.0015270
  C        2.5300300     0.0689490     0.0091910
  C        1.6277130    -2.1636760     0.0089260
  C        2.7309420    -1.3104680     0.0141480
  C       -2.3731989    -0.2882772    -0.0508724
  C       -3.5624210     0.6474400     0.0363070
  H       -0.5282050    -2.3191560    -0.0064230
  H       -1.1804810     1.3202100    -0.0131680
  H        3.3690000     0.7589460     0.0128930
  H        1.7714720    -3.2410880     0.0123870
  H        3.7417620    -1.7087950     0.0220870
  H       -3.7187230     0.9816890     1.0666350
  H       -4.4568090     0.1237200    -0.3002800
  H       -3.3965620     1.5279900    -0.5904610
units angstrom
no_reorient  #important for SAPT in psi4, default
symmetry c1  #important for SAPT in psi4, default
}

set PROPERTIES_ORIGIN ["COM"]
properties('MP2/aug-cc-pvtz', properties = ['dipole'])
--------------------------------------------------------------------------

    Molecular point group: c1
  Charge       = 0
  Multiplicity = 1
  Basis Set: AUG-CC-PVTZ
    Blend: AUG-CC-PVTZ
  Basis Set: (AUG-CC-PVTZ AUX)
    Blend: AUG-CC-PVTZ-JKFIT

    Orbital Energies [Eh]
    ---------------------

    Doubly Occupied:

       1A   -104.859021     2A    -20.525917     3A    -15.620128
       4A    -11.369764     5A    -11.312214     6A    -11.310772
       7A    -11.258877     8A    -11.249803     9A    -11.248009
      10A    -11.246950    11A    -11.242281    12A    -10.582833
      13A     -8.049693    14A     -8.047940    15A     -8.047840
      16A     -1.371161    17A     -1.274506    18A     -1.186383
      19A     -1.127597    20A     -1.047789    21A     -1.010374
      22A     -0.989318    23A     -0.878228    24A     -0.833865
      25A     -0.793850    26A     -0.740954    27A     -0.684117
      28A     -0.677069    29A     -0.637555    30A     -0.633991
      31A     -0.622102    32A     -0.594420    33A     -0.582189
      34A     -0.576478    35A     -0.571789    36A     -0.539900
      37A     -0.527915    38A     -0.515437    39A     -0.479396
      40A     -0.473308    41A     -0.444630    42A     -0.428226
      43A     -0.346432    44A     -0.322920

  @DF-RHF Final Energy:  -896.60140490320452

   => Energetics <=

    Nuclear Repulsion Energy =            656.4266187345488106
    One-Electron Energy =               -2532.2881635486883170
    Two-Electron Energy =                 979.2601399109349813
    Total Energy =                       -896.6014049032045250
  Basis Set: (AUG-CC-PVTZ AUX)
    Blend: AUG-CC-PVTZ-RI
    Molecular point group: c1

    Geometry (in Angstrom), charge = 0, multiplicity = 1:

       Center              X                  Y                   Z               Mass
    ------------   -----------------  -----------------  -----------------  -----------------
         CL           0.990465570962     2.282760705651    -0.003983622578    34.968852682000
         O           -2.588038429038    -1.571767294349    -0.022824622578    15.994914619570
         N           -1.201867429038     0.276213705651    -0.012746622578    14.003074004430
         C            0.076201570962    -0.301681294349    -0.002512622578    12.000000000000
         C            1.200905570962     0.546329705651     0.002019377422    12.000000000000
         C            0.294987570962    -1.689504294349     0.002088377422    12.000000000000
         C            2.496544570962     0.038301705651     0.012806377422    12.000000000000
         C            1.594227570962    -2.194323294349     0.012541377422    12.000000000000
         C            2.697456570962    -1.341115294349     0.017763377422    12.000000000000
         C           -2.406684329038    -0.318924494349    -0.047257022578    12.000000000000
         C           -3.595906429038     0.616792705651     0.039922377422    12.000000000000
         H           -0.561690429038    -2.349803294349    -0.002807622578     1.007825032230
         H           -1.213966429038     1.289562705651    -0.009552622578     1.007825032230
         H            3.335514570962     0.728298705651     0.016508377422     1.007825032230
         H            1.737986570962    -3.271735294349     0.016002377422     1.007825032230
         H            3.708276570962    -1.739442294349     0.025702377422     1.007825032230
         H           -3.752208429038     0.951041705651     1.070250377422     1.007825032230
         H           -4.490294429038     0.093072705651    -0.296664622578     1.007825032230
         H           -3.430047429038     1.497342705651    -0.586845622578     1.007825032230

  Basis Set: AUG-CC-PVTZ
    Blend: AUG-CC-PVTZ
  Basis Set: (AUG-CC-PVTZ AUX)
    Blend: AUG-CC-PVTZ-JKFIT
	 Reference Energy          =    -896.6014049032045250 [Eh]
	 Singles Energy            =      -0.0000000000000000 [Eh]
	 Same-Spin Energy          =      -0.5346687568722697 [Eh]
	 Opposite-Spin Energy      =      -1.6219069139341182 [Eh]
	 Correlation Energy        =      -2.1565756708063879 [Eh]
	 Total Energy              =    -898.7579805740109578 [Eh]

	 ================> DF-SCS-MP2 Energies <==================
	-----------------------------------------------------------
	 SCS Same-Spin Scale       =       0.3333333333333333 [-]
	 SCS Opposite-Spin Scale   =       1.2000000000000000 [-]
	 SCS Same-Spin Energy      =      -0.1782229189574232 [Eh]
	 SCS Opposite-Spin Energy  =      -1.9462882967209418 [Eh]
	 SCS Correlation Energy    =      -2.1245112156783650 [Eh]
	 SCS Total Energy          =    -898.7259161188828784 [Eh]
	-----------------------------------------------------------

  Dipole Moment: [D]
     X:     0.9853      Y:     2.0503      Z:     0.0714     Total:     2.2758

*** Psi4 exiting successfully. Buy a developer a beer!
