                               Psi4 1.4a3.dev225

  ==> Input File <==

--------------------------------------------------------------------------
#psi4
#
memory 32 gb

molecule  {
0 1
 Cl        1.0239510     2.3134080    -0.0075990
  O       -2.5545530    -1.5411200    -0.0264400
  N       -1.1683820     0.3068610    -0.0163620
  C        0.1096870    -0.2710340    -0.0061280
  C        1.2343910     0.5769770    -0.0015960
  C        0.3284730    -1.6588570    -0.0015270
  C        2.5300300     0.0689490     0.0091910
  C        1.5986098    -2.1246539     0.0086238
  C        2.7309420    -1.3104680     0.0141480
  C       -2.3977350    -0.3210840    -0.0173950
  C       -3.5624210     0.6474400     0.0363070
  H       -0.5282050    -2.3191560    -0.0064230
  H       -1.1804810     1.3202100    -0.0131680
  H        3.3690000     0.7589460     0.0128930
  H        1.7714720    -3.2410880     0.0123870
  H        3.7417620    -1.7087950     0.0220870
  H       -3.7187230     0.9816890     1.0666350
  H       -4.4568090     0.1237200    -0.3002800
  H       -3.3965620     1.5279900    -0.5904610
units angstrom
no_reorient  #important for SAPT in psi4, default
symmetry c1  #important for SAPT in psi4, default
}

set PROPERTIES_ORIGIN ["COM"]
properties('MP2/aug-cc-pvtz', properties = ['dipole'])
--------------------------------------------------------------------------

    Molecular point group: c1
  Charge       = 0
  Multiplicity = 1
  Basis Set: AUG-CC-PVTZ
    Blend: AUG-CC-PVTZ
  Basis Set: (AUG-CC-PVTZ AUX)
    Blend: AUG-CC-PVTZ-JKFIT

    Orbital Energies [Eh]
    ---------------------

    Doubly Occupied:

       1A   -104.855975     2A    -20.536061     3A    -15.614046
       4A    -11.372242     5A    -11.309243     6A    -11.306808
       7A    -11.256830     8A    -11.248689     9A    -11.246972
      10A    -11.243480    11A    -11.235522    12A    -10.579785
      13A     -8.046648    14A     -8.044903    15A     -8.044799
      16A     -1.391148    17A     -1.271965    18A     -1.183031
      19A     -1.128540    20A     -1.045547    21A     -1.012605
      22A     -0.986433    23A     -0.872562    24A     -0.829286
      25A     -0.791294    26A     -0.732860    27A     -0.689242
      28A     -0.678376    29A     -0.637709    30A     -0.634185
      31A     -0.618864    32A     -0.597426    33A     -0.588112
      34A     -0.575705    35A     -0.571237    36A     -0.545052
      37A     -0.529223    38A     -0.503658    39A     -0.481436
      40A     -0.470866    41A     -0.452493    42A     -0.435167
      43A     -0.349199    44A     -0.317610

  @DF-RHF Final Energy:  -896.60418278511202

   => Energetics <=

    Nuclear Repulsion Energy =            657.2486753570718747
    One-Electron Energy =               -2533.9800465612029257
    Two-Electron Energy =                 980.1271884190189212
    Total Energy =                       -896.6041827851120161
  Basis Set: (AUG-CC-PVTZ AUX)
    Blend: AUG-CC-PVTZ-RI
    Molecular point group: c1

    Geometry (in Angstrom), charge = 0, multiplicity = 1:

       Center              X                  Y                   Z               Mass
    ------------   -----------------  -----------------  -----------------  -----------------
         CL           0.994273615254     2.282319459444    -0.006338847777    34.968852682000
         O           -2.584230384746    -1.572208540556    -0.025179847777    15.994914619570
         N           -1.198059384746     0.275772459444    -0.015101847777    14.003074004430
         C            0.080009615254    -0.302122540556    -0.004867847777    12.000000000000
         C            1.204713615254     0.545888459444    -0.000335847777    12.000000000000
         C            0.298795615254    -1.689945540556    -0.000266847777    12.000000000000
         C            2.500352615254     0.037860459444     0.010451152223    12.000000000000
         C            1.568932415254    -2.155742440556     0.009883952223    12.000000000000
         C            2.701264615254    -1.341556540556     0.015408152223    12.000000000000
         C           -2.427412384746    -0.352172540556    -0.016134847777    12.000000000000
         C           -3.592098384746     0.616351459444     0.037567152223    12.000000000000
         H           -0.557882384746    -2.350244540556    -0.005162847777     1.007825032230
         H           -1.210158384746     1.289121459444    -0.011907847777     1.007825032230
         H            3.339322615254     0.727857459444     0.014153152223     1.007825032230
         H            1.741794615254    -3.272176540556     0.013647152223     1.007825032230
         H            3.712084615254    -1.739883540556     0.023347152223     1.007825032230
         H           -3.748400384746     0.950600459444     1.067895152223     1.007825032230
         H           -4.486486384746     0.092631459444    -0.299019847777     1.007825032230
         H           -3.426239384746     1.496901459444    -0.589200847777     1.007825032230

  Basis Set: AUG-CC-PVTZ
    Blend: AUG-CC-PVTZ
  Basis Set: (AUG-CC-PVTZ AUX)
    Blend: AUG-CC-PVTZ-JKFIT
	 Reference Energy          =    -896.6041827851120161 [Eh]
	 Singles Energy            =      -0.0000000000000000 [Eh]
	 Same-Spin Energy          =      -0.5339811104035930 [Eh]
	 Opposite-Spin Energy      =      -1.6203609624683006 [Eh]
	 Correlation Energy        =      -2.1543420728718936 [Eh]
	 Total Energy              =    -898.7585248579839572 [Eh]

	 ================> DF-SCS-MP2 Energies <==================
	-----------------------------------------------------------
	 SCS Same-Spin Scale       =       0.3333333333333333 [-]
	 SCS Opposite-Spin Scale   =       1.2000000000000000 [-]
	 SCS Same-Spin Energy      =      -0.1779937034678643 [Eh]
	 SCS Opposite-Spin Energy  =      -1.9444331549619607 [Eh]
	 SCS Correlation Energy    =      -2.1224268584298249 [Eh]
	 SCS Total Energy          =    -898.7266096435417921 [Eh]
	-----------------------------------------------------------

  Dipole Moment: [D]
     X:     0.5851      Y:     1.8853      Z:     0.0890     Total:     1.9760

*** Psi4 exiting successfully. Buy a developer a beer!
