                               Psi4 1.4a3.dev225

  ==> Input File <==

--------------------------------------------------------------------------
#psi4
#
memory 32 gb

molecule  {
0 1
 Cl        1.0239510     2.3134080    -0.0075990
  O       -2.5545530    -1.5411200    -0.0264400
  N       -1.1683820     0.3068610    -0.0163620
  C        0.1096870    -0.2710340    -0.0061280
  C        1.2343910     0.5769770    -0.0015960
  C        0.3284730    -1.6588570    -0.0015270
  C        2.5300300     0.0689490     0.0091910
  C        1.6277130    -2.1636760     0.0089260
  C        2.7338246    -1.3302591     0.0142191
  C       -2.3977350    -0.3210840    -0.0173950
  C       -3.5624210     0.6474400     0.0363070
  H       -0.5282050    -2.3191560    -0.0064230
  H       -1.1804810     1.3202100    -0.0131680
  H        3.3690000     0.7589460     0.0128930
  H        1.7714720    -3.2410880     0.0123870
  H        3.7417620    -1.7087950     0.0220870
  H       -3.7187230     0.9816890     1.0666350
  H       -4.4568090     0.1237200    -0.3002800
  H       -3.3965620     1.5279900    -0.5904610
units angstrom
no_reorient  #important for SAPT in psi4, default
symmetry c1  #important for SAPT in psi4, default
}

set PROPERTIES_ORIGIN ["COM"]
properties('MP2/aug-cc-pvtz', properties = ['dipole'])
--------------------------------------------------------------------------

    Molecular point group: c1
  Charge       = 0
  Multiplicity = 1
  Basis Set: AUG-CC-PVTZ
    Blend: AUG-CC-PVTZ
  Basis Set: (AUG-CC-PVTZ AUX)
    Blend: AUG-CC-PVTZ-JKFIT

    Orbital Energies [Eh]
    ---------------------

    Doubly Occupied:

       1A   -104.856602     2A    -20.535592     3A    -15.613623
       4A    -11.371684     5A    -11.309275     6A    -11.308107
       7A    -11.259194     8A    -11.248357     9A    -11.247269
      10A    -11.244308    11A    -11.239730    12A    -10.580421
      13A     -8.047283    14A     -8.045533    15A     -8.045432
      16A     -1.390603    17A     -1.271347    18A     -1.181355
      19A     -1.125015    20A     -1.044086    21A     -1.007700
      22A     -0.988546    23A     -0.872720    24A     -0.829470
      25A     -0.790243    26A     -0.735588    27A     -0.688399
      28A     -0.678075    29A     -0.635245    30A     -0.633693
      31A     -0.621418    32A     -0.596389    33A     -0.591025
      34A     -0.574627    35A     -0.570712    36A     -0.542178
      37A     -0.528700    38A     -0.511653    39A     -0.479784
      40A     -0.470990    41A     -0.451078    42A     -0.434654
      43A     -0.344143    44A     -0.318809

  @DF-RHF Final Energy:  -896.60636126693851

   => Energetics <=

    Nuclear Repulsion Energy =            656.0184857954257041
    One-Electron Energy =               -2531.5283848861745355
    Two-Electron Energy =                 978.9035378238103249
    Total Energy =                       -896.6063612669385066
  Basis Set: (AUG-CC-PVTZ AUX)
    Blend: AUG-CC-PVTZ-RI
    Molecular point group: c1

    Geometry (in Angstrom), charge = 0, multiplicity = 1:

       Center              X                  Y                   Z               Mass
    ------------   -----------------  -----------------  -----------------  -----------------
         CL           0.992002829783     2.286494817260    -0.006365349669    34.968852682000
         O           -2.586501170217    -1.568033182740    -0.025206349669    15.994914619570
         N           -1.200330170217     0.279947817260    -0.015128349669    14.003074004430
         C            0.077738829783    -0.297947182740    -0.004894349669    12.000000000000
         C            1.202442829783     0.550063817260    -0.000362349669    12.000000000000
         C            0.296524829783    -1.685770182740    -0.000293349669    12.000000000000
         C            2.498081829783     0.042035817260     0.010424650331    12.000000000000
         C            1.595764829783    -2.190589182740     0.010159650331    12.000000000000
         C            2.701876429783    -1.357172282740     0.015452750331    12.000000000000
         C           -2.429683170217    -0.347997182740    -0.016161349669    12.000000000000
         C           -3.594369170217     0.620526817260     0.037540650331    12.000000000000
         H           -0.560153170217    -2.346069182740    -0.005189349669     1.007825032230
         H           -1.212429170217     1.293296817260    -0.011934349669     1.007825032230
         H            3.337051829783     0.732032817260     0.014126650331     1.007825032230
         H            1.739523829783    -3.268001182740     0.013620650331     1.007825032230
         H            3.709813829783    -1.735708182740     0.023320650331     1.007825032230
         H           -3.750671170217     0.954775817260     1.067868650331     1.007825032230
         H           -4.488757170217     0.096806817260    -0.299046349669     1.007825032230
         H           -3.428510170217     1.501076817260    -0.589227349669     1.007825032230

  Basis Set: AUG-CC-PVTZ
    Blend: AUG-CC-PVTZ
  Basis Set: (AUG-CC-PVTZ AUX)
    Blend: AUG-CC-PVTZ-JKFIT
	 Reference Energy          =    -896.6063612669385066 [Eh]
	 Singles Energy            =      -0.0000000000000000 [Eh]
	 Same-Spin Energy          =      -0.5339474862956018 [Eh]
	 Opposite-Spin Energy      =      -1.6205418357755432 [Eh]
	 Correlation Energy        =      -2.1544893220711452 [Eh]
	 Total Energy              =    -898.7608505890096922 [Eh]

	 ================> DF-SCS-MP2 Energies <==================
	-----------------------------------------------------------
	 SCS Same-Spin Scale       =       0.3333333333333333 [-]
	 SCS Opposite-Spin Scale   =       1.2000000000000000 [-]
	 SCS Same-Spin Energy      =      -0.1779824954318673 [Eh]
	 SCS Opposite-Spin Energy  =      -1.9446502029306518 [Eh]
	 SCS Correlation Energy    =      -2.1226326983625192 [Eh]
	 SCS Total Energy          =    -898.7289939653010151 [Eh]
	-----------------------------------------------------------

  Dipole Moment: [D]
     X:     0.5914      Y:     1.8698      Z:     0.0889     Total:     1.9631

*** Psi4 exiting successfully. Buy a developer a beer!
