                               Psi4 1.4a3.dev225

  ==> Input File <==

--------------------------------------------------------------------------
#psi4
#
memory 32 gb

molecule  {
0 1
 Cl        1.0239510     2.3134080    -0.0075990
  O       -2.5545530    -1.5411200    -0.0264400
  N       -1.1683820     0.3068610    -0.0163620
  C        0.1096870    -0.2710340    -0.0061280
  C        1.2343910     0.5769770    -0.0015960
  C        0.3284730    -1.6588570    -0.0015270
  C        2.5300300     0.0689490     0.0091910
  C        1.6277130    -2.1636760     0.0089260
  C        2.7309420    -1.3104680     0.0141480
  C       -2.3977350    -0.3210840    -0.0173950
  C       -3.5240009     0.6154908     0.0345355
  H       -0.5282050    -2.3191560    -0.0064230
  H       -1.1804810     1.3202100    -0.0131680
  H        3.3690000     0.7589460     0.0128930
  H        1.7714720    -3.2410880     0.0123870
  H        3.7417620    -1.7087950     0.0220870
  H       -3.7187230     0.9816890     1.0666350
  H       -4.4568090     0.1237200    -0.3002800
  H       -3.3965620     1.5279900    -0.5904610
units angstrom
no_reorient  #important for SAPT in psi4, default
symmetry c1  #important for SAPT in psi4, default
}

set PROPERTIES_ORIGIN ["COM"]
properties('MP2/aug-cc-pvtz', properties = ['dipole'])
--------------------------------------------------------------------------

    Molecular point group: c1
  Charge       = 0
  Multiplicity = 1
  Basis Set: AUG-CC-PVTZ
    Blend: AUG-CC-PVTZ
  Basis Set: (AUG-CC-PVTZ AUX)
    Blend: AUG-CC-PVTZ-JKFIT

    Orbital Energies [Eh]
    ---------------------

    Doubly Occupied:

       1A   -104.856325     2A    -20.534801     3A    -15.612979
       4A    -11.369594     5A    -11.308802     6A    -11.307670
       7A    -11.256855     8A    -11.250141     9A    -11.248107
      10A    -11.243882    11A    -11.239709    12A    -10.580140
      13A     -8.047001    14A     -8.045253    15A     -8.045153
      16A     -1.391670    17A     -1.271493    18A     -1.182086
      19A     -1.125047    20A     -1.049369    21A     -1.009686
      22A     -0.988308    23A     -0.870913    24A     -0.830275
      25A     -0.790220    26A     -0.736132    27A     -0.693347
      28A     -0.676409    29A     -0.637746    30A     -0.633968
      31A     -0.621897    32A     -0.601506    33A     -0.590981
      34A     -0.571437    35A     -0.562705    36A     -0.537409
      37A     -0.524247    38A     -0.514022    39A     -0.479223
      40A     -0.470758    41A     -0.451262    42A     -0.437751
      43A     -0.344444    44A     -0.318591

  @DF-RHF Final Energy:  -896.60406086563887

   => Energetics <=

    Nuclear Repulsion Energy =            657.2090323434583752
    One-Electron Energy =               -2533.9075561136223769
    Two-Electron Energy =                 980.0944629045251304
    Total Energy =                       -896.6040608656388713
  Basis Set: (AUG-CC-PVTZ AUX)
    Blend: AUG-CC-PVTZ-RI
    Molecular point group: c1

    Geometry (in Angstrom), charge = 0, multiplicity = 1:

       Center              X                  Y                   Z               Mass
    ------------   -----------------  -----------------  -----------------  -----------------
         CL           0.989479896523     2.287357963932    -0.006234536954    34.968852682000
         O           -2.589024103477    -1.567170036068    -0.025075536954    15.994914619570
         N           -1.202853103477     0.280810963932    -0.014997536954    14.003074004430
         C            0.075215896523    -0.297084036068    -0.004763536954    12.000000000000
         C            1.199919896523     0.550926963932    -0.000231536954    12.000000000000
         C            0.294001896523    -1.684907036068    -0.000162536954    12.000000000000
         C            2.495558896523     0.042898963932     0.010555463046    12.000000000000
         C            1.593241896523    -2.189726036068     0.010290463046    12.000000000000
         C            2.696470896523    -1.336518036068     0.015512463046    12.000000000000
         C           -2.432206103477    -0.347134036068    -0.016030536954    12.000000000000
         C           -3.558472003477     0.589440763932     0.035899963046    12.000000000000
         H           -0.562676103477    -2.345206036068    -0.005058536954     1.007825032230
         H           -1.214952103477     1.294159963932    -0.011803536954     1.007825032230
         H            3.334528896523     0.732895963932     0.014257463046     1.007825032230
         H            1.737000896523    -3.267138036068     0.013751463046     1.007825032230
         H            3.707290896523    -1.734845036068     0.023451463046     1.007825032230
         H           -3.753194103477     0.955638963932     1.067999463046     1.007825032230
         H           -4.491280103477     0.097669963932    -0.298915536954     1.007825032230
         H           -3.431033103477     1.501939963932    -0.589096536954     1.007825032230

  Basis Set: AUG-CC-PVTZ
    Blend: AUG-CC-PVTZ
  Basis Set: (AUG-CC-PVTZ AUX)
    Blend: AUG-CC-PVTZ-JKFIT
	 Reference Energy          =    -896.6040608656388713 [Eh]
	 Singles Energy            =      -0.0000000000000000 [Eh]
	 Same-Spin Energy          =      -0.5343566435566955 [Eh]
	 Opposite-Spin Energy      =      -1.6208222224958497 [Eh]
	 Correlation Energy        =      -2.1551788660525455 [Eh]
	 Total Energy              =    -898.7592397316914230 [Eh]

	 ================> DF-SCS-MP2 Energies <==================
	-----------------------------------------------------------
	 SCS Same-Spin Scale       =       0.3333333333333333 [-]
	 SCS Opposite-Spin Scale   =       1.2000000000000000 [-]
	 SCS Same-Spin Energy      =      -0.1781188811855652 [Eh]
	 SCS Opposite-Spin Energy  =      -1.9449866669950195 [Eh]
	 SCS Correlation Energy    =      -2.1231055481805847 [Eh]
	 SCS Total Energy          =    -898.7271664138194183 [Eh]
	-----------------------------------------------------------

  Dipole Moment: [D]
     X:     0.5170      Y:     1.9101      Z:     0.0952     Total:     1.9811

*** Psi4 exiting successfully. Buy a developer a beer!
