                               Psi4 1.4a3.dev225

  ==> Input File <==

--------------------------------------------------------------------------
#psi4
#
memory 32 gb

molecule  {
0 1
 Cl        1.0239510     2.3134080    -0.0075990
  O       -2.5545530    -1.5411200    -0.0264400
  N       -1.1683820     0.3068610    -0.0163620
  C        0.1096870    -0.2710340    -0.0061280
  C        1.2343910     0.5769770    -0.0015960
  C        0.3284730    -1.6588570    -0.0015270
  C        2.5300300     0.0689490     0.0091910
  C        1.6187047    -2.1862747     0.0089060
  C        2.7309420    -1.3104680     0.0141480
  C       -2.3977350    -0.3210840    -0.0173950
  C       -3.5624210     0.6474400     0.0363070
  H       -0.5282050    -2.3191560    -0.0064230
  H       -1.1804810     1.3202100    -0.0131680
  H        3.3690000     0.7589460     0.0128930
  H        1.7714720    -3.2410880     0.0123870
  H        3.7417620    -1.7087950     0.0220870
  H       -3.7187230     0.9816890     1.0666350
  H       -4.4568090     0.1237200    -0.3002800
  H       -3.3965620     1.5279900    -0.5904610
units angstrom
no_reorient  #important for SAPT in psi4, default
symmetry c1  #important for SAPT in psi4, default
}

set PROPERTIES_ORIGIN ["COM"]
properties('MP2/aug-cc-pvtz', properties = ['dipole'])
--------------------------------------------------------------------------

    Molecular point group: c1
  Charge       = 0
  Multiplicity = 1
  Basis Set: AUG-CC-PVTZ
    Blend: AUG-CC-PVTZ
  Basis Set: (AUG-CC-PVTZ AUX)
    Blend: AUG-CC-PVTZ-JKFIT

    Orbital Energies [Eh]
    ---------------------

    Doubly Occupied:

       1A   -104.856588     2A    -20.535355     3A    -15.613663
       4A    -11.371621     5A    -11.309233     6A    -11.308098
       7A    -11.256850     8A    -11.249054     9A    -11.248311
      10A    -11.246334    11A    -11.240271    12A    -10.580403
      13A     -8.047262    14A     -8.045515    15A     -8.045416
      16A     -1.390482    17A     -1.271277    18A     -1.181229
      19A     -1.123517    20A     -1.044100    21A     -1.009585
      22A     -0.986658    23A     -0.870310    24A     -0.832003
      25A     -0.789580    26A     -0.737887    27A     -0.687943
      28A     -0.675017    29A     -0.635629    30A     -0.633659
      31A     -0.623216    32A     -0.597665    33A     -0.593306
      34A     -0.574599    35A     -0.570091    36A     -0.536902
      37A     -0.528660    38A     -0.515683    39A     -0.479037
      40A     -0.470966    41A     -0.450499    42A     -0.434001
      43A     -0.345184    44A     -0.317354

  @DF-RHF Final Energy:  -896.60593854410445

   => Energetics <=

    Nuclear Repulsion Energy =            655.8707916486587237
    One-Electron Energy =               -2531.2334402175893047
    Two-Electron Energy =                 978.7567100248261340
    Total Energy =                       -896.6059385441044469
  Basis Set: (AUG-CC-PVTZ AUX)
    Blend: AUG-CC-PVTZ-RI
    Molecular point group: c1

    Geometry (in Angstrom), charge = 0, multiplicity = 1:

       Center              X                  Y                   Z               Mass
    ------------   -----------------  -----------------  -----------------  -----------------
         CL           0.992847006979     2.286694138749    -0.006358882156    34.968852682000
         O           -2.585656993021    -1.567833861251    -0.025199882156    15.994914619570
         N           -1.199485993021     0.280147138749    -0.015121882156    14.003074004430
         C            0.078583006979    -0.297747861251    -0.004887882156    12.000000000000
         C            1.203287006979     0.550263138749    -0.000355882156    12.000000000000
         C            0.297369006979    -1.685570861251    -0.000286882156    12.000000000000
         C            2.498926006979     0.042235138749     0.010431117844    12.000000000000
         C            1.587600706979    -2.212988561251     0.010146117844    12.000000000000
         C            2.699838006979    -1.337181861251     0.015388117844    12.000000000000
         C           -2.428838993021    -0.347797861251    -0.016154882156    12.000000000000
         C           -3.593524993021     0.620726138749     0.037547117844    12.000000000000
         H           -0.559308993021    -2.345869861251    -0.005182882156     1.007825032230
         H           -1.211584993021     1.293496138749    -0.011927882156     1.007825032230
         H            3.337896006979     0.732232138749     0.014133117844     1.007825032230
         H            1.740368006979    -3.267801861251     0.013627117844     1.007825032230
         H            3.710658006979    -1.735508861251     0.023327117844     1.007825032230
         H           -3.749826993021     0.954975138749     1.067875117844     1.007825032230
         H           -4.487912993021     0.097006138749    -0.299039882156     1.007825032230
         H           -3.427665993021     1.501276138749    -0.589220882156     1.007825032230

  Basis Set: AUG-CC-PVTZ
    Blend: AUG-CC-PVTZ
  Basis Set: (AUG-CC-PVTZ AUX)
    Blend: AUG-CC-PVTZ-JKFIT
	 Reference Energy          =    -896.6059385441044469 [Eh]
	 Singles Energy            =      -0.0000000000000000 [Eh]
	 Same-Spin Energy          =      -0.5339581867380536 [Eh]
	 Opposite-Spin Energy      =      -1.6206459589828346 [Eh]
	 Correlation Energy        =      -2.1546041457208882 [Eh]
	 Total Energy              =    -898.7605426898253427 [Eh]

	 ================> DF-SCS-MP2 Energies <==================
	-----------------------------------------------------------
	 SCS Same-Spin Scale       =       0.3333333333333333 [-]
	 SCS Opposite-Spin Scale   =       1.2000000000000000 [-]
	 SCS Same-Spin Energy      =      -0.1779860622460179 [Eh]
	 SCS Opposite-Spin Energy  =      -1.9447751507794013 [Eh]
	 SCS Correlation Energy    =      -2.1227612130254192 [Eh]
	 SCS Total Energy          =    -898.7286997571299025 [Eh]
	-----------------------------------------------------------

  Dipole Moment: [D]
     X:     0.5942      Y:     1.8545      Z:     0.0889     Total:     1.9495

*** Psi4 exiting successfully. Buy a developer a beer!
