                               Psi4 1.4a3.dev225

  ==> Input File <==

--------------------------------------------------------------------------
#psi4
#
memory 32 gb

molecule  {
0 1
 Cl        1.0239510     2.3134080    -0.0075990
  O       -2.5545530    -1.5411200    -0.0264400
  N       -1.1683820     0.3068610    -0.0163620
  C        0.1096870    -0.2710340    -0.0061280
  C        1.2343910     0.5769770    -0.0015960
  C        0.3284730    -1.6588570    -0.0015270
  C        2.5300300     0.0689490     0.0091910
  C        1.6277130    -2.1636760     0.0089260
  C        2.7309420    -1.3104680     0.0141480
  C       -2.2196252    -0.2301067    -0.0172453
  C       -3.5624210     0.6474400     0.0363070
  H       -0.5282050    -2.3191560    -0.0064230
  H       -1.1804810     1.3202100    -0.0131680
  H        3.3690000     0.7589460     0.0128930
  H        1.7714720    -3.2410880     0.0123870
  H        3.7417620    -1.7087950     0.0220870
  H       -3.7187230     0.9816890     1.0666350
  H       -4.4568090     0.1237200    -0.3002800
  H       -3.3965620     1.5279900    -0.5904610
units angstrom
no_reorient  #important for SAPT in psi4, default
symmetry c1  #important for SAPT in psi4, default
}

set PROPERTIES_ORIGIN ["COM"]
properties('MP2/aug-cc-pvtz', properties = ['dipole'])
--------------------------------------------------------------------------

    Molecular point group: c1
  Charge       = 0
  Multiplicity = 1
  Basis Set: AUG-CC-PVTZ
    Blend: AUG-CC-PVTZ
  Basis Set: (AUG-CC-PVTZ AUX)
    Blend: AUG-CC-PVTZ-JKFIT

    Orbital Energies [Eh]
    ---------------------

    Doubly Occupied:

       1A   -104.869676     2A    -20.492336     3A    -15.640681
       4A    -11.351167     5A    -11.325771     6A    -11.319564
       7A    -11.266911     8A    -11.259361     9A    -11.256735
      10A    -11.253039    11A    -11.242761    12A    -10.593468
      13A     -8.060322    14A     -8.058547    15A     -8.058447
      16A     -1.392796    17A     -1.251864    18A     -1.203960
      19A     -1.137974    20A     -1.059970    21A     -1.017344
      22A     -0.974270    23A     -0.910222    24A     -0.848926
      25A     -0.815666    26A     -0.763682    27A     -0.689887
      28A     -0.661252    29A     -0.654522    30A     -0.643653
      31A     -0.624489    32A     -0.602858    33A     -0.575126
      34A     -0.570179    35A     -0.548564    36A     -0.541084
      37A     -0.528631    38A     -0.518061    39A     -0.487108
      40A     -0.481496    41A     -0.415955    42A     -0.391900
      43A     -0.354900    44A     -0.339980

  @DF-RHF Final Energy:  -896.54044596072470

   => Energetics <=

    Nuclear Repulsion Energy =            658.5549941943492058
    One-Electron Energy =               -2536.0806722949919276
    Two-Electron Energy =                 980.9852321399181392
    Total Energy =                       -896.5404459607246963
  Basis Set: (AUG-CC-PVTZ AUX)
    Blend: AUG-CC-PVTZ-RI
    Molecular point group: c1

    Geometry (in Angstrom), charge = 0, multiplicity = 1:

       Center              X                  Y                   Z               Mass
    ------------   -----------------  -----------------  -----------------  -----------------
         CL           0.979562828914     2.278630975389    -0.006370929761    34.968852682000
         O           -2.598941171086    -1.575897024611    -0.025211929761    15.994914619570
         N           -1.212770171086     0.272083975389    -0.015133929761    14.003074004430
         C            0.065298828914    -0.305811024611    -0.004899929761    12.000000000000
         C            1.190002828914     0.542199975389    -0.000367929761    12.000000000000
         C            0.284084828914    -1.693634024611    -0.000298929761    12.000000000000
         C            2.485641828914     0.034171975389     0.010419070239    12.000000000000
         C            1.583324828914    -2.198453024611     0.010154070239    12.000000000000
         C            2.686553828914    -1.345245024611     0.015376070239    12.000000000000
         C           -2.264013371086    -0.264883724611    -0.016017229761    12.000000000000
         C           -3.606809171086     0.612662975389     0.037535070239    12.000000000000
         H           -0.572593171086    -2.353933024611    -0.005194929761     1.007825032230
         H           -1.224869171086     1.285432975389    -0.011939929761     1.007825032230
         H            3.324611828914     0.724168975389     0.014121070239     1.007825032230
         H            1.727083828914    -3.275865024611     0.013615070239     1.007825032230
         H            3.697373828914    -1.743572024611     0.023315070239     1.007825032230
         H           -3.763111171086     0.946911975389     1.067863070239     1.007825032230
         H           -4.501197171086     0.088942975389    -0.299051929761     1.007825032230
         H           -3.440950171086     1.493212975389    -0.589232929761     1.007825032230

  Basis Set: AUG-CC-PVTZ
    Blend: AUG-CC-PVTZ
  Basis Set: (AUG-CC-PVTZ AUX)
    Blend: AUG-CC-PVTZ-JKFIT
	 Reference Energy          =    -896.5404459607246963 [Eh]
	 Singles Energy            =      -0.0000000000000000 [Eh]
	 Same-Spin Energy          =      -0.5355683373790838 [Eh]
	 Opposite-Spin Energy      =      -1.6240455455425893 [Eh]
	 Correlation Energy        =      -2.1596138829216729 [Eh]
	 Total Energy              =    -898.7000598436463861 [Eh]

	 ================> DF-SCS-MP2 Energies <==================
	-----------------------------------------------------------
	 SCS Same-Spin Scale       =       0.3333333333333333 [-]
	 SCS Opposite-Spin Scale   =       1.2000000000000000 [-]
	 SCS Same-Spin Energy      =      -0.1785227791263613 [Eh]
	 SCS Opposite-Spin Energy  =      -1.9488546546511070 [Eh]
	 SCS Correlation Energy    =      -2.1273774337774682 [Eh]
	 SCS Total Energy          =    -898.6678233945021930 [Eh]
	-----------------------------------------------------------

  Dipole Moment: [D]
     X:     2.6327      Y:     2.5251      Z:     0.0903     Total:     3.6490

*** Psi4 exiting successfully. Buy a developer a beer!
