                               Psi4 1.4a3.dev225

  ==> Input File <==

--------------------------------------------------------------------------
#psi4
#
memory 32 gb

molecule  {
0 1
 Cl        1.0239510     2.3134080    -0.0075990
  O       -2.5545530    -1.5411200    -0.0264400
  N       -1.1683820     0.3068610    -0.0163620
  C        0.1096870    -0.2710340    -0.0061280
  C        1.2319848     0.5968316    -0.0016646
  C        0.3284730    -1.6588570    -0.0015270
  C        2.5300300     0.0689490     0.0091910
  C        1.6277130    -2.1636760     0.0089260
  C        2.7309420    -1.3104680     0.0141480
  C       -2.3977350    -0.3210840    -0.0173950
  C       -3.5624210     0.6474400     0.0363070
  H       -0.5282050    -2.3191560    -0.0064230
  H       -1.1804810     1.3202100    -0.0131680
  H        3.3690000     0.7589460     0.0128930
  H        1.7714720    -3.2410880     0.0123870
  H        3.7417620    -1.7087950     0.0220870
  H       -3.7187230     0.9816890     1.0666350
  H       -4.4568090     0.1237200    -0.3002800
  H       -3.3965620     1.5279900    -0.5904610
units angstrom
no_reorient  #important for SAPT in psi4, default
symmetry c1  #important for SAPT in psi4, default
}

set PROPERTIES_ORIGIN ["COM"]
properties('MP2/aug-cc-pvtz', properties = ['dipole'])
--------------------------------------------------------------------------

    Molecular point group: c1
  Charge       = 0
  Multiplicity = 1
  Basis Set: AUG-CC-PVTZ
    Blend: AUG-CC-PVTZ
  Basis Set: (AUG-CC-PVTZ AUX)
    Blend: AUG-CC-PVTZ-JKFIT

    Orbital Energies [Eh]
    ---------------------

    Doubly Occupied:

       1A   -104.858601     2A    -20.535261     3A    -15.613142
       4A    -11.371329     5A    -11.309252     6A    -11.308103
       7A    -11.257352     8A    -11.248180     9A    -11.248036
      10A    -11.243460    11A    -11.239305    12A    -10.582658
      13A     -8.049568    14A     -8.047755    15A     -8.047655
      16A     -1.390297    17A     -1.270975    18A     -1.183367
      19A     -1.126905    20A     -1.043838    21A     -1.007855
      22A     -0.986058    23A     -0.870427    24A     -0.830164
      25A     -0.788520    26A     -0.735369    27A     -0.687793
      28A     -0.676439    29A     -0.635572    30A     -0.633384
      31A     -0.621319    32A     -0.596832    33A     -0.592573
      34A     -0.574521    35A     -0.570150    36A     -0.538295
      37A     -0.529537    38A     -0.515554    39A     -0.480710
      40A     -0.471563    41A     -0.450936    42A     -0.434024
      43A     -0.342924    44A     -0.317311

  @DF-RHF Final Energy:  -896.60594886048671

   => Energetics <=

    Nuclear Repulsion Energy =            656.2465353058036044
    One-Electron Energy =               -2531.9792292272263694
    Two-Electron Energy =                 979.1267450609359457
    Total Energy =                       -896.6059488604867056
  Basis Set: (AUG-CC-PVTZ AUX)
    Blend: AUG-CC-PVTZ-RI
    Molecular point group: c1

    Geometry (in Angstrom), charge = 0, multiplicity = 1:

       Center              X                  Y                   Z               Mass
    ------------   -----------------  -----------------  -----------------  -----------------
         CL           0.992378300467     2.283680228301    -0.006355431870    34.968852682000
         O           -2.586125699533    -1.570847771699    -0.025196431870    15.994914619570
         N           -1.199954699533     0.277133228301    -0.015118431870    14.003074004430
         C            0.078114300467    -0.300761771699    -0.004884431870    12.000000000000
         C            1.200412100467     0.567103828301    -0.000421031870    12.000000000000
         C            0.296900300467    -1.688584771699    -0.000283431870    12.000000000000
         C            2.498457300467     0.039221228301     0.010434568130    12.000000000000
         C            1.596140300467    -2.193403771699     0.010169568130    12.000000000000
         C            2.699369300467    -1.340195771699     0.015391568130    12.000000000000
         C           -2.429307699533    -0.350811771699    -0.016151431870    12.000000000000
         C           -3.593993699533     0.617712228301     0.037550568130    12.000000000000
         H           -0.559777699533    -2.348883771699    -0.005179431870     1.007825032230
         H           -1.212053699533     1.290482228301    -0.011924431870     1.007825032230
         H            3.337427300467     0.729218228301     0.014136568130     1.007825032230
         H            1.739899300467    -3.270815771699     0.013630568130     1.007825032230
         H            3.710189300467    -1.738522771699     0.023330568130     1.007825032230
         H           -3.750295699533     0.951961228301     1.067878568130     1.007825032230
         H           -4.488381699533     0.093992228301    -0.299036431870     1.007825032230
         H           -3.428134699533     1.498262228301    -0.589217431870     1.007825032230

  Basis Set: AUG-CC-PVTZ
    Blend: AUG-CC-PVTZ
  Basis Set: (AUG-CC-PVTZ AUX)
    Blend: AUG-CC-PVTZ-JKFIT
	 Reference Energy          =    -896.6059488604867056 [Eh]
	 Singles Energy            =      -0.0000000000000000 [Eh]
	 Same-Spin Energy          =      -0.5341715891749099 [Eh]
	 Opposite-Spin Energy      =      -1.6207590211084479 [Eh]
	 Correlation Energy        =      -2.1549306102833579 [Eh]
	 Total Energy              =    -898.7608794707700781 [Eh]

	 ================> DF-SCS-MP2 Energies <==================
	-----------------------------------------------------------
	 SCS Same-Spin Scale       =       0.3333333333333333 [-]
	 SCS Opposite-Spin Scale   =       1.2000000000000000 [-]
	 SCS Same-Spin Energy      =      -0.1780571963916366 [Eh]
	 SCS Opposite-Spin Energy  =      -1.9449108253301375 [Eh]
	 SCS Correlation Energy    =      -2.1229680217217739 [Eh]
	 SCS Total Energy          =    -898.7289168822085230 [Eh]
	-----------------------------------------------------------

  Dipole Moment: [D]
     X:     0.5855      Y:     1.9537      Z:     0.0885     Total:     2.0415

*** Psi4 exiting successfully. Buy a developer a beer!
