                               Psi4 1.4a3.dev225

  ==> Input File <==

--------------------------------------------------------------------------
#psi4
#
memory 32 gb

molecule  {
0 1
 Cl        1.0239510     2.3134080    -0.0075990
  O       -2.5545530    -1.5411200    -0.0264400
  N       -1.1683820     0.3068610    -0.0163620
  C        0.1096870    -0.2710340    -0.0061280
  C        1.2343910     0.5769770    -0.0015960
  C        0.3284730    -1.6588570    -0.0015270
  C        2.6267410     0.0796057     0.0098238
  C        1.6277130    -2.1636760     0.0089260
  C        2.7309420    -1.3104680     0.0141480
  C       -2.3977350    -0.3210840    -0.0173950
  C       -3.5624210     0.6474400     0.0363070
  H       -0.5282050    -2.3191560    -0.0064230
  H       -1.1804810     1.3202100    -0.0131680
  H        3.3690000     0.7589460     0.0128930
  H        1.7714720    -3.2410880     0.0123870
  H        3.7417620    -1.7087950     0.0220870
  H       -3.7187230     0.9816890     1.0666350
  H       -4.4568090     0.1237200    -0.3002800
  H       -3.3965620     1.5279900    -0.5904610
units angstrom
no_reorient  #important for SAPT in psi4, default
symmetry c1  #important for SAPT in psi4, default
}

set PROPERTIES_ORIGIN ["COM"]
properties('MP2/aug-cc-pvtz', properties = ['dipole'])
--------------------------------------------------------------------------

    Molecular point group: c1
  Charge       = 0
  Multiplicity = 1
  Basis Set: AUG-CC-PVTZ
    Blend: AUG-CC-PVTZ
  Basis Set: (AUG-CC-PVTZ AUX)
    Blend: AUG-CC-PVTZ-JKFIT

    Orbital Energies [Eh]
    ---------------------

    Doubly Occupied:

       1A   -104.855238     2A    -20.535401     3A    -15.613337
       4A    -11.371881     5A    -11.315575     6A    -11.308467
       7A    -11.260545     8A    -11.249162     9A    -11.248337
      10A    -11.246858    11A    -11.243271    12A    -10.579076
      13A     -8.045930    14A     -8.044201    15A     -8.044108
      16A     -1.390663    17A     -1.270546    18A     -1.174991
      19A     -1.123630    20A     -1.046141    21A     -1.007737
      22A     -0.983448    23A     -0.871638    24A     -0.828532
      25A     -0.795077    26A     -0.736664    27A     -0.690442
      28A     -0.674470    29A     -0.640364    30A     -0.633552
      31A     -0.629926    32A     -0.600062    33A     -0.586537
      34A     -0.572219    35A     -0.570203    36A     -0.538877
      37A     -0.526218    38A     -0.517270    39A     -0.478964
      40A     -0.465385    41A     -0.451021    42A     -0.434689
      43A     -0.338720    44A     -0.319953

  @DF-RHF Final Energy:  -896.59348268771453

   => Energetics <=

    Nuclear Repulsion Energy =            654.3132484854659197
    One-Electron Energy =               -2528.0948141673707141
    Two-Electron Energy =                 977.1880829941902675
    Total Energy =                       -896.5934826877145269
  Basis Set: (AUG-CC-PVTZ AUX)
    Blend: AUG-CC-PVTZ-RI
    Molecular point group: c1

    Geometry (in Angstrom), charge = 0, multiplicity = 1:

       Center              X                  Y                   Z               Mass
    ------------   -----------------  -----------------  -----------------  -----------------
         CL           0.985341618638     2.284333219868    -0.006405226745    34.968852682000
         O           -2.593162381362    -1.570194780132    -0.025246226745    15.994914619570
         N           -1.206991381362     0.277786219868    -0.015168226745    14.003074004430
         C            0.071077618638    -0.300108780132    -0.004934226745    12.000000000000
         C            1.195781618638     0.547902219868    -0.000402226745    12.000000000000
         C            0.289863618638    -1.687931780132    -0.000333226745    12.000000000000
         C            2.588131618638     0.050530919868     0.011017573255    12.000000000000
         C            1.589103618638    -2.192750780132     0.010119773255    12.000000000000
         C            2.692332618638    -1.339542780132     0.015341773255    12.000000000000
         C           -2.436344381362    -0.350158780132    -0.016201226745    12.000000000000
         C           -3.601030381362     0.618365219868     0.037500773255    12.000000000000
         H           -0.566814381362    -2.348230780132    -0.005229226745     1.007825032230
         H           -1.219090381362     1.291135219868    -0.011974226745     1.007825032230
         H            3.330390618638     0.729871219868     0.014086773255     1.007825032230
         H            1.732862618638    -3.270162780132     0.013580773255     1.007825032230
         H            3.703152618638    -1.737869780132     0.023280773255     1.007825032230
         H           -3.757332381362     0.952614219868     1.067828773255     1.007825032230
         H           -4.495418381362     0.094645219868    -0.299086226745     1.007825032230
         H           -3.435171381362     1.498915219868    -0.589267226745     1.007825032230

  Basis Set: AUG-CC-PVTZ
    Blend: AUG-CC-PVTZ
  Basis Set: (AUG-CC-PVTZ AUX)
    Blend: AUG-CC-PVTZ-JKFIT
	 Reference Energy          =    -896.5934826877145269 [Eh]
	 Singles Energy            =      -0.0000000000000000 [Eh]
	 Same-Spin Energy          =      -0.5340583238795186 [Eh]
	 Opposite-Spin Energy      =      -1.6217314119052146 [Eh]
	 Correlation Energy        =      -2.1557897357847331 [Eh]
	 Total Energy              =    -898.7492724234992920 [Eh]

	 ================> DF-SCS-MP2 Energies <==================
	-----------------------------------------------------------
	 SCS Same-Spin Scale       =       0.3333333333333333 [-]
	 SCS Opposite-Spin Scale   =       1.2000000000000000 [-]
	 SCS Same-Spin Energy      =      -0.1780194412931728 [Eh]
	 SCS Opposite-Spin Energy  =      -1.9460776942862574 [Eh]
	 SCS Correlation Energy    =      -2.1240971355794303 [Eh]
	 SCS Total Energy          =    -898.7175798232939314 [Eh]
	-----------------------------------------------------------

  Dipole Moment: [D]
     X:     0.5955      Y:     1.8485      Z:     0.0892     Total:     1.9441

*** Psi4 exiting successfully. Buy a developer a beer!
