                               Psi4 1.4a3.dev225

  ==> Input File <==

--------------------------------------------------------------------------
#psi4
#
memory 32 gb

molecule  {
0 1
 Cl        1.0239510     2.3134080    -0.0075990
  O       -2.5545530    -1.5411200    -0.0264400
  N       -1.1683820     0.3068610    -0.0163620
  C        0.1096870    -0.2710340    -0.0061280
  C        1.2343910     0.5769770    -0.0015960
  C        0.3284730    -1.6588570    -0.0015270
  C        2.5300300     0.0689490     0.0091910
  C        1.6277130    -2.1636760     0.0089260
  C        2.7381484    -1.3599456     0.0143258
  C       -2.3977350    -0.3210840    -0.0173950
  C       -3.5624210     0.6474400     0.0363070
  H       -0.5282050    -2.3191560    -0.0064230
  H       -1.1804810     1.3202100    -0.0131680
  H        3.3690000     0.7589460     0.0128930
  H        1.7714720    -3.2410880     0.0123870
  H        3.7417620    -1.7087950     0.0220870
  H       -3.7187230     0.9816890     1.0666350
  H       -4.4568090     0.1237200    -0.3002800
  H       -3.3965620     1.5279900    -0.5904610
units angstrom
no_reorient  #important for SAPT in psi4, default
symmetry c1  #important for SAPT in psi4, default
}

set PROPERTIES_ORIGIN ["COM"]
properties('MP2/aug-cc-pvtz', properties = ['dipole'])
--------------------------------------------------------------------------

    Molecular point group: c1
  Charge       = 0
  Multiplicity = 1
  Basis Set: AUG-CC-PVTZ
    Blend: AUG-CC-PVTZ
  Basis Set: (AUG-CC-PVTZ AUX)
    Blend: AUG-CC-PVTZ-JKFIT

    Orbital Energies [Eh]
    ---------------------

    Doubly Occupied:

       1A   -104.856756     2A    -20.535688     3A    -15.613735
       4A    -11.371677     5A    -11.309712     6A    -11.308382
       7A    -11.262201     8A    -11.248375     9A    -11.245981
      10A    -11.244430    11A    -11.239427    12A    -10.580583
      13A     -8.047445    14A     -8.045691    15A     -8.045590
      16A     -1.390625    17A     -1.271393    18A     -1.180666
      19A     -1.124870    20A     -1.043237    21A     -1.005881
      22A     -0.989885    23A     -0.874465    24A     -0.827883
      25A     -0.790715    26A     -0.735039    27A     -0.688394
      28A     -0.680753    29A     -0.633993    30A     -0.633516
      31A     -0.620835    32A     -0.595326    33A     -0.590898
      34A     -0.574369    35A     -0.571204    36A     -0.547499
      37A     -0.528462    38A     -0.507690    39A     -0.479899
      40A     -0.470897    41A     -0.450520    42A     -0.434886
      43A     -0.343996    44A     -0.318405

  @DF-RHF Final Energy:  -896.60374906640652

   => Energetics <=

    Nuclear Repulsion Energy =            655.6641246030977754
    One-Electron Energy =               -2530.8119942347834694
    Two-Electron Energy =                 978.5441205652792860
    Total Energy =                       -896.6037490664065217
  Basis Set: (AUG-CC-PVTZ AUX)
    Blend: AUG-CC-PVTZ-RI
    Molecular point group: c1

    Geometry (in Angstrom), charge = 0, multiplicity = 1:

       Center              X                  Y                   Z               Mass
    ------------   -----------------  -----------------  -----------------  -----------------
         CL           0.991695867874     2.288602367263    -0.006372924680    34.968852682000
         O           -2.586808132126    -1.565925632737    -0.025213924680    15.994914619570
         N           -1.200637132126     0.282055367263    -0.015135924680    14.003074004430
         C            0.077431867874    -0.295839632737    -0.004901924680    12.000000000000
         C            1.202135867874     0.552171367263    -0.000369924680    12.000000000000
         C            0.296217867874    -1.683662632737    -0.000300924680    12.000000000000
         C            2.497774867874     0.044143367263     0.010417075320    12.000000000000
         C            1.595457867874    -2.188481632737     0.010152075320    12.000000000000
         C            2.705893267874    -1.384751232737     0.015551875320    12.000000000000
         C           -2.429990132126    -0.345889632737    -0.016168924680    12.000000000000
         C           -3.594676132126     0.622634367263     0.037533075320    12.000000000000
         H           -0.560460132126    -2.343961632737    -0.005196924680     1.007825032230
         H           -1.212736132126     1.295404367263    -0.011941924680     1.007825032230
         H            3.336744867874     0.734140367263     0.014119075320     1.007825032230
         H            1.739216867874    -3.265893632737     0.013613075320     1.007825032230
         H            3.709506867874    -1.733600632737     0.023313075320     1.007825032230
         H           -3.750978132126     0.956883367263     1.067861075320     1.007825032230
         H           -4.489064132126     0.098914367263    -0.299053924680     1.007825032230
         H           -3.428817132126     1.503184367263    -0.589234924680     1.007825032230

  Basis Set: AUG-CC-PVTZ
    Blend: AUG-CC-PVTZ
  Basis Set: (AUG-CC-PVTZ AUX)
    Blend: AUG-CC-PVTZ-JKFIT
	 Reference Energy          =    -896.6037490664065217 [Eh]
	 Singles Energy            =      -0.0000000000000000 [Eh]
	 Same-Spin Energy          =      -0.5339088598416951 [Eh]
	 Opposite-Spin Energy      =      -1.6207486833707920 [Eh]
	 Correlation Energy        =      -2.1546575432124873 [Eh]
	 Total Energy              =    -898.7584066096189872 [Eh]

	 ================> DF-SCS-MP2 Energies <==================
	-----------------------------------------------------------
	 SCS Same-Spin Scale       =       0.3333333333333333 [-]
	 SCS Opposite-Spin Scale   =       1.2000000000000000 [-]
	 SCS Same-Spin Energy      =      -0.1779696199472317 [Eh]
	 SCS Opposite-Spin Energy  =      -1.9448984200449504 [Eh]
	 SCS Correlation Energy    =      -2.1228680399921820 [Eh]
	 SCS Total Energy          =    -898.7266171063987485 [Eh]
	-----------------------------------------------------------

  Dipole Moment: [D]
     X:     0.5903      Y:     1.8765      Z:     0.0889     Total:     1.9692

*** Psi4 exiting successfully. Buy a developer a beer!
