                               Psi4 1.4a3.dev225

  ==> Input File <==

--------------------------------------------------------------------------
#psi4
#
memory 32 gb

molecule  {
0 1
 Cl        1.0239510     2.3134080    -0.0075990
  O       -2.5545530    -1.5411200    -0.0264400
  N       -1.1683820     0.3068610    -0.0163620
  C        0.0641291    -0.2504344    -0.0064928
  C        1.2343910     0.5769770    -0.0015960
  C        0.3284730    -1.6588570    -0.0015270
  C        2.5300300     0.0689490     0.0091910
  C        1.6277130    -2.1636760     0.0089260
  C        2.7309420    -1.3104680     0.0141480
  C       -2.3977350    -0.3210840    -0.0173950
  C       -3.5624210     0.6474400     0.0363070
  H       -0.5282050    -2.3191560    -0.0064230
  H       -1.1804810     1.3202100    -0.0131680
  H        3.3690000     0.7589460     0.0128930
  H        1.7714720    -3.2410880     0.0123870
  H        3.7417620    -1.7087950     0.0220870
  H       -3.7187230     0.9816890     1.0666350
  H       -4.4568090     0.1237200    -0.3002800
  H       -3.3965620     1.5279900    -0.5904610
units angstrom
no_reorient  #important for SAPT in psi4, default
symmetry c1  #important for SAPT in psi4, default
}

set PROPERTIES_ORIGIN ["COM"]
properties('MP2/aug-cc-pvtz', properties = ['dipole'])
--------------------------------------------------------------------------

    Molecular point group: c1
  Charge       = 0
  Multiplicity = 1
  Basis Set: AUG-CC-PVTZ
    Blend: AUG-CC-PVTZ
  Basis Set: (AUG-CC-PVTZ AUX)
    Blend: AUG-CC-PVTZ-JKFIT

    Orbital Energies [Eh]
    ---------------------

    Doubly Occupied:

       1A   -104.853743     2A    -20.540427     3A    -15.618339
       4A    -11.375792     5A    -11.311545     6A    -11.308221
       7A    -11.255813     8A    -11.251193     9A    -11.246951
      10A    -11.241494    11A    -11.240588    12A    -10.577679
      13A     -8.044534    14A     -8.042817    15A     -8.042708
      16A     -1.396349    17A     -1.285855    18A     -1.179387
      19A     -1.120986    20A     -1.046960    21A     -1.006692
      22A     -0.984454    23A     -0.876740    24A     -0.830106
      25A     -0.791477    26A     -0.743509    27A     -0.691947
      28A     -0.677261    29A     -0.639362    30A     -0.631353
      31A     -0.620484    32A     -0.599728    33A     -0.588710
      34A     -0.577147    35A     -0.573645    36A     -0.538777
      37A     -0.529618    38A     -0.507893    39A     -0.478852
      40A     -0.469351    41A     -0.456477    42A     -0.437730
      43A     -0.342593    44A     -0.311028

  @DF-RHF Final Energy:  -896.60262868560915

   => Energetics <=

    Nuclear Repulsion Energy =            656.3074027215859587
    One-Electron Energy =               -2532.0474291917066694
    Two-Electron Energy =                 979.1373977845115633
    Total Energy =                       -896.6026286856091474
  Basis Set: (AUG-CC-PVTZ AUX)
    Blend: AUG-CC-PVTZ-RI
    Molecular point group: c1

    Geometry (in Angstrom), charge = 0, multiplicity = 1:

       Center              X                  Y                   Z               Mass
    ------------   -----------------  -----------------  -----------------  -----------------
         CL           0.995441792810     2.283627338107    -0.006334403580    34.968852682000
         O           -2.583062207190    -1.570900661893    -0.025175403580    15.994914619570
         N           -1.196891207190     0.277080338107    -0.015097403580    14.003074004430
         C            0.035619892810    -0.280215061893    -0.005228203580    12.000000000000
         C            1.205881792810     0.547196338107    -0.000331403580    12.000000000000
         C            0.299963792810    -1.688637661893    -0.000262403580    12.000000000000
         C            2.501520792810     0.039168338107     0.010455596420    12.000000000000
         C            1.599203792810    -2.193456661893     0.010190596420    12.000000000000
         C            2.702432792810    -1.340248661893     0.015412596420    12.000000000000
         C           -2.426244207190    -0.350864661893    -0.016130403580    12.000000000000
         C           -3.590930207190     0.617659338107     0.037571596420    12.000000000000
         H           -0.556714207190    -2.348936661893    -0.005158403580     1.007825032230
         H           -1.208990207190     1.290429338107    -0.011903403580     1.007825032230
         H            3.340490792810     0.729165338107     0.014157596420     1.007825032230
         H            1.742962792810    -3.270868661893     0.013651596420     1.007825032230
         H            3.713252792810    -1.738575661893     0.023351596420     1.007825032230
         H           -3.747232207190     0.951908338107     1.067899596420     1.007825032230
         H           -4.485318207190     0.093939338107    -0.299015403580     1.007825032230
         H           -3.425071207190     1.498209338107    -0.589196403580     1.007825032230

  Basis Set: AUG-CC-PVTZ
    Blend: AUG-CC-PVTZ
  Basis Set: (AUG-CC-PVTZ AUX)
    Blend: AUG-CC-PVTZ-JKFIT
	 Reference Energy          =    -896.6026286856091474 [Eh]
	 Singles Energy            =      -0.0000000000000000 [Eh]
	 Same-Spin Energy          =      -0.5346339185489800 [Eh]
	 Opposite-Spin Energy      =      -1.6213167198423881 [Eh]
	 Correlation Energy        =      -2.1559506383913680 [Eh]
	 Total Energy              =    -898.7585793240004932 [Eh]

	 ================> DF-SCS-MP2 Energies <==================
	-----------------------------------------------------------
	 SCS Same-Spin Scale       =       0.3333333333333333 [-]
	 SCS Opposite-Spin Scale   =       1.2000000000000000 [-]
	 SCS Same-Spin Energy      =      -0.1782113061829933 [Eh]
	 SCS Opposite-Spin Energy  =      -1.9455800638108656 [Eh]
	 SCS Correlation Energy    =      -2.1237913699938589 [Eh]
	 SCS Total Energy          =    -898.7264200556030573 [Eh]
	-----------------------------------------------------------

  Dipole Moment: [D]
     X:     0.2797      Y:     1.8984      Z:     0.0876     Total:     1.9209

*** Psi4 exiting successfully. Buy a developer a beer!
