                               Psi4 1.4a3.dev225

  ==> Input File <==

--------------------------------------------------------------------------
#psi4
#
memory 32 gb

molecule  {
0 1
 Cl        1.0239510     2.3134080    -0.0075990
  O       -2.5545530    -1.5411200    -0.0264400
  N       -1.2055811     0.2162971    -0.0164225
  C        0.1096870    -0.2710340    -0.0061280
  C        1.2343910     0.5769770    -0.0015960
  C        0.3284730    -1.6588570    -0.0015270
  C        2.5300300     0.0689490     0.0091910
  C        1.6277130    -2.1636760     0.0089260
  C        2.7309420    -1.3104680     0.0141480
  C       -2.3977350    -0.3210840    -0.0173950
  C       -3.5624210     0.6474400     0.0363070
  H       -0.5282050    -2.3191560    -0.0064230
  H       -1.1804810     1.3202100    -0.0131680
  H        3.3690000     0.7589460     0.0128930
  H        1.7714720    -3.2410880     0.0123870
  H        3.7417620    -1.7087950     0.0220870
  H       -3.7187230     0.9816890     1.0666350
  H       -4.4568090     0.1237200    -0.3002800
  H       -3.3965620     1.5279900    -0.5904610
units angstrom
no_reorient  #important for SAPT in psi4, default
symmetry c1  #important for SAPT in psi4, default
}

set PROPERTIES_ORIGIN ["COM"]
properties('MP2/aug-cc-pvtz', properties = ['dipole'])
--------------------------------------------------------------------------

    Molecular point group: c1
  Charge       = 0
  Multiplicity = 1
  Basis Set: AUG-CC-PVTZ
    Blend: AUG-CC-PVTZ
  Basis Set: (AUG-CC-PVTZ AUX)
    Blend: AUG-CC-PVTZ-JKFIT

    Orbital Energies [Eh]
    ---------------------

    Doubly Occupied:

       1A   -104.859950     2A    -20.518825     3A    -15.619647
       4A    -11.358731     5A    -11.314512     6A    -11.311749
       7A    -11.259931     8A    -11.249369     9A    -11.247311
      10A    -11.246122    11A    -11.240782    12A    -10.583706
      13A     -8.050564    14A     -8.048814    15A     -8.048706
      16A     -1.390297    17A     -1.270535    18A     -1.187388
      19A     -1.127679    20A     -1.049257    21A     -1.009754
      22A     -0.989041    23A     -0.880795    24A     -0.834895
      25A     -0.786372    26A     -0.725320    27A     -0.685677
      28A     -0.679632    29A     -0.639122    30A     -0.637924
      31A     -0.622519    32A     -0.595028    33A     -0.577894
      34A     -0.575633    35A     -0.569692    36A     -0.538974
      37A     -0.532857    38A     -0.513527    39A     -0.480756
      40A     -0.473048    41A     -0.445023    42A     -0.427697
      43A     -0.346598    44A     -0.322484

  @DF-RHF Final Energy:  -896.59281053596033

   => Energetics <=

    Nuclear Repulsion Energy =            656.9207052274045964
    One-Electron Energy =               -2533.2787579265182103
    Two-Electron Energy =                 979.7652421631532889
    Total Energy =                       -896.5928105359603251
  Basis Set: (AUG-CC-PVTZ AUX)
    Blend: AUG-CC-PVTZ-RI
    Molecular point group: c1

    Geometry (in Angstrom), charge = 0, multiplicity = 1:

       Center              X                  Y                   Z               Mass
    ------------   -----------------  -----------------  -----------------  -----------------
         CL           0.995289197797     2.292592451993    -0.006355289966    34.968852682000
         O           -2.583214802203    -1.561935548007    -0.025196289966    15.994914619570
         N           -1.234242902203     0.195481551993    -0.015178789966    14.003074004430
         C            0.081025197797    -0.291849548007    -0.004884289966    12.000000000000
         C            1.205729197797     0.556161451993    -0.000352289966    12.000000000000
         C            0.299811197797    -1.679672548007    -0.000283289966    12.000000000000
         C            2.501368197797     0.048133451993     0.010434710034    12.000000000000
         C            1.599051197797    -2.184491548007     0.010169710034    12.000000000000
         C            2.702280197797    -1.331283548007     0.015391710034    12.000000000000
         C           -2.426396802203    -0.341899548007    -0.016151289966    12.000000000000
         C           -3.591082802203     0.626624451993     0.037550710034    12.000000000000
         H           -0.556866802203    -2.339971548007    -0.005179289966     1.007825032230
         H           -1.209142802203     1.299394451993    -0.011924289966     1.007825032230
         H            3.340338197797     0.738130451993     0.014136710034     1.007825032230
         H            1.742810197797    -3.261903548007     0.013630710034     1.007825032230
         H            3.713100197797    -1.729610548007     0.023330710034     1.007825032230
         H           -3.747384802203     0.960873451993     1.067878710034     1.007825032230
         H           -4.485470802203     0.102904451993    -0.299036289966     1.007825032230
         H           -3.425223802203     1.507174451993    -0.589217289966     1.007825032230

  Basis Set: AUG-CC-PVTZ
    Blend: AUG-CC-PVTZ
  Basis Set: (AUG-CC-PVTZ AUX)
    Blend: AUG-CC-PVTZ-JKFIT
	 Reference Energy          =    -896.5928105359603251 [Eh]
	 Singles Energy            =      -0.0000000000000000 [Eh]
	 Same-Spin Energy          =      -0.5347253083014842 [Eh]
	 Opposite-Spin Energy      =      -1.6215279728931731 [Eh]
	 Correlation Energy        =      -2.1562532811946573 [Eh]
	 Total Energy              =    -898.7490638171549335 [Eh]

	 ================> DF-SCS-MP2 Energies <==================
	-----------------------------------------------------------
	 SCS Same-Spin Scale       =       0.3333333333333333 [-]
	 SCS Opposite-Spin Scale   =       1.2000000000000000 [-]
	 SCS Same-Spin Energy      =      -0.1782417694338281 [Eh]
	 SCS Opposite-Spin Energy  =      -1.9458335674718077 [Eh]
	 SCS Correlation Energy    =      -2.1240753369056358 [Eh]
	 SCS Total Energy          =    -898.7168858728659870 [Eh]
	-----------------------------------------------------------

  Dipole Moment: [D]
     X:     1.0706      Y:     2.0759      Z:     0.0882     Total:     2.3373

*** Psi4 exiting successfully. Buy a developer a beer!
