                               Psi4 1.4a3.dev225

  ==> Input File <==

--------------------------------------------------------------------------
#psi4
#
memory 32 gb

molecule  {
0 1
 Cl        1.0239510     2.3134080    -0.0075990
  O       -2.5545530    -1.5411200    -0.0264400
  N       -1.1683820     0.3068610    -0.0163620
  C        0.1096870    -0.2710340    -0.0061280
  C        1.2343910     0.5769770    -0.0015960
  C        0.3284730    -1.6588570    -0.0015270
  C        2.5300300     0.0689490     0.0091910
  C        1.6277130    -2.1636760     0.0089260
  C        2.7309420    -1.3104680     0.0141480
  C       -2.3977350    -0.3210840    -0.0173950
  C       -3.5624210     0.6474400     0.0363070
  H       -0.5282050    -2.3191560    -0.0064230
  H       -1.1804810     1.3202100    -0.0131680
  H        3.3690000     0.7589460     0.0128930
  H        1.7714720    -3.2410880     0.0123870
  H        3.7417620    -1.7087950     0.0220870
  H       -3.7143357     1.0177719     1.0548867
  H       -4.4568090     0.1237200    -0.3002800
  H       -3.3965620     1.5279900    -0.5904610
units angstrom
no_reorient  #important for SAPT in psi4, default
symmetry c1  #important for SAPT in psi4, default
}

set PROPERTIES_ORIGIN ["COM"]
properties('MP2/aug-cc-pvtz', properties = ['dipole'])
--------------------------------------------------------------------------

    Molecular point group: c1
  Charge       = 0
  Multiplicity = 1
  Basis Set: AUG-CC-PVTZ
    Blend: AUG-CC-PVTZ
  Basis Set: (AUG-CC-PVTZ AUX)
    Blend: AUG-CC-PVTZ-JKFIT

    Orbital Energies [Eh]
    ---------------------

    Doubly Occupied:

       1A   -104.856510     2A    -20.535810     3A    -15.613583
       4A    -11.371985     5A    -11.309040     6A    -11.307907
       7A    -11.257034     8A    -11.248340     9A    -11.248293
      10A    -11.244078    11A    -11.239951    12A    -10.580324
      13A     -8.047185    14A     -8.045438    15A     -8.045337
      16A     -1.390760    17A     -1.271381    18A     -1.181904
      19A     -1.125186    20A     -1.044849    21A     -1.008898
      22A     -0.987542    23A     -0.871569    24A     -0.830663
      25A     -0.790055    26A     -0.736028    27A     -0.689378
      28A     -0.676345    29A     -0.636663    30A     -0.632542
      31A     -0.621824    32A     -0.597927    33A     -0.591054
      34A     -0.574111    35A     -0.570415    36A     -0.538465
      37A     -0.528447    38A     -0.513976    39A     -0.479756
      40A     -0.470958    41A     -0.451602    42A     -0.434955
      43A     -0.344637    44A     -0.318854

  @DF-RHF Final Energy:  -896.60676890126967

   => Energetics <=

    Nuclear Repulsion Energy =            656.2445237543346366
    One-Electron Energy =               -2531.9794641605303696
    Two-Electron Energy =                 979.1281715049259446
    Total Energy =                       -896.6067689012696746
  Basis Set: (AUG-CC-PVTZ AUX)
    Blend: AUG-CC-PVTZ-RI
    Molecular point group: c1

    Geometry (in Angstrom), charge = 0, multiplicity = 1:

       Center              X                  Y                   Z               Mass
    ------------   -----------------  -----------------  -----------------  -----------------
         CL           0.992181316850     2.284874635312    -0.006290253693    34.968852682000
         O           -2.586322683150    -1.569653364688    -0.025131253693    15.994914619570
         N           -1.200151683150     0.278327635312    -0.015053253693    14.003074004430
         C            0.077917316850    -0.299567364688    -0.004819253693    12.000000000000
         C            1.202621316850     0.548443635312    -0.000287253693    12.000000000000
         C            0.296703316850    -1.687390364688    -0.000218253693    12.000000000000
         C            2.498260316850     0.040415635312     0.010499746307    12.000000000000
         C            1.595943316850    -2.192209364688     0.010234746307    12.000000000000
         C            2.699172316850    -1.339001364688     0.015456746307    12.000000000000
         C           -2.429504683150    -0.349617364688    -0.016086253693    12.000000000000
         C           -3.594190683150     0.618906635312     0.037615746307    12.000000000000
         H           -0.559974683150    -2.347689364688    -0.005114253693     1.007825032230
         H           -1.212250683150     1.291676635312    -0.011859253693     1.007825032230
         H            3.337230316850     0.730412635312     0.014201746307     1.007825032230
         H            1.739702316850    -3.269621364688     0.013695746307     1.007825032230
         H            3.709992316850    -1.737328364688     0.023395746307     1.007825032230
         H           -3.746105383150     0.989238535312     1.056195446307     1.007825032230
         H           -4.488578683150     0.095186635312    -0.298971253693     1.007825032230
         H           -3.428331683150     1.499456635312    -0.589152253693     1.007825032230

  Basis Set: AUG-CC-PVTZ
    Blend: AUG-CC-PVTZ
  Basis Set: (AUG-CC-PVTZ AUX)
    Blend: AUG-CC-PVTZ-JKFIT
	 Reference Energy          =    -896.6067689012696746 [Eh]
	 Singles Energy            =      -0.0000000000000000 [Eh]
	 Same-Spin Energy          =      -0.5339639353568481 [Eh]
	 Opposite-Spin Energy      =      -1.6204705766400835 [Eh]
	 Correlation Energy        =      -2.1544345119969317 [Eh]
	 Total Energy              =    -898.7612034132665713 [Eh]

	 ================> DF-SCS-MP2 Energies <==================
	-----------------------------------------------------------
	 SCS Same-Spin Scale       =       0.3333333333333333 [-]
	 SCS Opposite-Spin Scale   =       1.2000000000000000 [-]
	 SCS Same-Spin Energy      =      -0.1779879784522827 [Eh]
	 SCS Opposite-Spin Energy  =      -1.9445646919681001 [Eh]
	 SCS Correlation Energy    =      -2.1225526704203830 [Eh]
	 SCS Total Energy          =    -898.7293215716900932 [Eh]
	-----------------------------------------------------------

  Dipole Moment: [D]
     X:     0.5965      Y:     1.8774      Z:     0.0870     Total:     1.9718

*** Psi4 exiting successfully. Buy a developer a beer!
