                               Psi4 1.4a3.dev225

  ==> Input File <==

--------------------------------------------------------------------------
#psi4
#
memory 32 gb

molecule  {
0 1
 Cl        1.0239510     2.3134080    -0.0075990
  O       -2.5545530    -1.5411200    -0.0264400
  N       -1.1249563     0.3946095    -0.0162516
  C        0.1096870    -0.2710340    -0.0061280
  C        1.2343910     0.5769770    -0.0015960
  C        0.3284730    -1.6588570    -0.0015270
  C        2.5300300     0.0689490     0.0091910
  C        1.6277130    -2.1636760     0.0089260
  C        2.7309420    -1.3104680     0.0141480
  C       -2.3977350    -0.3210840    -0.0173950
  C       -3.5624210     0.6474400     0.0363070
  H       -0.5282050    -2.3191560    -0.0064230
  H       -1.1804810     1.3202100    -0.0131680
  H        3.3690000     0.7589460     0.0128930
  H        1.7714720    -3.2410880     0.0123870
  H        3.7417620    -1.7087950     0.0220870
  H       -3.7187230     0.9816890     1.0666350
  H       -4.4568090     0.1237200    -0.3002800
  H       -3.3965620     1.5279900    -0.5904610
units angstrom
no_reorient  #important for SAPT in psi4, default
symmetry c1  #important for SAPT in psi4, default
}

set PROPERTIES_ORIGIN ["COM"]
properties('MP2/aug-cc-pvtz', properties = ['dipole'])
--------------------------------------------------------------------------

    Molecular point group: c1
  Charge       = 0
  Multiplicity = 1
  Basis Set: AUG-CC-PVTZ
    Blend: AUG-CC-PVTZ
  Basis Set: (AUG-CC-PVTZ AUX)
    Blend: AUG-CC-PVTZ-JKFIT

    Orbital Energies [Eh]
    ---------------------

    Doubly Occupied:

       1A   -104.852999     2A    -20.551374     3A    -15.605981
       4A    -11.383918     5A    -11.306788     6A    -11.302819
       7A    -11.254236     8A    -11.250885     9A    -11.247454
      10A    -11.241082    11A    -11.239560    12A    -10.576874
      13A     -8.043736    14A     -8.041990    15A     -8.041897
      16A     -1.394727    17A     -1.272069    18A     -1.176818
      19A     -1.123004    20A     -1.041826    21A     -1.008765
      22A     -0.987755    23A     -0.862075    24A     -0.831753
      25A     -0.793926    26A     -0.743600    27A     -0.690391
      28A     -0.672851    29A     -0.634800    30A     -0.630206
      31A     -0.623304    32A     -0.608932    33A     -0.589746
      34A     -0.573818    35A     -0.568612    36A     -0.537259
      37A     -0.526314    38A     -0.513675    39A     -0.479324
      40A     -0.468169    41A     -0.456062    42A     -0.438383
      43A     -0.342861    44A     -0.315311

  @DF-RHF Final Energy:  -896.59211293770466

   => Energetics <=

    Nuclear Repulsion Energy =            655.7606660040261204
    One-Electron Energy =               -2531.0097022915688285
    Two-Electron Energy =                 978.6569233498381664
    Total Energy =                       -896.5921129377046555
  Basis Set: (AUG-CC-PVTZ AUX)
    Blend: AUG-CC-PVTZ-RI
    Molecular point group: c1

    Geometry (in Angstrom), charge = 0, multiplicity = 1:

       Center              X                  Y                   Z               Mass
    ------------   -----------------  -----------------  -----------------  -----------------
         CL           0.988609917368     2.277820340638    -0.006369448004    34.968852682000
         O           -2.589894082632    -1.576707659362    -0.025210448004    15.994914619570
         N           -1.160297382632     0.359021840638    -0.015022048004    14.003074004430
         C            0.074345917368    -0.306621659362    -0.004898448004    12.000000000000
         C            1.199049917368     0.541389340638    -0.000366448004    12.000000000000
         C            0.293131917368    -1.694444659362    -0.000297448004    12.000000000000
         C            2.494688917368     0.033361340638     0.010420551996    12.000000000000
         C            1.592371917368    -2.199263659362     0.010155551996    12.000000000000
         C            2.695600917368    -1.346055659362     0.015377551996    12.000000000000
         C           -2.433076082632    -0.356671659362    -0.016165448004    12.000000000000
         C           -3.597762082632     0.611852340638     0.037536551996    12.000000000000
         H           -0.563546082632    -2.354743659362    -0.005193448004     1.007825032230
         H           -1.215822082632     1.284622340638    -0.011938448004     1.007825032230
         H            3.333658917368     0.723358340638     0.014122551996     1.007825032230
         H            1.736130917368    -3.276675659362     0.013616551996     1.007825032230
         H            3.706420917368    -1.744382659362     0.023316551996     1.007825032230
         H           -3.754064082632     0.946101340638     1.067864551996     1.007825032230
         H           -4.492150082632     0.088132340638    -0.299050448004     1.007825032230
         H           -3.431903082632     1.492402340638    -0.589231448004     1.007825032230

  Basis Set: AUG-CC-PVTZ
    Blend: AUG-CC-PVTZ
  Basis Set: (AUG-CC-PVTZ AUX)
    Blend: AUG-CC-PVTZ-JKFIT
	 Reference Energy          =    -896.5921129377046555 [Eh]
	 Singles Energy            =      -0.0000000000000000 [Eh]
	 Same-Spin Energy          =      -0.5338277430517566 [Eh]
	 Opposite-Spin Energy      =      -1.6210656773278942 [Eh]
	 Correlation Energy        =      -2.1548934203796506 [Eh]
	 Total Energy              =    -898.7470063580842634 [Eh]

	 ================> DF-SCS-MP2 Energies <==================
	-----------------------------------------------------------
	 SCS Same-Spin Scale       =       0.3333333333333333 [-]
	 SCS Opposite-Spin Scale   =       1.2000000000000000 [-]
	 SCS Same-Spin Energy      =      -0.1779425810172522 [Eh]
	 SCS Opposite-Spin Energy  =      -1.9452788127934730 [Eh]
	 SCS Correlation Energy    =      -2.1232213938107254 [Eh]
	 SCS Total Energy          =    -898.7153343315153506 [Eh]
	-----------------------------------------------------------

  Dipole Moment: [D]
     X:     0.0988      Y:     1.6345      Z:     0.0906     Total:     1.6400

*** Psi4 exiting successfully. Buy a developer a beer!
