                               Psi4 1.4a3.dev225

  ==> Input File <==

--------------------------------------------------------------------------
#psi4
#
memory 32 gb

molecule  {
0 1
 Cl        1.0239510     2.3134080    -0.0075990
  O       -2.5545530    -1.5411200    -0.0264400
  N       -1.1683820     0.3068610    -0.0163620
  C        0.1096870    -0.2710340    -0.0061280
  C        1.2343910     0.5769770    -0.0015960
  C        0.3284730    -1.6588570    -0.0015270
  C        2.5300300     0.0689490     0.0091910
  C        1.6277130    -2.1636760     0.0089260
  C        2.7309420    -1.3104680     0.0141480
  C       -2.3977350    -0.3210840    -0.0173950
  C       -3.5624210     0.6474400     0.0363070
  H       -0.5282050    -2.3191560    -0.0064230
  H       -1.1804810     1.3202100    -0.0131680
  H        3.3690000     0.7589460     0.0128930
  H        1.7714720    -3.2410880     0.0123870
  H        3.7417620    -1.7087950     0.0220870
  H       -3.7165528     0.9997841     1.0609169
  H       -4.4568090     0.1237200    -0.3002800
  H       -3.3965620     1.5279900    -0.5904610
units angstrom
no_reorient  #important for SAPT in psi4, default
symmetry c1  #important for SAPT in psi4, default
}

set PROPERTIES_ORIGIN ["COM"]
properties('MP2/aug-cc-pvtz', properties = ['dipole'])
--------------------------------------------------------------------------

    Molecular point group: c1
  Charge       = 0
  Multiplicity = 1
  Basis Set: AUG-CC-PVTZ
    Blend: AUG-CC-PVTZ
  Basis Set: (AUG-CC-PVTZ AUX)
    Blend: AUG-CC-PVTZ-JKFIT

    Orbital Energies [Eh]
    ---------------------

    Doubly Occupied:

       1A   -104.856497     2A    -20.535673     3A    -15.613572
       4A    -11.371839     5A    -11.309029     6A    -11.307897
       7A    -11.257025     8A    -11.248343     9A    -11.248284
      10A    -11.244073    11A    -11.239940    12A    -10.580312
      13A     -8.047173    14A     -8.045425    15A     -8.045325
      16A     -1.390678    17A     -1.271354    18A     -1.181891
      19A     -1.125176    20A     -1.044865    21A     -1.008899
      22A     -0.987557    23A     -0.871539    24A     -0.830645
      25A     -0.789971    26A     -0.736005    27A     -0.688909
      28A     -0.676336    29A     -0.636481    30A     -0.633121
      31A     -0.621811    32A     -0.597567    33A     -0.591021
      34A     -0.574369    35A     -0.570533    36A     -0.538425
      37A     -0.528688    38A     -0.513955    39A     -0.479743
      40A     -0.470945    41A     -0.451569    42A     -0.434721
      43A     -0.344627    44A     -0.318853

  @DF-RHF Final Energy:  -896.60689076432732

   => Energetics <=

    Nuclear Repulsion Energy =            656.2525028495476818
    One-Electron Energy =               -2531.9974646313107769
    Two-Electron Energy =                 979.1380710174357773
    Total Energy =                       -896.6068907643273178
  Basis Set: (AUG-CC-PVTZ AUX)
    Blend: AUG-CC-PVTZ-RI
    Molecular point group: c1

    Geometry (in Angstrom), charge = 0, multiplicity = 1:

       Center              X                  Y                   Z               Mass
    ------------   -----------------  -----------------  -----------------  -----------------
         CL           0.992194536138     2.284981886185    -0.006326208296    34.968852682000
         O           -2.586309463862    -1.569546113815    -0.025167208296    15.994914619570
         N           -1.200138463862     0.278434886185    -0.015089208296    14.003074004430
         C            0.077930536138    -0.299460113815    -0.004855208296    12.000000000000
         C            1.202634536138     0.548550886185    -0.000323208296    12.000000000000
         C            0.296716536138    -1.687283113815    -0.000254208296    12.000000000000
         C            2.498273536138     0.040522886185     0.010463791704    12.000000000000
         C            1.595956536138    -2.192102113815     0.010198791704    12.000000000000
         C            2.699185536138    -1.338894113815     0.015420791704    12.000000000000
         C           -2.429491463862    -0.349510113815    -0.016122208296    12.000000000000
         C           -3.594177463862     0.619013886185     0.037579791704    12.000000000000
         H           -0.559961463862    -2.347582113815    -0.005150208296     1.007825032230
         H           -1.212237463862     1.291783886185    -0.011895208296     1.007825032230
         H            3.337243536138     0.730519886185     0.014165791704     1.007825032230
         H            1.739715536138    -3.269514113815     0.013659791704     1.007825032230
         H            3.710005536138    -1.737221113815     0.023359791704     1.007825032230
         H           -3.748309263862     0.971357986185     1.062189691704     1.007825032230
         H           -4.488565463862     0.095293886185    -0.299007208296     1.007825032230
         H           -3.428318463862     1.499563886185    -0.589188208296     1.007825032230

  Basis Set: AUG-CC-PVTZ
    Blend: AUG-CC-PVTZ
  Basis Set: (AUG-CC-PVTZ AUX)
    Blend: AUG-CC-PVTZ-JKFIT
	 Reference Energy          =    -896.6068907643273178 [Eh]
	 Singles Energy            =      -0.0000000000000000 [Eh]
	 Same-Spin Energy          =      -0.5339589911371838 [Eh]
	 Opposite-Spin Energy      =      -1.6204631687143460 [Eh]
	 Correlation Energy        =      -2.1544221598515296 [Eh]
	 Total Energy              =    -898.7613129241788101 [Eh]

	 ================> DF-SCS-MP2 Energies <==================
	-----------------------------------------------------------
	 SCS Same-Spin Scale       =       0.3333333333333333 [-]
	 SCS Opposite-Spin Scale   =       1.2000000000000000 [-]
	 SCS Same-Spin Energy      =      -0.1779863303790613 [Eh]
	 SCS Opposite-Spin Energy  =      -1.9445558024572152 [Eh]
	 SCS Correlation Energy    =      -2.1225421328362764 [Eh]
	 SCS Total Energy          =    -898.7294328971636332 [Eh]
	-----------------------------------------------------------

  Dipole Moment: [D]
     X:     0.5941      Y:     1.8712      Z:     0.0880     Total:     1.9652

*** Psi4 exiting successfully. Buy a developer a beer!
