                               Psi4 1.4a3.dev225

  ==> Input File <==

--------------------------------------------------------------------------
#psi4
#
memory 32 gb

molecule  {
0 1
 Cl        1.0239510     2.3134080    -0.0075990
  O       -2.5545530    -1.5411200    -0.0264400
  N       -1.1683820     0.3068610    -0.0163620
  C        0.1096870    -0.2710340    -0.0061280
  C        1.2343910     0.5769770    -0.0015960
  C        0.3284730    -1.6588570    -0.0015270
  C        2.5300300     0.0689490     0.0091910
  C        1.6277130    -2.1636760     0.0089260
  C        2.7309420    -1.3104680     0.0141480
  C       -2.3977350    -0.3210840    -0.0173950
  C       -3.5624210     0.6474400     0.0363070
  H       -0.5282050    -2.3191560    -0.0064230
  H       -1.1804810     1.3202100    -0.0131680
  H        3.3690000     0.7589460     0.0128930
  H        1.7582463    -3.1419670     0.0120686
  H        3.7417620    -1.7087950     0.0220870
  H       -3.7187230     0.9816890     1.0666350
  H       -4.4568090     0.1237200    -0.3002800
  H       -3.3965620     1.5279900    -0.5904610
units angstrom
no_reorient  #important for SAPT in psi4, default
symmetry c1  #important for SAPT in psi4, default
}

set PROPERTIES_ORIGIN ["COM"]
properties('MP2/aug-cc-pvtz', properties = ['dipole'])
--------------------------------------------------------------------------

    Molecular point group: c1
  Charge       = 0
  Multiplicity = 1
  Basis Set: AUG-CC-PVTZ
    Blend: AUG-CC-PVTZ
  Basis Set: (AUG-CC-PVTZ AUX)
    Blend: AUG-CC-PVTZ-JKFIT

    Orbital Energies [Eh]
    ---------------------

    Doubly Occupied:

       1A   -104.856304     2A    -20.535371     3A    -15.613274
       4A    -11.371522     5A    -11.308669     6A    -11.307494
       7A    -11.256462     8A    -11.248224     9A    -11.243517
      10A    -11.239428    11A    -11.236112    12A    -10.580119
      13A     -8.046980    14A     -8.045233    15A     -8.045133
      16A     -1.390426    17A     -1.271049    18A     -1.181729
      19A     -1.126027    20A     -1.044661    21A     -1.011306
      22A     -0.988992    23A     -0.871559    24A     -0.835796
      25A     -0.790133    26A     -0.743892    27A     -0.688940
      28A     -0.676469    29A     -0.636090    30A     -0.633545
      31A     -0.627236    32A     -0.598670    33A     -0.595019
      34A     -0.574536    35A     -0.570262    36A     -0.538374
      37A     -0.528673    38A     -0.518862    39A     -0.479434
      40A     -0.470768    41A     -0.451235    42A     -0.434331
      43A     -0.344287    44A     -0.318487

  @DF-RHF Final Energy:  -896.60106938403828

   => Energetics <=

    Nuclear Repulsion Energy =            656.8300433246798775
    One-Electron Energy =               -2533.1129657683973164
    Two-Electron Energy =                 979.6818530596790424
    Total Energy =                       -896.6010693840382828
  Basis Set: (AUG-CC-PVTZ AUX)
    Blend: AUG-CC-PVTZ-RI
    Molecular point group: c1

    Geometry (in Angstrom), charge = 0, multiplicity = 1:

       Center              X                  Y                   Z               Mass
    ------------   -----------------  -----------------  -----------------  -----------------
         CL           0.992286333006     2.284498775494    -0.006358403592    34.968852682000
         O           -2.586217666994    -1.570029224506    -0.025199403592    15.994914619570
         N           -1.200046666994     0.277951775494    -0.015121403592    14.003074004430
         C            0.078022333006    -0.299943224506    -0.004887403592    12.000000000000
         C            1.202726333006     0.548067775494    -0.000355403592    12.000000000000
         C            0.296808333006    -1.687766224506    -0.000286403592    12.000000000000
         C            2.498365333006     0.040039775494     0.010431596408    12.000000000000
         C            1.596048333006    -2.192585224506     0.010166596408    12.000000000000
         C            2.699277333006    -1.339377224506     0.015388596408    12.000000000000
         C           -2.429399666994    -0.349993224506    -0.016154403592    12.000000000000
         C           -3.594085666994     0.618530775494     0.037547596408    12.000000000000
         H           -0.559869666994    -2.348065224506    -0.005182403592     1.007825032230
         H           -1.212145666994     1.291300775494    -0.011927403592     1.007825032230
         H            3.337335333006     0.730036775494     0.014133596408     1.007825032230
         H            1.726581633006    -3.170876224506     0.013309196408     1.007825032230
         H            3.710097333006    -1.737704224506     0.023327596408     1.007825032230
         H           -3.750387666994     0.952779775494     1.067875596408     1.007825032230
         H           -4.488473666994     0.094810775494    -0.299039403592     1.007825032230
         H           -3.428226666994     1.499080775494    -0.589220403592     1.007825032230

  Basis Set: AUG-CC-PVTZ
    Blend: AUG-CC-PVTZ
  Basis Set: (AUG-CC-PVTZ AUX)
    Blend: AUG-CC-PVTZ-JKFIT
	 Reference Energy          =    -896.6010693840382828 [Eh]
	 Singles Energy            =      -0.0000000000000000 [Eh]
	 Same-Spin Energy          =      -0.5338269500710819 [Eh]
	 Opposite-Spin Energy      =      -1.6200037745007498 [Eh]
	 Correlation Energy        =      -2.1538307245718320 [Eh]
	 Total Energy              =    -898.7549001086100589 [Eh]

	 ================> DF-SCS-MP2 Energies <==================
	-----------------------------------------------------------
	 SCS Same-Spin Scale       =       0.3333333333333333 [-]
	 SCS Opposite-Spin Scale   =       1.2000000000000000 [-]
	 SCS Same-Spin Energy      =      -0.1779423166903606 [Eh]
	 SCS Opposite-Spin Energy  =      -1.9440045294008996 [Eh]
	 SCS Correlation Energy    =      -2.1219468460912601 [Eh]
	 SCS Total Energy          =    -898.7230162301295877 [Eh]
	-----------------------------------------------------------

  Dipole Moment: [D]
     X:     0.6014      Y:     1.8425      Z:     0.0890     Total:     1.9402

*** Psi4 exiting successfully. Buy a developer a beer!
