                               Psi4 1.4a3.dev225

  ==> Input File <==

--------------------------------------------------------------------------
#psi4
#
memory 32 gb

molecule  {
0 1
 Cl        1.0239510     2.3134080    -0.0075990
  O       -2.5545530    -1.5411200    -0.0264400
  N       -1.1683820     0.3068610    -0.0163620
  C        0.1096870    -0.2710340    -0.0061280
  C        1.2343910     0.5769770    -0.0015960
  C        0.3284730    -1.6588570    -0.0015270
  C        2.5300300     0.0689490     0.0091910
  C        1.6277130    -2.1636760     0.0089260
  C        2.7309420    -1.3104680     0.0141480
  C       -2.3977350    -0.3210840    -0.0173950
  C       -3.5624210     0.6474400     0.0363070
  H       -0.4886036    -2.2886326    -0.0061967
  H       -1.1804810     1.3202100    -0.0131680
  H        3.3690000     0.7589460     0.0128930
  H        1.7714720    -3.2410880     0.0123870
  H        3.7417620    -1.7087950     0.0220870
  H       -3.7187230     0.9816890     1.0666350
  H       -4.4568090     0.1237200    -0.3002800
  H       -3.3965620     1.5279900    -0.5904610
units angstrom
no_reorient  #important for SAPT in psi4, default
symmetry c1  #important for SAPT in psi4, default
}

set PROPERTIES_ORIGIN ["COM"]
properties('MP2/aug-cc-pvtz', properties = ['dipole'])
--------------------------------------------------------------------------

    Molecular point group: c1
  Charge       = 0
  Multiplicity = 1
  Basis Set: AUG-CC-PVTZ
    Blend: AUG-CC-PVTZ
  Basis Set: (AUG-CC-PVTZ AUX)
    Blend: AUG-CC-PVTZ-JKFIT

    Orbital Energies [Eh]
    ---------------------

    Doubly Occupied:

       1A   -104.856474     2A    -20.535508     3A    -15.613553
       4A    -11.371529     5A    -11.308972     6A    -11.307840
       7A    -11.257200     8A    -11.248369     9A    -11.248283
      10A    -11.244082    11A    -11.235170    12A    -10.580290
      13A     -8.047151    14A     -8.045403    15A     -8.045303
      16A     -1.390400    17A     -1.271362    18A     -1.181932
      19A     -1.125635    20A     -1.045340    21A     -1.010273
      22A     -0.987568    23A     -0.873398    24A     -0.831484
      25A     -0.791312    26A     -0.736004    27A     -0.688466
      28A     -0.680003    29A     -0.636332    30A     -0.633652
      31A     -0.625738    32A     -0.597942    33A     -0.591925
      34A     -0.574817    35A     -0.570684    36A     -0.539387
      37A     -0.528813    38A     -0.515411    39A     -0.479743
      40A     -0.471059    41A     -0.451470    42A     -0.435606
      43A     -0.344843    44A     -0.318872

  @DF-RHF Final Energy:  -896.60623837401829

   => Energetics <=

    Nuclear Repulsion Energy =            656.5010233212617550
    One-Electron Energy =               -2532.4653236567960448
    Two-Electron Energy =                 979.3580619615160003
    Total Energy =                       -896.6062383740182895
  Basis Set: (AUG-CC-PVTZ AUX)
    Blend: AUG-CC-PVTZ-RI
    Molecular point group: c1

    Geometry (in Angstrom), charge = 0, multiplicity = 1:

       Center              X                  Y                   Z               Mass
    ------------   -----------------  -----------------  -----------------  -----------------
         CL           0.991971355490     2.284907783403    -0.006361651323    34.968852682000
         O           -2.586532644510    -1.569620216597    -0.025202651323    15.994914619570
         N           -1.200361644510     0.278360783403    -0.015124651323    14.003074004430
         C            0.077707355490    -0.299534216597    -0.004890651323    12.000000000000
         C            1.202411355490     0.548476783403    -0.000358651323    12.000000000000
         C            0.296493355490    -1.687357216597    -0.000289651323    12.000000000000
         C            2.498050355490     0.040448783403     0.010428348677    12.000000000000
         C            1.595733355490    -2.192176216597     0.010163348677    12.000000000000
         C            2.698962355490    -1.338968216597     0.015385348677    12.000000000000
         C           -2.429714644510    -0.349584216597    -0.016157651323    12.000000000000
         C           -3.594400644510     0.618939783403     0.037544348677    12.000000000000
         H           -0.520583244510    -2.317132816597    -0.004959351323     1.007825032230
         H           -1.212460644510     1.291709783403    -0.011930651323     1.007825032230
         H            3.337020355490     0.730445783403     0.014130348677     1.007825032230
         H            1.739492355490    -3.269588216597     0.013624348677     1.007825032230
         H            3.709782355490    -1.737295216597     0.023324348677     1.007825032230
         H           -3.750702644510     0.953188783403     1.067872348677     1.007825032230
         H           -4.488788644510     0.095219783403    -0.299042651323     1.007825032230
         H           -3.428541644510     1.499489783403    -0.589223651323     1.007825032230

  Basis Set: AUG-CC-PVTZ
    Blend: AUG-CC-PVTZ
  Basis Set: (AUG-CC-PVTZ AUX)
    Blend: AUG-CC-PVTZ-JKFIT
	 Reference Energy          =    -896.6062383740182895 [Eh]
	 Singles Energy            =      -0.0000000000000000 [Eh]
	 Same-Spin Energy          =      -0.5337415450895709 [Eh]
	 Opposite-Spin Energy      =      -1.6200773821248051 [Eh]
	 Correlation Energy        =      -2.1538189272143762 [Eh]
	 Total Energy              =    -898.7600573012326777 [Eh]

	 ================> DF-SCS-MP2 Energies <==================
	-----------------------------------------------------------
	 SCS Same-Spin Scale       =       0.3333333333333333 [-]
	 SCS Opposite-Spin Scale   =       1.2000000000000000 [-]
	 SCS Same-Spin Energy      =      -0.1779138483631903 [Eh]
	 SCS Opposite-Spin Energy  =      -1.9440928585497661 [Eh]
	 SCS Correlation Energy    =      -2.1220067069129565 [Eh]
	 SCS Total Energy          =    -898.7282450809312877 [Eh]
	-----------------------------------------------------------

  Dipole Moment: [D]
     X:     0.6169      Y:     1.8711      Z:     0.0891     Total:     1.9722

*** Psi4 exiting successfully. Buy a developer a beer!
