                               Psi4 1.4a3.dev225

  ==> Input File <==

--------------------------------------------------------------------------
#psi4
#
memory 32 gb

molecule  {
0 1
 Cl        1.0239510     2.3134080    -0.0075990
  O       -2.5545530    -1.5411200    -0.0264400
  N       -1.1683820     0.3068610    -0.0163620
  C        0.1096870    -0.2710340    -0.0061280
  C        1.2343910     0.5769770    -0.0015960
  C        0.3284730    -1.6588570    -0.0015270
  C        2.5300300     0.0689490     0.0091910
  C        1.6277130    -2.1636760     0.0089260
  C        2.7309420    -1.3104680     0.0141480
  C       -2.3977350    -0.3210840    -0.0173950
  C       -3.5624210     0.6474400     0.0363070
  H       -0.5282050    -2.3191560    -0.0064230
  H       -1.1804810     1.3202100    -0.0131680
  H        3.3690000     0.7589460     0.0128930
  H        1.7714720    -3.2410880     0.0123870
  H        3.7417620    -1.7087950     0.0220870
  H       -3.7187230     0.9816890     1.0666350
  H       -4.6209581     0.0276004    -0.3620546
  H       -3.3965620     1.5279900    -0.5904610
units angstrom
no_reorient  #important for SAPT in psi4, default
symmetry c1  #important for SAPT in psi4, default
}

set PROPERTIES_ORIGIN ["COM"]
properties('MP2/aug-cc-pvtz', properties = ['dipole'])
--------------------------------------------------------------------------

    Molecular point group: c1
  Charge       = 0
  Multiplicity = 1
  Basis Set: AUG-CC-PVTZ
    Blend: AUG-CC-PVTZ
  Basis Set: (AUG-CC-PVTZ AUX)
    Blend: AUG-CC-PVTZ-JKFIT

    Orbital Energies [Eh]
    ---------------------

    Doubly Occupied:

       1A   -104.857009     2A    -20.535444     3A    -15.614986
       4A    -11.373171     5A    -11.309693     6A    -11.308549
       7A    -11.268980     8A    -11.257460     9A    -11.248690
      10A    -11.244551    11A    -11.240441    12A    -10.580823
      13A     -8.047684    14A     -8.045936    15A     -8.045835
      16A     -1.390661    17A     -1.272266    18A     -1.182516
      19A     -1.125659    20A     -1.042667    21A     -1.007626
      22A     -0.981301    23A     -0.869813    24A     -0.830297
      25A     -0.789426    26A     -0.735256    27A     -0.689223
      28A     -0.676006    29A     -0.636985    30A     -0.634117
      31A     -0.620324    32A     -0.598135    33A     -0.591471
      34A     -0.576127    35A     -0.543275    36A     -0.534106
      37A     -0.518645    38A     -0.514419    39A     -0.479972
      40A     -0.471364    41A     -0.451837    42A     -0.435210
      43A     -0.345061    44A     -0.319479

  @DF-RHF Final Energy:  -896.58596975963530

   => Energetics <=

    Nuclear Repulsion Energy =            655.4114960122511775
    One-Electron Energy =               -2530.3099367512227218
    Two-Electron Energy =                 978.3124709793363536
    Total Energy =                       -896.5859697596353044
  Basis Set: (AUG-CC-PVTZ AUX)
    Blend: AUG-CC-PVTZ-RI
    Molecular point group: c1

    Geometry (in Angstrom), charge = 0, multiplicity = 1:

       Center              X                  Y                   Z               Mass
    ------------   -----------------  -----------------  -----------------  -----------------
         CL           0.993186202160     2.285662882541    -0.005991975730    34.968852682000
         O           -2.585317797840    -1.568865117459    -0.024832975730    15.994914619570
         N           -1.199146797840     0.279115882541    -0.014754975730    14.003074004430
         C            0.078922202160    -0.298779117459    -0.004520975730    12.000000000000
         C            1.203626202160     0.549231882541     0.000011024270    12.000000000000
         C            0.297708202160    -1.686602117459     0.000080024270    12.000000000000
         C            2.499265202160     0.041203882541     0.010798024270    12.000000000000
         C            1.596948202160    -2.191421117459     0.010533024270    12.000000000000
         C            2.700177202160    -1.338213117459     0.015755024270    12.000000000000
         C           -2.428499797840    -0.348829117459    -0.015787975730    12.000000000000
         C           -3.593185797840     0.619694882541     0.037914024270    12.000000000000
         H           -0.558969797840    -2.346901117459    -0.004815975730     1.007825032230
         H           -1.211245797840     1.292464882541    -0.011560975730     1.007825032230
         H            3.338235202160     0.731200882541     0.014500024270     1.007825032230
         H            1.740707202160    -3.268833117459     0.013994024270     1.007825032230
         H            3.710997202160    -1.736540117459     0.023694024270     1.007825032230
         H           -3.749487797840     0.953943882541     1.068242024270     1.007825032230
         H           -4.651722897840    -0.000144717459    -0.360447575730     1.007825032230
         H           -3.427326797840     1.500244882541    -0.588853975730     1.007825032230

  Basis Set: AUG-CC-PVTZ
    Blend: AUG-CC-PVTZ
  Basis Set: (AUG-CC-PVTZ AUX)
    Blend: AUG-CC-PVTZ-JKFIT
	 Reference Energy          =    -896.5859697596353044 [Eh]
	 Singles Energy            =      -0.0000000000000000 [Eh]
	 Same-Spin Energy          =      -0.5340631196895198 [Eh]
	 Opposite-Spin Energy      =      -1.6222243842958528 [Eh]
	 Correlation Energy        =      -2.1562875039853724 [Eh]
	 Total Energy              =    -898.7422572636206723 [Eh]

	 ================> DF-SCS-MP2 Energies <==================
	-----------------------------------------------------------
	 SCS Same-Spin Scale       =       0.3333333333333333 [-]
	 SCS Opposite-Spin Scale   =       1.2000000000000000 [-]
	 SCS Same-Spin Energy      =      -0.1780210398965066 [Eh]
	 SCS Opposite-Spin Energy  =      -1.9466692611550234 [Eh]
	 SCS Correlation Energy    =      -2.1246903010515301 [Eh]
	 SCS Total Energy          =    -898.7106600606867914 [Eh]
	-----------------------------------------------------------

  Dipole Moment: [D]
     X:     0.6664      Y:     1.8527      Z:     0.0998     Total:     1.9715

*** Psi4 exiting successfully. Buy a developer a beer!
