                               Psi4 1.4a3.dev225

  ==> Input File <==

--------------------------------------------------------------------------
#psi4
#
memory 32 gb

molecule  {
0 1
 Cl        1.0239510     2.3134080    -0.0075990
  O       -2.5545530    -1.5411200    -0.0264400
  N       -1.1683820     0.3068610    -0.0163620
  C        0.1096870    -0.2710340    -0.0061280
  C        1.2343910     0.5769770    -0.0015960
  C        0.3284730    -1.6588570    -0.0015270
  C        2.5300300     0.0689490     0.0091910
  C        1.6277130    -2.1636760     0.0089260
  C        2.7309420    -1.3104680     0.0141480
  C       -2.5758448    -0.4120613    -0.0175447
  C       -3.5624210     0.6474400     0.0363070
  H       -0.5282050    -2.3191560    -0.0064230
  H       -1.1804810     1.3202100    -0.0131680
  H        3.3690000     0.7589460     0.0128930
  H        1.7714720    -3.2410880     0.0123870
  H        3.7417620    -1.7087950     0.0220870
  H       -3.7187230     0.9816890     1.0666350
  H       -4.4568090     0.1237200    -0.3002800
  H       -3.3965620     1.5279900    -0.5904610
units angstrom
no_reorient  #important for SAPT in psi4, default
symmetry c1  #important for SAPT in psi4, default
}

set PROPERTIES_ORIGIN ["COM"]
properties('MP2/aug-cc-pvtz', properties = ['dipole'])
--------------------------------------------------------------------------

    Molecular point group: c1
  Charge       = 0
  Multiplicity = 1
  Basis Set: AUG-CC-PVTZ
    Blend: AUG-CC-PVTZ
  Basis Set: (AUG-CC-PVTZ AUX)
    Blend: AUG-CC-PVTZ-JKFIT

    Orbital Energies [Eh]
    ---------------------

    Doubly Occupied:

       1A   -104.842864     2A    -20.576978     3A    -15.575947
       4A    -11.387581     5A    -11.294265     6A    -11.290903
       7A    -11.262278     8A    -11.246318     9A    -11.238933
      10A    -11.229294    11A    -11.226854    12A    -10.566699
      13A     -8.033564    14A     -8.031845    15A     -8.031747
      16A     -1.480969    17A     -1.231225    18A     -1.155696
      19A     -1.112099    20A     -1.061155    21A     -1.001919
      22A     -0.976239    23A     -0.841984    24A     -0.814165
      25A     -0.778502    26A     -0.713150    27A     -0.712020
      28A     -0.675822    29A     -0.659082    30A     -0.655627
      31A     -0.619974    32A     -0.608724    33A     -0.579776
      34A     -0.571161    35A     -0.567283    36A     -0.549127
      37A     -0.529740    38A     -0.504516    39A     -0.473823
      40A     -0.457171    41A     -0.444037    42A     -0.442966
      43A     -0.334045    44A     -0.296424

  @DF-RHF Final Energy:  -896.57092669138444

   => Energetics <=

    Nuclear Repulsion Energy =            654.6750928609112634
    One-Electron Energy =               -2529.1230616800953612
    Two-Electron Energy =                 977.8770421277996547
    Total Energy =                       -896.5709266913844431
  Basis Set: (AUG-CC-PVTZ AUX)
    Blend: AUG-CC-PVTZ-RI
    Molecular point group: c1

    Geometry (in Angstrom), charge = 0, multiplicity = 1:

       Center              X                  Y                   Z               Mass
    ------------   -----------------  -----------------  -----------------  -----------------
         CL           1.004852122663     2.291548578262    -0.006349674293    34.968852682000
         O           -2.573651877337    -1.562979421738    -0.025190674293    15.994914619570
         N           -1.187480877337     0.285001578262    -0.015112674293    14.003074004430
         C            0.090588122663    -0.292893421738    -0.004878674293    12.000000000000
         C            1.215292122663     0.555117578262    -0.000346674293    12.000000000000
         C            0.309374122663    -1.680716421738    -0.000277674293    12.000000000000
         C            2.510931122663     0.047089578262     0.010440325707    12.000000000000
         C            1.608614122663    -2.185535421738     0.010175325707    12.000000000000
         C            2.711843122663    -1.332327421738     0.015397325707    12.000000000000
         C           -2.594943677337    -0.433920721738    -0.016295374293    12.000000000000
         C           -3.581519877337     0.625580578262     0.037556325707    12.000000000000
         H           -0.547303877337    -2.341015421738    -0.005173674293     1.007825032230
         H           -1.199579877337     1.298350578262    -0.011918674293     1.007825032230
         H            3.349901122663     0.737086578262     0.014142325707     1.007825032230
         H            1.752373122663    -3.262947421738     0.013636325707     1.007825032230
         H            3.722663122663    -1.730654421738     0.023336325707     1.007825032230
         H           -3.737821877337     0.959829578262     1.067884325707     1.007825032230
         H           -4.475907877337     0.101860578262    -0.299030674293     1.007825032230
         H           -3.415660877337     1.506130578262    -0.589211674293     1.007825032230

  Basis Set: AUG-CC-PVTZ
    Blend: AUG-CC-PVTZ
  Basis Set: (AUG-CC-PVTZ AUX)
    Blend: AUG-CC-PVTZ-JKFIT
	 Reference Energy          =    -896.5709266913844431 [Eh]
	 Singles Energy            =      -0.0000000000000000 [Eh]
	 Same-Spin Energy          =      -0.5336829357346466 [Eh]
	 Opposite-Spin Energy      =      -1.6196014595815464 [Eh]
	 Correlation Energy        =      -2.1532843953161933 [Eh]
	 Total Energy              =    -898.7242110867006204 [Eh]

	 ================> DF-SCS-MP2 Energies <==================
	-----------------------------------------------------------
	 SCS Same-Spin Scale       =       0.3333333333333333 [-]
	 SCS Opposite-Spin Scale   =       1.2000000000000000 [-]
	 SCS Same-Spin Energy      =      -0.1778943119115489 [Eh]
	 SCS Opposite-Spin Energy  =      -1.9435217514978556 [Eh]
	 SCS Correlation Energy    =      -2.1214160634094044 [Eh]
	 SCS Total Energy          =    -898.6923427547937990 [Eh]
	-----------------------------------------------------------

  Dipole Moment: [D]
     X:    -1.8269      Y:     1.2494      Z:     0.0967     Total:     2.2154

*** Psi4 exiting successfully. Buy a developer a beer!
