                               Psi4 1.4a3.dev225

  ==> Input File <==

--------------------------------------------------------------------------
#psi4
#
memory 32 gb

molecule  {
0 1
 Cl        1.0239510     2.3134080    -0.0075990
  O       -2.5545530    -1.5411200    -0.0264400
  N       -1.1683820     0.3068610    -0.0163620
  C        0.1096870    -0.2710340    -0.0061280
  C        1.2223600     0.6762500    -0.0019392
  C        0.3284730    -1.6588570    -0.0015270
  C        2.5300300     0.0689490     0.0091910
  C        1.6277130    -2.1636760     0.0089260
  C        2.7309420    -1.3104680     0.0141480
  C       -2.3977350    -0.3210840    -0.0173950
  C       -3.5624210     0.6474400     0.0363070
  H       -0.5282050    -2.3191560    -0.0064230
  H       -1.1804810     1.3202100    -0.0131680
  H        3.3690000     0.7589460     0.0128930
  H        1.7714720    -3.2410880     0.0123870
  H        3.7417620    -1.7087950     0.0220870
  H       -3.7187230     0.9816890     1.0666350
  H       -4.4568090     0.1237200    -0.3002800
  H       -3.3965620     1.5279900    -0.5904610
units angstrom
no_reorient  #important for SAPT in psi4, default
symmetry c1  #important for SAPT in psi4, default
}

set PROPERTIES_ORIGIN ["COM"]
properties('MP2/aug-cc-pvtz', properties = ['dipole'])
--------------------------------------------------------------------------

    Molecular point group: c1
  Charge       = 0
  Multiplicity = 1
  Basis Set: AUG-CC-PVTZ
    Blend: AUG-CC-PVTZ
  Basis Set: (AUG-CC-PVTZ AUX)
    Blend: AUG-CC-PVTZ-JKFIT

    Orbital Energies [Eh]
    ---------------------

    Doubly Occupied:

       1A   -104.865927     2A    -20.534257     3A    -15.611659
       4A    -11.369938     5A    -11.311006     6A    -11.309439
       7A    -11.259085     8A    -11.247541     9A    -11.247163
      10A    -11.241435    11A    -11.237211    12A    -10.591308
      13A     -8.058452    14A     -8.056315    15A     -8.056217
      16A     -1.389199    17A     -1.270229    18A     -1.196631
      19A     -1.129492    20A     -1.040348    21A     -1.003607
      22A     -0.979451    23A     -0.866337    24A     -0.828330
      25A     -0.783550    26A     -0.733086    27A     -0.686009
      28A     -0.678820    29A     -0.634234    30A     -0.632255
      31A     -0.622412    32A     -0.596019    33A     -0.594216
      34A     -0.574947    35A     -0.568922    36A     -0.539663
      37A     -0.533675    38A     -0.519443    39A     -0.482990
      40A     -0.470842    41A     -0.448711    42A     -0.431887
      43A     -0.336651    44A     -0.310420

  @DF-RHF Final Energy:  -896.59327448228930

   => Energetics <=

    Nuclear Repulsion Energy =            656.2739029870236891
    One-Electron Energy =               -2531.9756930907551578
    Two-Electron Energy =                 979.1085156214422796
    Total Energy =                       -896.5932744822893028
  Basis Set: (AUG-CC-PVTZ AUX)
    Blend: AUG-CC-PVTZ-RI
    Molecular point group: c1

    Geometry (in Angstrom), charge = 0, multiplicity = 1:

       Center              X                  Y                   Z               Mass
    ------------   -----------------  -----------------  -----------------  -----------------
         CL           0.993061599181     2.278042034202    -0.006335937041    34.968852682000
         O           -2.585442400819    -1.576485965798    -0.025176937041    15.994914619570
         N           -1.199271400819     0.271495034202    -0.015098937041    14.003074004430
         C            0.078797599181    -0.306399965798    -0.004864937041    12.000000000000
         C            1.191470599181     0.640884034202    -0.000676137041    12.000000000000
         C            0.297583599181    -1.694222965798    -0.000263937041    12.000000000000
         C            2.499140599181     0.033583034202     0.010454062959    12.000000000000
         C            1.596823599181    -2.199041965798     0.010189062959    12.000000000000
         C            2.700052599181    -1.345833965798     0.015411062959    12.000000000000
         C           -2.428624400819    -0.356449965798    -0.016131937041    12.000000000000
         C           -3.593310400819     0.612074034202     0.037570062959    12.000000000000
         H           -0.559094400819    -2.354521965798    -0.005159937041     1.007825032230
         H           -1.211370400819     1.284844034202    -0.011904937041     1.007825032230
         H            3.338110599181     0.723580034202     0.014156062959     1.007825032230
         H            1.740582599181    -3.276453965798     0.013650062959     1.007825032230
         H            3.710872599181    -1.744160965798     0.023350062959     1.007825032230
         H           -3.749612400819     0.946323034202     1.067898062959     1.007825032230
         H           -4.487698400819     0.088354034202    -0.299016937041     1.007825032230
         H           -3.427451400819     1.492624034202    -0.589197937041     1.007825032230

  Basis Set: AUG-CC-PVTZ
    Blend: AUG-CC-PVTZ
  Basis Set: (AUG-CC-PVTZ AUX)
    Blend: AUG-CC-PVTZ-JKFIT
	 Reference Energy          =    -896.5932744822893028 [Eh]
	 Singles Energy            =      -0.0000000000000000 [Eh]
	 Same-Spin Energy          =      -0.5354388890314254 [Eh]
	 Opposite-Spin Energy      =      -1.6225721186149538 [Eh]
	 Correlation Energy        =      -2.1580110076463792 [Eh]
	 Total Energy              =    -898.7512854899356398 [Eh]

	 ================> DF-SCS-MP2 Energies <==================
	-----------------------------------------------------------
	 SCS Same-Spin Scale       =       0.3333333333333333 [-]
	 SCS Opposite-Spin Scale   =       1.2000000000000000 [-]
	 SCS Same-Spin Energy      =      -0.1784796296771418 [Eh]
	 SCS Opposite-Spin Energy  =      -1.9470865423379444 [Eh]
	 SCS Correlation Energy    =      -2.1255661720150862 [Eh]
	 SCS Total Energy          =    -898.7188406543043584 [Eh]
	-----------------------------------------------------------

  Dipole Moment: [D]
     X:     0.5599      Y:     2.2980      Z:     0.0866     Total:     2.3668

*** Psi4 exiting successfully. Buy a developer a beer!
