                               Psi4 1.4a3.dev225

  ==> Input File <==

--------------------------------------------------------------------------
#psi4
#
memory 32 gb

molecule  {
0 1
 Cl        1.0239510     2.3134080    -0.0075990
  O       -2.5545530    -1.5411200    -0.0264400
  N       -1.1683820     0.3068610    -0.0163620
  C        0.1096870    -0.2710340    -0.0061280
  C        1.2343910     0.5769770    -0.0015960
  C        0.3284730    -1.6588570    -0.0015270
  C        2.5300300     0.0689490     0.0091910
  C        1.6277130    -2.1636760     0.0089260
  C        2.7309420    -1.3104680     0.0141480
  C       -2.3977350    -0.3210840    -0.0173950
  C       -3.7161016     0.7752370     0.0433930
  H       -0.5282050    -2.3191560    -0.0064230
  H       -1.1804810     1.3202100    -0.0131680
  H        3.3690000     0.7589460     0.0128930
  H        1.7714720    -3.2410880     0.0123870
  H        3.7417620    -1.7087950     0.0220870
  H       -3.7187230     0.9816890     1.0666350
  H       -4.4568090     0.1237200    -0.3002800
  H       -3.3965620     1.5279900    -0.5904610
units angstrom
no_reorient  #important for SAPT in psi4, default
symmetry c1  #important for SAPT in psi4, default
}

set PROPERTIES_ORIGIN ["COM"]
properties('MP2/aug-cc-pvtz', properties = ['dipole'])
--------------------------------------------------------------------------

    Molecular point group: c1
  Charge       = 0
  Multiplicity = 1
  Basis Set: AUG-CC-PVTZ
    Blend: AUG-CC-PVTZ
  Basis Set: (AUG-CC-PVTZ AUX)
    Blend: AUG-CC-PVTZ-JKFIT

    Orbital Energies [Eh]
    ---------------------

    Doubly Occupied:

       1A   -104.856816     2A    -20.538036     3A    -15.615025
       4A    -11.375650     5A    -11.309425     6A    -11.308293
       7A    -11.257346     8A    -11.248623     9A    -11.248402
      10A    -11.244437    11A    -11.240396    12A    -10.580631
      13A     -8.047492    14A     -8.045744    15A     -8.045644
      16A     -1.387610    17A     -1.270569    18A     -1.181221
      19A     -1.125398    20A     -1.035025    21A     -1.006299
      22A     -0.985650    23A     -0.872786    24A     -0.831353
      25A     -0.788585    26A     -0.735350    27A     -0.676921
      28A     -0.675925    29A     -0.638578    30A     -0.633077
      31A     -0.622658    32A     -0.604946    33A     -0.591774
      34A     -0.588802    35A     -0.564973    36A     -0.539320
      37A     -0.538296    38A     -0.512614    39A     -0.480667
      40A     -0.471286    41A     -0.452107    42A     -0.411741
      43A     -0.344974    44A     -0.319348

  @DF-RHF Final Energy:  -896.57923592500003

   => Energetics <=

    Nuclear Repulsion Energy =            652.7227383491094770
    One-Electron Energy =               -2524.9043208388056883
    Two-Electron Energy =                 975.6023465646961768
    Total Energy =                       -896.5792359250000345
  Basis Set: (AUG-CC-PVTZ AUX)
    Blend: AUG-CC-PVTZ-RI
    Molecular point group: c1

    Geometry (in Angstrom), charge = 0, multiplicity = 1:

       Center              X                  Y                   Z               Mass
    ------------   -----------------  -----------------  -----------------  -----------------
         CL           1.003117807047     2.276017014200    -0.006863362318    34.968852682000
         O           -2.575386192953    -1.578510985800    -0.025704362318    15.994914619570
         N           -1.189215192953     0.269470014200    -0.015626362318    14.003074004430
         C            0.088853807047    -0.308424985800    -0.005392362318    12.000000000000
         C            1.213557807047     0.539586014200    -0.000860362318    12.000000000000
         C            0.307639807047    -1.696247985800    -0.000791362318    12.000000000000
         C            2.509196807047     0.031558014200     0.009926637682    12.000000000000
         C            1.606879807047    -2.201066985800     0.009661637682    12.000000000000
         C            2.710108807047    -1.347858985800     0.014883637682    12.000000000000
         C           -2.418568192953    -0.358474985800    -0.016659362318    12.000000000000
         C           -3.736934792953     0.737846014200     0.044128637682    12.000000000000
         H           -0.549038192953    -2.356546985800    -0.005687362318     1.007825032230
         H           -1.201314192953     1.282819014200    -0.012432362318     1.007825032230
         H            3.348166807047     0.721555014200     0.013628637682     1.007825032230
         H            1.750638807047    -3.278478985800     0.013122637682     1.007825032230
         H            3.720928807047    -1.746185985800     0.022822637682     1.007825032230
         H           -3.739556192953     0.944298014200     1.067370637682     1.007825032230
         H           -4.477642192953     0.086329014200    -0.299544362318     1.007825032230
         H           -3.417395192953     1.490599014200    -0.589725362318     1.007825032230

  Basis Set: AUG-CC-PVTZ
    Blend: AUG-CC-PVTZ
  Basis Set: (AUG-CC-PVTZ AUX)
    Blend: AUG-CC-PVTZ-JKFIT
	 Reference Energy          =    -896.5792359250000345 [Eh]
	 Singles Energy            =      -0.0000000000000000 [Eh]
	 Same-Spin Energy          =      -0.5342752917752214 [Eh]
	 Opposite-Spin Energy      =      -1.6223857887457334 [Eh]
	 Correlation Energy        =      -2.1566610805209550 [Eh]
	 Total Energy              =    -898.7358970055209966 [Eh]

	 ================> DF-SCS-MP2 Energies <==================
	-----------------------------------------------------------
	 SCS Same-Spin Scale       =       0.3333333333333333 [-]
	 SCS Opposite-Spin Scale   =       1.2000000000000000 [-]
	 SCS Same-Spin Energy      =      -0.1780917639250738 [Eh]
	 SCS Opposite-Spin Energy  =      -1.9468629464948799 [Eh]
	 SCS Correlation Energy    =      -2.1249547104199538 [Eh]
	 SCS Total Energy          =    -898.7041906354199909 [Eh]
	-----------------------------------------------------------

  Dipole Moment: [D]
     X:     0.8948      Y:     1.6663      Z:     0.0704     Total:     1.8927

*** Psi4 exiting successfully. Buy a developer a beer!
