                               Psi4 1.4a3.dev225

  ==> Input File <==

--------------------------------------------------------------------------
#psi4
#
memory 32 gb

molecule  {
0 1
 Cl        1.0239510     2.3134080    -0.0075990
  O       -2.5545530    -1.5411200    -0.0264400
  N       -1.1581016     0.3290790    -0.0163391
  C        0.1096870    -0.2710340    -0.0061280
  C        1.2343910     0.5769770    -0.0015960
  C        0.3284730    -1.6588570    -0.0015270
  C        2.5300300     0.0689490     0.0091910
  C        1.6277130    -2.1636760     0.0089260
  C        2.7309420    -1.3104680     0.0141480
  C       -2.3977350    -0.3210840    -0.0173950
  C       -3.5624210     0.6474400     0.0363070
  H       -0.5282050    -2.3191560    -0.0064230
  H       -1.1804810     1.3202100    -0.0131680
  H        3.3690000     0.7589460     0.0128930
  H        1.7714720    -3.2410880     0.0123870
  H        3.7417620    -1.7087950     0.0220870
  H       -3.7187230     0.9816890     1.0666350
  H       -4.4568090     0.1237200    -0.3002800
  H       -3.3965620     1.5279900    -0.5904610
units angstrom
no_reorient  #important for SAPT in psi4, default
symmetry c1  #important for SAPT in psi4, default
}

set PROPERTIES_ORIGIN ["COM"]
properties('MP2/aug-cc-pvtz', properties = ['dipole'])
--------------------------------------------------------------------------

    Molecular point group: c1
  Charge       = 0
  Multiplicity = 1
  Basis Set: AUG-CC-PVTZ
    Blend: AUG-CC-PVTZ
  Basis Set: (AUG-CC-PVTZ AUX)
    Blend: AUG-CC-PVTZ-JKFIT

    Orbital Energies [Eh]
    ---------------------

    Doubly Occupied:

       1A   -104.855605     2A    -20.539615     3A    -15.611796
       4A    -11.374873     5A    -11.308145     6A    -11.306723
       7A    -11.256303     8A    -11.248961     9A    -11.248045
      10A    -11.243285    11A    -11.239788    12A    -10.579434
      13A     -8.046296    14A     -8.044548    15A     -8.044450
      16A     -1.391358    17A     -1.271442    18A     -1.180537
      19A     -1.124589    20A     -1.043993    21A     -1.008790
      22A     -0.987440    23A     -0.869118    24A     -0.830225
      25A     -0.791022    26A     -0.738264    27A     -0.689081
      28A     -0.675425    29A     -0.635903    30A     -0.632680
      31A     -0.621820    32A     -0.600573    33A     -0.590972
      34A     -0.574564    35A     -0.570191    36A     -0.538121
      37A     -0.528079    38A     -0.513893    39A     -0.479578
      40A     -0.470275    41A     -0.452880    42A     -0.435780
      43A     -0.344153    44A     -0.317944

  @DF-RHF Final Energy:  -896.60608143310048

   => Energetics <=

    Nuclear Repulsion Energy =            656.1193868895246624
    One-Electron Energy =               -2531.7378199772879270
    Two-Electron Energy =                 979.0123516546626661
    Total Energy =                       -896.6060814331004849
  Basis Set: (AUG-CC-PVTZ AUX)
    Blend: AUG-CC-PVTZ-RI
    Molecular point group: c1

    Geometry (in Angstrom), charge = 0, multiplicity = 1:

       Center              X                  Y                   Z               Mass
    ------------   -----------------  -----------------  -----------------  -----------------
         CL           0.991355806395     2.283249148972    -0.006362199155    34.968852682000
         O           -2.587148193605    -1.571278851028    -0.025203199155    15.994914619570
         N           -1.190696793605     0.298920148972    -0.015102299155    14.003074004430
         C            0.077091806395    -0.301192851028    -0.004891199155    12.000000000000
         C            1.201795806395     0.546818148972    -0.000359199155    12.000000000000
         C            0.295877806395    -1.689015851028    -0.000290199155    12.000000000000
         C            2.497434806395     0.038790148972     0.010427800845    12.000000000000
         C            1.595117806395    -2.193834851028     0.010162800845    12.000000000000
         C            2.698346806395    -1.340626851028     0.015384800845    12.000000000000
         C           -2.430330193605    -0.351242851028    -0.016158199155    12.000000000000
         C           -3.595016193605     0.617281148972     0.037543800845    12.000000000000
         H           -0.560800193605    -2.349314851028    -0.005186199155     1.007825032230
         H           -1.213076193605     1.290051148972    -0.011931199155     1.007825032230
         H            3.336404806395     0.728787148972     0.014129800845     1.007825032230
         H            1.738876806395    -3.271246851028     0.013623800845     1.007825032230
         H            3.709166806395    -1.738953851028     0.023323800845     1.007825032230
         H           -3.751318193605     0.951530148972     1.067871800845     1.007825032230
         H           -4.489404193605     0.093561148972    -0.299043199155     1.007825032230
         H           -3.429157193605     1.497831148972    -0.589224199155     1.007825032230

  Basis Set: AUG-CC-PVTZ
    Blend: AUG-CC-PVTZ
  Basis Set: (AUG-CC-PVTZ AUX)
    Blend: AUG-CC-PVTZ-JKFIT
	 Reference Energy          =    -896.6060814331004849 [Eh]
	 Singles Energy            =      -0.0000000000000000 [Eh]
	 Same-Spin Energy          =      -0.5338627072324418 [Eh]
	 Opposite-Spin Energy      =      -1.6204490596203054 [Eh]
	 Correlation Energy        =      -2.1543117668527474 [Eh]
	 Total Energy              =    -898.7603931999532278 [Eh]

	 ================> DF-SCS-MP2 Energies <==================
	-----------------------------------------------------------
	 SCS Same-Spin Scale       =       0.3333333333333333 [-]
	 SCS Opposite-Spin Scale   =       1.2000000000000000 [-]
	 SCS Same-Spin Energy      =      -0.1779542357441473 [Eh]
	 SCS Opposite-Spin Energy  =      -1.9445388715443663 [Eh]
	 SCS Correlation Energy    =      -2.1224931072885136 [Eh]
	 SCS Total Energy          =    -898.7285745403889905 [Eh]
	-----------------------------------------------------------

  Dipole Moment: [D]
     X:     0.4689      Y:     1.8086      Z:     0.0893     Total:     1.8706

*** Psi4 exiting successfully. Buy a developer a beer!
