                               Psi4 1.4a3.dev225

  ==> Input File <==

--------------------------------------------------------------------------
#psi4
#
memory 32 gb

molecule  {
0 1
 Cl        1.0239510     2.3134080    -0.0075990
  O       -2.5545530    -1.5411200    -0.0264400
  N       -1.1683820     0.3068610    -0.0163620
  C        0.1096870    -0.2710340    -0.0061280
  C        1.2021075     0.4853577    -0.0015288
  C        0.3284730    -1.6588570    -0.0015270
  C        2.5300300     0.0689490     0.0091910
  C        1.6277130    -2.1636760     0.0089260
  C        2.7309420    -1.3104680     0.0141480
  C       -2.3977350    -0.3210840    -0.0173950
  C       -3.5624210     0.6474400     0.0363070
  H       -0.5282050    -2.3191560    -0.0064230
  H       -1.1804810     1.3202100    -0.0131680
  H        3.3690000     0.7589460     0.0128930
  H        1.7714720    -3.2410880     0.0123870
  H        3.7417620    -1.7087950     0.0220870
  H       -3.7187230     0.9816890     1.0666350
  H       -4.4568090     0.1237200    -0.3002800
  H       -3.3965620     1.5279900    -0.5904610
units angstrom
no_reorient  #important for SAPT in psi4, default
symmetry c1  #important for SAPT in psi4, default
}

set PROPERTIES_ORIGIN ["COM"]
properties('MP2/aug-cc-pvtz', properties = ['dipole'])
--------------------------------------------------------------------------

    Molecular point group: c1
  Charge       = 0
  Multiplicity = 1
  Basis Set: AUG-CC-PVTZ
    Blend: AUG-CC-PVTZ
  Basis Set: (AUG-CC-PVTZ AUX)
    Blend: AUG-CC-PVTZ-JKFIT

    Orbital Energies [Eh]
    ---------------------

    Doubly Occupied:

       1A   -104.845838     2A    -20.536307     3A    -15.614372
       4A    -11.372974     5A    -11.308734     6A    -11.302585
       7A    -11.260582     8A    -11.249882     9A    -11.248820
      10A    -11.248006    11A    -11.244444    12A    -10.568932
      13A     -8.035611    14A     -8.034090    15A     -8.033991
      16A     -1.391704    17A     -1.275013    18A     -1.181198
      19A     -1.113495    20A     -1.051716    21A     -1.009640
      22A     -0.996404    23A     -0.876978    24A     -0.833098
      25A     -0.796325    26A     -0.737436    27A     -0.692270
      28A     -0.678231    29A     -0.641221    30A     -0.635539
      31A     -0.626217    32A     -0.598290    33A     -0.581444
      34A     -0.578816    35A     -0.571632    36A     -0.540439
      37A     -0.527025    38A     -0.504601    39A     -0.473257
      40A     -0.464201    41A     -0.453566    42A     -0.436035
      43A     -0.347995    44A     -0.330114

  @DF-RHF Final Energy:  -896.59993768863876

   => Energetics <=

    Nuclear Repulsion Energy =            656.7128226491033729
    One-Electron Energy =               -2532.9273826377288970
    Two-Electron Energy =                 979.6146222999867632
    Total Energy =                       -896.5999376886387608
  Basis Set: (AUG-CC-PVTZ AUX)
    Blend: AUG-CC-PVTZ-RI
    Molecular point group: c1

    Geometry (in Angstrom), charge = 0, multiplicity = 1:

       Center              X                  Y                   Z               Mass
    ------------   -----------------  -----------------  -----------------  -----------------
         CL           0.994499396039     2.291594156121    -0.006365072794    34.968852682000
         O           -2.584004603961    -1.562933843879    -0.025206072794    15.994914619570
         N           -1.197833603961     0.285047156121    -0.015128072794    14.003074004430
         C            0.080235396039    -0.292847843879    -0.004894072794    12.000000000000
         C            1.172655896039     0.463543856121    -0.000294872794    12.000000000000
         C            0.299021396039    -1.680670843879    -0.000293072794    12.000000000000
         C            2.500578396039     0.047135156121     0.010424927206    12.000000000000
         C            1.598261396039    -2.185489843879     0.010159927206    12.000000000000
         C            2.701490396039    -1.332281843879     0.015381927206    12.000000000000
         C           -2.427186603961    -0.342897843879    -0.016161072794    12.000000000000
         C           -3.591872603961     0.625626156121     0.037540927206    12.000000000000
         H           -0.557656603961    -2.340969843879    -0.005189072794     1.007825032230
         H           -1.209932603961     1.298396156121    -0.011934072794     1.007825032230
         H            3.339548396039     0.737132156121     0.014126927206     1.007825032230
         H            1.742020396039    -3.262901843879     0.013620927206     1.007825032230
         H            3.712310396039    -1.730608843879     0.023320927206     1.007825032230
         H           -3.748174603961     0.959875156121     1.067868927206     1.007825032230
         H           -4.486260603961     0.101906156121    -0.299046072794     1.007825032230
         H           -3.426013603961     1.506176156121    -0.589227072794     1.007825032230

  Basis Set: AUG-CC-PVTZ
    Blend: AUG-CC-PVTZ
  Basis Set: (AUG-CC-PVTZ AUX)
    Blend: AUG-CC-PVTZ-JKFIT
	 Reference Energy          =    -896.5999376886387608 [Eh]
	 Singles Energy            =      -0.0000000000000000 [Eh]
	 Same-Spin Energy          =      -0.5332145502825117 [Eh]
	 Opposite-Spin Energy      =      -1.6197435354001233 [Eh]
	 Correlation Energy        =      -2.1529580856826351 [Eh]
	 Total Energy              =    -898.7528957743213596 [Eh]

	 ================> DF-SCS-MP2 Energies <==================
	-----------------------------------------------------------
	 SCS Same-Spin Scale       =       0.3333333333333333 [-]
	 SCS Opposite-Spin Scale   =       1.2000000000000000 [-]
	 SCS Same-Spin Energy      =      -0.1777381834275039 [Eh]
	 SCS Opposite-Spin Energy  =      -1.9436922424801479 [Eh]
	 SCS Correlation Energy    =      -2.1214304259076520 [Eh]
	 SCS Total Energy          =    -898.7213681145464079 [Eh]
	-----------------------------------------------------------

  Dipole Moment: [D]
     X:     0.6534      Y:     1.4351      Z:     0.0912     Total:     1.5795

*** Psi4 exiting successfully. Buy a developer a beer!
