                               Psi4 1.4a3.dev225

  ==> Input File <==

--------------------------------------------------------------------------
#psi4
#
memory 32 gb

molecule  {
0 1
 Cl        1.0239510     2.3134080    -0.0075990
  O       -2.5545530    -1.5411200    -0.0264400
  N       -1.1683820     0.3068610    -0.0163620
  C        0.1096870    -0.2710340    -0.0061280
  C        1.2343910     0.5769770    -0.0015960
  C        0.3284730    -1.6588570    -0.0015270
  C        2.5300300     0.0689490     0.0091910
  C        1.8141301    -2.2361082     0.0104258
  C        2.7309420    -1.3104680     0.0141480
  C       -2.3977350    -0.3210840    -0.0173950
  C       -3.5624210     0.6474400     0.0363070
  H       -0.5282050    -2.3191560    -0.0064230
  H       -1.1804810     1.3202100    -0.0131680
  H        3.3690000     0.7589460     0.0128930
  H        1.7714720    -3.2410880     0.0123870
  H        3.7417620    -1.7087950     0.0220870
  H       -3.7187230     0.9816890     1.0666350
  H       -4.4568090     0.1237200    -0.3002800
  H       -3.3965620     1.5279900    -0.5904610
units angstrom
no_reorient  #important for SAPT in psi4, default
symmetry c1  #important for SAPT in psi4, default
}

set PROPERTIES_ORIGIN ["COM"]
properties('MP2/aug-cc-pvtz', properties = ['dipole'])
--------------------------------------------------------------------------

    Molecular point group: c1
  Charge       = 0
  Multiplicity = 1
  Basis Set: AUG-CC-PVTZ
    Blend: AUG-CC-PVTZ
  Basis Set: (AUG-CC-PVTZ AUX)
    Blend: AUG-CC-PVTZ-JKFIT

    Orbital Energies [Eh]
    ---------------------

    Doubly Occupied:

       1A   -104.859017     2A    -20.533997     3A    -15.611103
       4A    -11.369628     5A    -11.315305     6A    -11.304468
       7A    -11.258700     8A    -11.253095     9A    -11.250042
      10A    -11.247078    11A    -11.237420    12A    -10.582830
      13A     -8.049686    14A     -8.047920    15A     -8.047837
      16A     -1.388671    17A     -1.269125    18A     -1.182038
      19A     -1.123417    20A     -1.047451    21A     -0.999993
      22A     -0.990576    23A     -0.872439    24A     -0.831866
      25A     -0.786739    26A     -0.740670    27A     -0.691404
      28A     -0.672762    29A     -0.650790    30A     -0.632037
      31A     -0.627192    32A     -0.595873    33A     -0.589306
      34A     -0.572781    35A     -0.567723    36A     -0.538316
      37A     -0.528936    38A     -0.497563    39A     -0.478177
      40A     -0.467192    41A     -0.453994    42A     -0.430505
      43A     -0.339243    44A     -0.320318

  @DF-RHF Final Energy:  -896.56499199537348

   => Energetics <=

    Nuclear Repulsion Energy =            653.7912890669704211
    One-Electron Energy =               -2527.0021150070983822
    Two-Electron Energy =                 976.6458339447544859
    Total Energy =                       -896.5649919953734752
  Basis Set: (AUG-CC-PVTZ AUX)
    Blend: AUG-CC-PVTZ-RI
    Molecular point group: c1

    Geometry (in Angstrom), charge = 0, multiplicity = 1:

       Center              X                  Y                   Z               Mass
    ------------   -----------------  -----------------  -----------------  -----------------
         CL           0.978973064201     2.290231995790    -0.006466778152    34.968852682000
         O           -2.599530935799    -1.564296004210    -0.025307778152    15.994914619570
         N           -1.213359935799     0.283684995790    -0.015229778152    14.003074004430
         C            0.064709064201    -0.294210004210    -0.004995778152    12.000000000000
         C            1.189413064201     0.553800995790    -0.000463778152    12.000000000000
         C            0.283495064201    -1.682033004210    -0.000394778152    12.000000000000
         C            2.485052064201     0.045772995790     0.010323221848    12.000000000000
         C            1.769152164201    -2.259284204210     0.011558021848    12.000000000000
         C            2.685964064201    -1.333644004210     0.015280221848    12.000000000000
         C           -2.442712935799    -0.344260004210    -0.016262778152    12.000000000000
         C           -3.607398935799     0.624263995790     0.037439221848    12.000000000000
         H           -0.573182935799    -2.342332004210    -0.005290778152     1.007825032230
         H           -1.225458935799     1.297033995790    -0.012035778152     1.007825032230
         H            3.324022064201     0.735769995790     0.014025221848     1.007825032230
         H            1.726494064201    -3.264264004210     0.013519221848     1.007825032230
         H            3.696784064201    -1.731971004210     0.023219221848     1.007825032230
         H           -3.763700935799     0.958512995790     1.067767221848     1.007825032230
         H           -4.501786935799     0.100543995790    -0.299147778152     1.007825032230
         H           -3.441539935799     1.504813995790    -0.589328778152     1.007825032230

  Basis Set: AUG-CC-PVTZ
    Blend: AUG-CC-PVTZ
  Basis Set: (AUG-CC-PVTZ AUX)
    Blend: AUG-CC-PVTZ-JKFIT
	 Reference Energy          =    -896.5649919953734752 [Eh]
	 Singles Energy            =      -0.0000000000000000 [Eh]
	 Same-Spin Energy          =      -0.5337152318928408 [Eh]
	 Opposite-Spin Energy      =      -1.6233162058828374 [Eh]
	 Correlation Energy        =      -2.1570314377756783 [Eh]
	 Total Energy              =    -898.7220234331491611 [Eh]

	 ================> DF-SCS-MP2 Energies <==================
	-----------------------------------------------------------
	 SCS Same-Spin Scale       =       0.3333333333333333 [-]
	 SCS Opposite-Spin Scale   =       1.2000000000000000 [-]
	 SCS Same-Spin Energy      =      -0.1779050772976136 [Eh]
	 SCS Opposite-Spin Energy  =      -1.9479794470594047 [Eh]
	 SCS Correlation Energy    =      -2.1258845243570184 [Eh]
	 SCS Total Energy          =    -898.6908765197305229 [Eh]
	-----------------------------------------------------------

  Dipole Moment: [D]
     X:     0.6213      Y:     1.8740      Z:     0.0885     Total:     1.9763

*** Psi4 exiting successfully. Buy a developer a beer!
