                               Psi4 1.4a3.dev225

  ==> Input File <==

--------------------------------------------------------------------------
#psi4
#
memory 32 gb

molecule  {
0 1
 Cl        1.0239510     2.3134080    -0.0075990
  O       -2.5545530    -1.5411200    -0.0264400
  N       -1.1683820     0.3068610    -0.0163620
  C        0.1096870    -0.2710340    -0.0061280
  C        1.2729862     0.6661215    -0.0015380
  C        0.3284730    -1.6588570    -0.0015270
  C        2.5300300     0.0689490     0.0091910
  C        1.6277130    -2.1636760     0.0089260
  C        2.7309420    -1.3104680     0.0141480
  C       -2.3977350    -0.3210840    -0.0173950
  C       -3.5624210     0.6474400     0.0363070
  H       -0.5282050    -2.3191560    -0.0064230
  H       -1.1804810     1.3202100    -0.0131680
  H        3.3690000     0.7589460     0.0128930
  H        1.7714720    -3.2410880     0.0123870
  H        3.7417620    -1.7087950     0.0220870
  H       -3.7187230     0.9816890     1.0666350
  H       -4.4568090     0.1237200    -0.3002800
  H       -3.3965620     1.5279900    -0.5904610
units angstrom
no_reorient  #important for SAPT in psi4, default
symmetry c1  #important for SAPT in psi4, default
}

set PROPERTIES_ORIGIN ["COM"]
properties('MP2/aug-cc-pvtz', properties = ['dipole'])
--------------------------------------------------------------------------

    Molecular point group: c1
  Charge       = 0
  Multiplicity = 1
  Basis Set: AUG-CC-PVTZ
    Blend: AUG-CC-PVTZ
  Basis Set: (AUG-CC-PVTZ AUX)
    Blend: AUG-CC-PVTZ-JKFIT

    Orbital Energies [Eh]
    ---------------------

    Doubly Occupied:

       1A   -104.864637     2A    -20.535130     3A    -15.613340
       4A    -11.370800     5A    -11.313676     6A    -11.309612
       7A    -11.254439     8A    -11.248102     9A    -11.247148
      10A    -11.240810    11A    -11.236253    12A    -10.589711
      13A     -8.056800    14A     -8.054745    15A     -8.054646
      16A     -1.389853    17A     -1.269094    18A     -1.194566
      19A     -1.129364    20A     -1.040539    21A     -1.008225
      22A     -0.978817    23A     -0.867241    24A     -0.828357
      25A     -0.783569    26A     -0.734716    27A     -0.686455
      28A     -0.678553    29A     -0.634790    30A     -0.632532
      31A     -0.616936    32A     -0.599082    33A     -0.595915
      34A     -0.573840    35A     -0.569122    36A     -0.539782
      37A     -0.533935    38A     -0.515769    39A     -0.482560
      40A     -0.471765    41A     -0.449959    42A     -0.432446
      43A     -0.342672    44A     -0.307798

  @DF-RHF Final Energy:  -896.59513103575000

   => Energetics <=

    Nuclear Repulsion Energy =            655.9324282984762249
    One-Electron Energy =               -2531.2989115639911688
    Two-Electron Energy =                 978.7713522297649433
    Total Energy =                       -896.5951310357500006
  Basis Set: (AUG-CC-PVTZ AUX)
    Blend: AUG-CC-PVTZ-RI
    Molecular point group: c1

    Geometry (in Angstrom), charge = 0, multiplicity = 1:

       Center              X                  Y                   Z               Mass
    ------------   -----------------  -----------------  -----------------  -----------------
         CL           0.989467465553     2.278761092366    -0.006364419653    34.968852682000
         O           -2.589036534447    -1.575766907634    -0.025205419653    15.994914619570
         N           -1.202865534447     0.272214092366    -0.015127419653    14.003074004430
         C            0.075203465553    -0.305680907634    -0.004893419653    12.000000000000
         C            1.238502665553     0.631474592366    -0.000303419653    12.000000000000
         C            0.293989465553    -1.693503907634    -0.000292419653    12.000000000000
         C            2.495546465553     0.034302092366     0.010425580347    12.000000000000
         C            1.593229465553    -2.198322907634     0.010160580347    12.000000000000
         C            2.696458465553    -1.345114907634     0.015382580347    12.000000000000
         C           -2.432218534447    -0.355730907634    -0.016160419653    12.000000000000
         C           -3.596904534447     0.612793092366     0.037541580347    12.000000000000
         H           -0.562688534447    -2.353802907634    -0.005188419653     1.007825032230
         H           -1.214964534447     1.285563092366    -0.011933419653     1.007825032230
         H            3.334516465553     0.724299092366     0.014127580347     1.007825032230
         H            1.736988465553    -3.275734907634     0.013621580347     1.007825032230
         H            3.707278465553    -1.743441907634     0.023321580347     1.007825032230
         H           -3.753206534447     0.947042092366     1.067869580347     1.007825032230
         H           -4.491292534447     0.089073092366    -0.299045419653     1.007825032230
         H           -3.431045534447     1.493343092366    -0.589226419653     1.007825032230

  Basis Set: AUG-CC-PVTZ
    Blend: AUG-CC-PVTZ
  Basis Set: (AUG-CC-PVTZ AUX)
    Blend: AUG-CC-PVTZ-JKFIT
	 Reference Energy          =    -896.5951310357500006 [Eh]
	 Singles Energy            =      -0.0000000000000000 [Eh]
	 Same-Spin Energy          =      -0.5350895435057570 [Eh]
	 Opposite-Spin Energy      =      -1.6221681825776921 [Eh]
	 Correlation Energy        =      -2.1572577260834489 [Eh]
	 Total Energy              =    -898.7523887618334584 [Eh]

	 ================> DF-SCS-MP2 Energies <==================
	-----------------------------------------------------------
	 SCS Same-Spin Scale       =       0.3333333333333333 [-]
	 SCS Opposite-Spin Scale   =       1.2000000000000000 [-]
	 SCS Same-Spin Energy      =      -0.1783631811685857 [Eh]
	 SCS Opposite-Spin Energy  =      -1.9466018190932304 [Eh]
	 SCS Correlation Energy    =      -2.1249650002618159 [Eh]
	 SCS Total Energy          =    -898.7200960360117961 [Eh]
	-----------------------------------------------------------

  Dipole Moment: [D]
     X:     0.5194      Y:     2.2530      Z:     0.0867     Total:     2.3137

*** Psi4 exiting successfully. Buy a developer a beer!
