                               Psi4 1.4a3.dev225

  ==> Input File <==

--------------------------------------------------------------------------
#psi4
#
memory 32 gb

molecule  {
0 1
 Cl        1.0239510     2.3134080    -0.0075990
  O       -2.5545530    -1.5411200    -0.0264400
  N       -1.1683820     0.3068610    -0.0163620
  C        0.1096870    -0.2710340    -0.0061280
  C        1.2343910     0.5769770    -0.0015960
  C        0.3284730    -1.6588570    -0.0015270
  C        2.5300300     0.0689490     0.0091910
  C        1.6733643    -2.0250989     0.0089791
  C        2.7309420    -1.3104680     0.0141480
  C       -2.3977350    -0.3210840    -0.0173950
  C       -3.5624210     0.6474400     0.0363070
  H       -0.5282050    -2.3191560    -0.0064230
  H       -1.1804810     1.3202100    -0.0131680
  H        3.3690000     0.7589460     0.0128930
  H        1.7714720    -3.2410880     0.0123870
  H        3.7417620    -1.7087950     0.0220870
  H       -3.7187230     0.9816890     1.0666350
  H       -4.4568090     0.1237200    -0.3002800
  H       -3.3965620     1.5279900    -0.5904610
units angstrom
no_reorient  #important for SAPT in psi4, default
symmetry c1  #important for SAPT in psi4, default
}

set PROPERTIES_ORIGIN ["COM"]
properties('MP2/aug-cc-pvtz', properties = ['dipole'])
--------------------------------------------------------------------------

    Molecular point group: c1
  Charge       = 0
  Multiplicity = 1
  Basis Set: AUG-CC-PVTZ
    Blend: AUG-CC-PVTZ
  Basis Set: (AUG-CC-PVTZ AUX)
    Blend: AUG-CC-PVTZ-JKFIT

    Orbital Energies [Eh]
    ---------------------

    Doubly Occupied:

       1A   -104.856371     2A    -20.536812     3A    -15.613252
       4A    -11.372380     5A    -11.308357     6A    -11.307236
       7A    -11.258766     8A    -11.248761     9A    -11.244733
      10A    -11.239738    11A    -11.230168    12A    -10.580170
      13A     -8.047037    14A     -8.045286    15A     -8.045178
      16A     -1.391493    17A     -1.272166    18A     -1.188783
      19A     -1.136539    20A     -1.051334    21A     -1.005771
      22A     -0.993673    23A     -0.879421    24A     -0.825442
      25A     -0.790714    26A     -0.727758    27A     -0.692395
      28A     -0.683730    29A     -0.641430    30A     -0.634245
      31A     -0.619724    32A     -0.596908    33A     -0.577872
      34A     -0.577146    35A     -0.573683    36A     -0.552561
      37A     -0.531016    38A     -0.486285    39A     -0.482461
      40A     -0.467753    41A     -0.457809    42A     -0.436934
      43A     -0.343707    44A     -0.327232

  @DF-RHF Final Energy:  -896.57911391473715

   => Energetics <=

    Nuclear Repulsion Energy =            658.8137884881920172
    One-Electron Energy =               -2537.0253485756306873
    Two-Electron Energy =                 981.6324461727014068
    Total Energy =                       -896.5791139147371496
  Basis Set: (AUG-CC-PVTZ AUX)
    Blend: AUG-CC-PVTZ-RI
    Molecular point group: c1

    Geometry (in Angstrom), charge = 0, multiplicity = 1:

       Center              X                  Y                   Z               Mass
    ------------   -----------------  -----------------  -----------------  -----------------
         CL           0.988966527969     2.275251696639    -0.006364071785    34.968852682000
         O           -2.589537472031    -1.579276303361    -0.025205071785    15.994914619570
         N           -1.203366472031     0.268704696639    -0.015127071785    14.003074004430
         C            0.074702527969    -0.309190303361    -0.004893071785    12.000000000000
         C            1.199406527969     0.538820696639    -0.000361071785    12.000000000000
         C            0.293488527969    -1.697013303361    -0.000292071785    12.000000000000
         C            2.495045527969     0.030792696639     0.010425928215    12.000000000000
         C            1.638379827969    -2.063255203361     0.010214028215    12.000000000000
         C            2.695957527969    -1.348624303361     0.015382928215    12.000000000000
         C           -2.432719472031    -0.359240303361    -0.016160071785    12.000000000000
         C           -3.597405472031     0.609283696639     0.037541928215    12.000000000000
         H           -0.563189472031    -2.357312303361    -0.005188071785     1.007825032230
         H           -1.215465472031     1.282053696639    -0.011933071785     1.007825032230
         H            3.334015527969     0.720789696639     0.014127928215     1.007825032230
         H            1.736487527969    -3.279244303361     0.013621928215     1.007825032230
         H            3.706777527969    -1.746951303361     0.023321928215     1.007825032230
         H           -3.753707472031     0.943532696639     1.067869928215     1.007825032230
         H           -4.491793472031     0.085563696639    -0.299045071785     1.007825032230
         H           -3.431546472031     1.489833696639    -0.589226071785     1.007825032230

  Basis Set: AUG-CC-PVTZ
    Blend: AUG-CC-PVTZ
  Basis Set: (AUG-CC-PVTZ AUX)
    Blend: AUG-CC-PVTZ-JKFIT
	 Reference Energy          =    -896.5791139147371496 [Eh]
	 Singles Energy            =      -0.0000000000000000 [Eh]
	 Same-Spin Energy          =      -0.5343218767060198 [Eh]
	 Opposite-Spin Energy      =      -1.6211511453600789 [Eh]
	 Correlation Energy        =      -2.1554730220660989 [Eh]
	 Total Energy              =    -898.7345869368032254 [Eh]

	 ================> DF-SCS-MP2 Energies <==================
	-----------------------------------------------------------
	 SCS Same-Spin Scale       =       0.3333333333333333 [-]
	 SCS Opposite-Spin Scale   =       1.2000000000000000 [-]
	 SCS Same-Spin Energy      =      -0.1781072922353399 [Eh]
	 SCS Opposite-Spin Energy  =      -1.9453813744320945 [Eh]
	 SCS Correlation Energy    =      -2.1234886666674342 [Eh]
	 SCS Total Energy          =    -898.7026025814045624 [Eh]
	-----------------------------------------------------------

  Dipole Moment: [D]
     X:     0.5561      Y:     2.0021      Z:     0.0887     Total:     2.0798

*** Psi4 exiting successfully. Buy a developer a beer!
