                               Psi4 1.4a3.dev225

  ==> Input File <==

--------------------------------------------------------------------------
#psi4
#
memory 32 gb

molecule  {
0 1
 Cl        1.0239510     2.3134080    -0.0075990
  O       -2.5545530    -1.5411200    -0.0264400
  N       -1.1683820     0.3068610    -0.0163620
  C        0.1096870    -0.2710340    -0.0061280
  C        1.2343910     0.5769770    -0.0015960
  C        0.3284730    -1.6588570    -0.0015270
  C        2.5300300     0.0689490     0.0091910
  C        1.6277130    -2.1636760     0.0089260
  C        2.7309420    -1.3104680     0.0141480
  C       -2.3977350    -0.3210840    -0.0173950
  C       -3.5624210     0.6474400     0.0363070
  H       -0.5440456    -2.3313654    -0.0065135
  H       -1.1804810     1.3202100    -0.0131680
  H        3.3690000     0.7589460     0.0128930
  H        1.7714720    -3.2410880     0.0123870
  H        3.7417620    -1.7087950     0.0220870
  H       -3.7187230     0.9816890     1.0666350
  H       -4.4568090     0.1237200    -0.3002800
  H       -3.3965620     1.5279900    -0.5904610
units angstrom
no_reorient  #important for SAPT in psi4, default
symmetry c1  #important for SAPT in psi4, default
}

set PROPERTIES_ORIGIN ["COM"]
properties('MP2/aug-cc-pvtz', properties = ['dipole'])
--------------------------------------------------------------------------

    Molecular point group: c1
  Charge       = 0
  Multiplicity = 1
  Basis Set: AUG-CC-PVTZ
    Blend: AUG-CC-PVTZ
  Basis Set: (AUG-CC-PVTZ AUX)
    Blend: AUG-CC-PVTZ-JKFIT

    Orbital Energies [Eh]
    ---------------------

    Doubly Occupied:

       1A   -104.856491     2A    -20.535553     3A    -15.613567
       4A    -11.371771     5A    -11.309041     6A    -11.307908
       7A    -11.256944     8A    -11.248381     9A    -11.248247
      10A    -11.244063    11A    -11.241749    12A    -10.580305
      13A     -8.047166    14A     -8.045418    15A     -8.045318
      16A     -1.390681    17A     -1.271319    18A     -1.181861
      19A     -1.125002    20A     -1.044737    21A     -1.008411
      22A     -0.987584    23A     -0.870862    24A     -0.830316
      25A     -0.789372    26A     -0.735976    27A     -0.688521
      28A     -0.675026    29A     -0.636296    30A     -0.633744
      31A     -0.620305    32A     -0.596962    33A     -0.590447
      34A     -0.574819    35A     -0.570322    36A     -0.537966
      37A     -0.528909    38A     -0.513255    39A     -0.479724
      40A     -0.470877    41A     -0.451566    42A     -0.433959
      43A     -0.344530    44A     -0.318845

  @DF-RHF Final Energy:  -896.60622814198325

   => Energetics <=

    Nuclear Repulsion Energy =            656.1689595627879044
    One-Electron Energy =               -2531.8421462086694191
    Two-Electron Energy =                 979.0669585038982632
    Total Energy =                       -896.6062281419832516
  Basis Set: (AUG-CC-PVTZ AUX)
    Blend: AUG-CC-PVTZ-RI
    Molecular point group: c1

    Geometry (in Angstrom), charge = 0, multiplicity = 1:

       Center              X                  Y                   Z               Mass
    ------------   -----------------  -----------------  -----------------  -----------------
         CL           0.992301924146     2.285162574433    -0.006359762428    34.968852682000
         O           -2.586202075854    -1.569365425567    -0.025200762428    15.994914619570
         N           -1.200031075854     0.278615574433    -0.015122762428    14.003074004430
         C            0.078037924146    -0.299279425567    -0.004888762428    12.000000000000
         C            1.202741924146     0.548731574433    -0.000356762428    12.000000000000
         C            0.296823924146    -1.687102425567    -0.000287762428    12.000000000000
         C            2.498380924146     0.040703574433     0.010430237572    12.000000000000
         C            1.596063924146    -2.191921425567     0.010165237572    12.000000000000
         C            2.699292924146    -1.338713425567     0.015387237572    12.000000000000
         C           -2.429384075854    -0.349329425567    -0.016155762428    12.000000000000
         C           -3.594070075854     0.619194574433     0.037546237572    12.000000000000
         H           -0.575694675854    -2.359610825567    -0.005274262428     1.007825032230
         H           -1.212130075854     1.291964574433    -0.011928762428     1.007825032230
         H            3.337350924146     0.730700574433     0.014132237572     1.007825032230
         H            1.739822924146    -3.269333425567     0.013626237572     1.007825032230
         H            3.710112924146    -1.737040425567     0.023326237572     1.007825032230
         H           -3.750372075854     0.953443574433     1.067874237572     1.007825032230
         H           -4.488458075854     0.095474574433    -0.299040762428     1.007825032230
         H           -3.428211075854     1.499744574433    -0.589221762428     1.007825032230

  Basis Set: AUG-CC-PVTZ
    Blend: AUG-CC-PVTZ
  Basis Set: (AUG-CC-PVTZ AUX)
    Blend: AUG-CC-PVTZ-JKFIT
	 Reference Energy          =    -896.6062281419832516 [Eh]
	 Singles Energy            =      -0.0000000000000000 [Eh]
	 Same-Spin Energy          =      -0.5340530031500965 [Eh]
	 Opposite-Spin Energy      =      -1.6206471925321859 [Eh]
	 Correlation Energy        =      -2.1547001956822824 [Eh]
	 Total Energy              =    -898.7609283376655185 [Eh]

	 ================> DF-SCS-MP2 Energies <==================
	-----------------------------------------------------------
	 SCS Same-Spin Scale       =       0.3333333333333333 [-]
	 SCS Opposite-Spin Scale   =       1.2000000000000000 [-]
	 SCS Same-Spin Energy      =      -0.1780176677166988 [Eh]
	 SCS Opposite-Spin Energy  =      -1.9447766310386230 [Eh]
	 SCS Correlation Energy    =      -2.1227942987553217 [Eh]
	 SCS Total Energy          =    -898.7290224407386177 [Eh]
	-----------------------------------------------------------

  Dipole Moment: [D]
     X:     0.5811      Y:     1.8632      Z:     0.0888     Total:     1.9537

*** Psi4 exiting successfully. Buy a developer a beer!
