                               Psi4 1.4a3.dev225

  ==> Input File <==

--------------------------------------------------------------------------
#psi4
#
memory 32 gb

molecule  {
0 1
 Cl        1.0239510     2.3134080    -0.0075990
  O       -2.5545530    -1.5411200    -0.0264400
  N       -1.1683820     0.3068610    -0.0163620
  C        0.1096870    -0.2710340    -0.0061280
  C        1.2343910     0.5769770    -0.0015960
  C        0.3284730    -1.6588570    -0.0015270
  C        2.5300300     0.0689490     0.0091910
  C        1.6277130    -2.1636760     0.0089260
  C        2.7309420    -1.3104680     0.0141480
  C       -2.3852877    -0.3048256    -0.0341444
  C       -3.5624210     0.6474400     0.0363070
  H       -0.5282050    -2.3191560    -0.0064230
  H       -1.1804810     1.3202100    -0.0131680
  H        3.3690000     0.7589460     0.0128930
  H        1.7714720    -3.2410880     0.0123870
  H        3.7417620    -1.7087950     0.0220870
  H       -3.7187230     0.9816890     1.0666350
  H       -4.4568090     0.1237200    -0.3002800
  H       -3.3965620     1.5279900    -0.5904610
units angstrom
no_reorient  #important for SAPT in psi4, default
symmetry c1  #important for SAPT in psi4, default
}

set PROPERTIES_ORIGIN ["COM"]
properties('MP2/aug-cc-pvtz', properties = ['dipole'])
--------------------------------------------------------------------------

    Molecular point group: c1
  Charge       = 0
  Multiplicity = 1
  Basis Set: AUG-CC-PVTZ
    Blend: AUG-CC-PVTZ
  Basis Set: (AUG-CC-PVTZ AUX)
    Blend: AUG-CC-PVTZ-JKFIT

    Orbital Energies [Eh]
    ---------------------

    Doubly Occupied:

       1A   -104.857760     2A    -20.530736     3A    -15.616885
       4A    -11.370746     5A    -11.310586     6A    -11.309379
       7A    -11.257953     8A    -11.249040     9A    -11.248123
      10A    -11.245513    11A    -11.241107    12A    -10.581574
      13A     -8.048434    14A     -8.046683    15A     -8.046584
      16A     -1.380072    17A     -1.273592    18A     -1.184181
      19A     -1.126387    20A     -1.046282    21A     -1.009628
      22A     -0.988482    23A     -0.874860    24A     -0.832253
      25A     -0.791865    26A     -0.738462    27A     -0.685904
      28A     -0.677012    29A     -0.636803    30A     -0.633638
      31A     -0.621849    32A     -0.594007    33A     -0.588317
      34A     -0.575846    35A     -0.571395    36A     -0.539125
      37A     -0.528096    38A     -0.514696    39A     -0.479425
      40A     -0.472139    41A     -0.448575    42A     -0.431564
      43A     -0.345530    44A     -0.320905

  @DF-RHF Final Energy:  -896.60492808481899

   => Energetics <=

    Nuclear Repulsion Energy =            656.3458851984322564
    One-Electron Energy =               -2532.1576400904423281
    Two-Electron Energy =                 979.2068268071909642
    Total Energy =                       -896.6049280848189937
  Basis Set: (AUG-CC-PVTZ AUX)
    Blend: AUG-CC-PVTZ-RI
    Molecular point group: c1

    Geometry (in Angstrom), charge = 0, multiplicity = 1:

       Center              X                  Y                   Z               Mass
    ------------   -----------------  -----------------  -----------------  -----------------
         CL           0.991323797782     2.283935535303    -0.005171202672    34.968852682000
         O           -2.587180202218    -1.570592464697    -0.024012202672    15.994914619570
         N           -1.201009202218     0.277388535303    -0.013934202672    14.003074004430
         C            0.077059797782    -0.300506464697    -0.003700202672    12.000000000000
         C            1.201763797782     0.547504535303     0.000831797328    12.000000000000
         C            0.295845797782    -1.688329464697     0.000900797328    12.000000000000
         C            2.497402797782     0.039476535303     0.011618797328    12.000000000000
         C            1.595085797782    -2.193148464697     0.011353797328    12.000000000000
         C            2.698314797782    -1.339940464697     0.016575797328    12.000000000000
         C           -2.417914902218    -0.334298064697    -0.031716602672    12.000000000000
         C           -3.595048202218     0.617967535303     0.038734797328    12.000000000000
         H           -0.560832202218    -2.348628464697    -0.003995202672     1.007825032230
         H           -1.213108202218     1.290737535303    -0.010740202672     1.007825032230
         H            3.336372797782     0.729473535303     0.015320797328     1.007825032230
         H            1.738844797782    -3.270560464697     0.014814797328     1.007825032230
         H            3.709134797782    -1.738267464697     0.024514797328     1.007825032230
         H           -3.751350202218     0.952216535303     1.069062797328     1.007825032230
         H           -4.489436202218     0.094247535303    -0.297852202672     1.007825032230
         H           -3.429189202218     1.498517535303    -0.588033202672     1.007825032230

  Basis Set: AUG-CC-PVTZ
    Blend: AUG-CC-PVTZ
  Basis Set: (AUG-CC-PVTZ AUX)
    Blend: AUG-CC-PVTZ-JKFIT
	 Reference Energy          =    -896.6049280848189937 [Eh]
	 Singles Energy            =      -0.0000000000000000 [Eh]
	 Same-Spin Energy          =      -0.5343000766800059 [Eh]
	 Opposite-Spin Energy      =      -1.6211526015297686 [Eh]
	 Correlation Energy        =      -2.1554526782097745 [Eh]
	 Total Energy              =    -898.7603807630288202 [Eh]

	 ================> DF-SCS-MP2 Energies <==================
	-----------------------------------------------------------
	 SCS Same-Spin Scale       =       0.3333333333333333 [-]
	 SCS Opposite-Spin Scale   =       1.2000000000000000 [-]
	 SCS Same-Spin Energy      =      -0.1781000255600020 [Eh]
	 SCS Opposite-Spin Energy  =      -1.9453831218357223 [Eh]
	 SCS Correlation Energy    =      -2.1234831473957243 [Eh]
	 SCS Total Energy          =    -898.7284112322147394 [Eh]
	-----------------------------------------------------------

  Dipole Moment: [D]
     X:     0.7914      Y:     1.9582      Z:     0.0790     Total:     2.1136

*** Psi4 exiting successfully. Buy a developer a beer!
