                               Psi4 1.4a3.dev225

  ==> Input File <==

--------------------------------------------------------------------------
#psi4
#
memory 32 gb

molecule  {
0 1
 Cl        1.0239510     2.3134080    -0.0075990
  O       -2.5545530    -1.5411200    -0.0264400
  N       -1.1683820     0.3068610    -0.0163620
  C        0.1096870    -0.2710340    -0.0061280
  C        1.2343910     0.5769770    -0.0015960
  C        0.3284730    -1.6588570    -0.0015270
  C        2.5300300     0.0689490     0.0091910
  C        1.6277130    -2.1636760     0.0089260
  C        2.8891484    -1.1881154     0.0148969
  C       -2.3977350    -0.3210840    -0.0173950
  C       -3.5624210     0.6474400     0.0363070
  H       -0.5282050    -2.3191560    -0.0064230
  H       -1.1804810     1.3202100    -0.0131680
  H        3.3690000     0.7589460     0.0128930
  H        1.7714720    -3.2410880     0.0123870
  H        3.7417620    -1.7087950     0.0220870
  H       -3.7187230     0.9816890     1.0666350
  H       -4.4568090     0.1237200    -0.3002800
  H       -3.3965620     1.5279900    -0.5904610
units angstrom
no_reorient  #important for SAPT in psi4, default
symmetry c1  #important for SAPT in psi4, default
}

set PROPERTIES_ORIGIN ["COM"]
properties('MP2/aug-cc-pvtz', properties = ['dipole'])
--------------------------------------------------------------------------

    Molecular point group: c1
  Charge       = 0
  Multiplicity = 1
  Basis Set: AUG-CC-PVTZ
    Blend: AUG-CC-PVTZ
  Basis Set: (AUG-CC-PVTZ AUX)
    Blend: AUG-CC-PVTZ-JKFIT

    Orbital Energies [Eh]
    ---------------------

    Doubly Occupied:

       1A   -104.855474     2A    -20.537132     3A    -15.615907
       4A    -11.373723     5A    -11.313153     6A    -11.303562
       7A    -11.264893     8A    -11.249578     9A    -11.248127
      10A    -11.245183    11A    -11.240635    12A    -10.579128
      13A     -8.045993    14A     -8.044262    15A     -8.044142
      16A     -1.392438    17A     -1.272789    18A     -1.179807
      19A     -1.116768    20A     -1.053493    21A     -1.012284
      22A     -0.977103    23A     -0.868693    24A     -0.838414
      25A     -0.788721    26A     -0.735270    27A     -0.697035
      28A     -0.685403    29A     -0.640680    30A     -0.635058
      31A     -0.619205    32A     -0.603471    33A     -0.587176
      34A     -0.574864    35A     -0.571033    36A     -0.548898
      37A     -0.529286    38A     -0.483263    39A     -0.475995
      40A     -0.470416    41A     -0.450252    42A     -0.432784
      43A     -0.355295    44A     -0.309507

  @DF-RHF Final Energy:  -896.56564266024316

   => Energetics <=

    Nuclear Repulsion Energy =            654.5389493987688638
    One-Electron Energy =               -2528.4765955121401930
    Two-Electron Energy =                 977.3720034531281726
    Total Energy =                       -896.5656426602431566
  Basis Set: (AUG-CC-PVTZ AUX)
    Blend: AUG-CC-PVTZ-RI
    Molecular point group: c1

    Geometry (in Angstrom), charge = 0, multiplicity = 1:

       Center              X                  Y                   Z               Mass
    ------------   -----------------  -----------------  -----------------  -----------------
         CL           0.980975841924     2.276403531480    -0.006413469096    34.968852682000
         O           -2.597528158076    -1.578124468520    -0.025254469096    15.994914619570
         N           -1.211357158076     0.269856531480    -0.015176469096    14.003074004430
         C            0.066711841924    -0.308038468520    -0.004942469096    12.000000000000
         C            1.191415841924     0.539972531480    -0.000410469096    12.000000000000
         C            0.285497841924    -1.695861468520    -0.000341469096    12.000000000000
         C            2.487054841924     0.031944531480     0.010376530904    12.000000000000
         C            1.584737841924    -2.200680468520     0.010111530904    12.000000000000
         C            2.846173241924    -1.225119868520     0.016082430904    12.000000000000
         C           -2.440710158076    -0.358088468520    -0.016209469096    12.000000000000
         C           -3.605396158076     0.610435531480     0.037492530904    12.000000000000
         H           -0.571180158076    -2.356160468520    -0.005237469096     1.007825032230
         H           -1.223456158076     1.283205531480    -0.011982469096     1.007825032230
         H            3.326024841924     0.721941531480     0.014078530904     1.007825032230
         H            1.728496841924    -3.278092468520     0.013572530904     1.007825032230
         H            3.698786841924    -1.745799468520     0.023272530904     1.007825032230
         H           -3.761698158076     0.944684531480     1.067820530904     1.007825032230
         H           -4.499784158076     0.086715531480    -0.299094469096     1.007825032230
         H           -3.439537158076     1.490985531480    -0.589275469096     1.007825032230

  Basis Set: AUG-CC-PVTZ
    Blend: AUG-CC-PVTZ
  Basis Set: (AUG-CC-PVTZ AUX)
    Blend: AUG-CC-PVTZ-JKFIT
	 Reference Energy          =    -896.5656426602431566 [Eh]
	 Singles Energy            =      -0.0000000000000000 [Eh]
	 Same-Spin Energy          =      -0.5331552007733418 [Eh]
	 Opposite-Spin Energy      =      -1.6226403921016199 [Eh]
	 Correlation Energy        =      -2.1557955928749619 [Eh]
	 Total Energy              =    -898.7214382531180945 [Eh]

	 ================> DF-SCS-MP2 Energies <==================
	-----------------------------------------------------------
	 SCS Same-Spin Scale       =       0.3333333333333333 [-]
	 SCS Opposite-Spin Scale   =       1.2000000000000000 [-]
	 SCS Same-Spin Energy      =      -0.1777184002577806 [Eh]
	 SCS Opposite-Spin Energy  =      -1.9471684705219439 [Eh]
	 SCS Correlation Energy    =      -2.1248868707797244 [Eh]
	 SCS Total Energy          =    -898.6905295310228894 [Eh]
	-----------------------------------------------------------

  Dipole Moment: [D]
     X:     0.5479      Y:     1.8610      Z:     0.0892     Total:     1.9420

*** Psi4 exiting successfully. Buy a developer a beer!
