                               Psi4 1.4a3.dev225

  ==> Input File <==

--------------------------------------------------------------------------
#psi4
#
memory 32 gb

molecule  {
0 1
 Cl        1.0239510     2.3134080    -0.0075990
  O       -2.5545530    -1.5411200    -0.0264400
  N       -1.1683820     0.3068610    -0.0163620
  C        0.1096870    -0.2710340    -0.0061280
  C        1.2343910     0.5769770    -0.0015960
  C        0.3284730    -1.6588570    -0.0015270
  C        2.5300300     0.0689490     0.0091910
  C        1.6277130    -2.1636760     0.0089260
  C        2.7309420    -1.3104680     0.0141480
  C       -2.4236901    -0.3527108     0.0161479
  C       -3.5624210     0.6474400     0.0363070
  H       -0.5282050    -2.3191560    -0.0064230
  H       -1.1804810     1.3202100    -0.0131680
  H        3.3690000     0.7589460     0.0128930
  H        1.7714720    -3.2410880     0.0123870
  H        3.7417620    -1.7087950     0.0220870
  H       -3.7187230     0.9816890     1.0666350
  H       -4.4568090     0.1237200    -0.3002800
  H       -3.3965620     1.5279900    -0.5904610
units angstrom
no_reorient  #important for SAPT in psi4, default
symmetry c1  #important for SAPT in psi4, default
}

set PROPERTIES_ORIGIN ["COM"]
properties('MP2/aug-cc-pvtz', properties = ['dipole'])
--------------------------------------------------------------------------

    Molecular point group: c1
  Charge       = 0
  Multiplicity = 1
  Basis Set: AUG-CC-PVTZ
    Blend: AUG-CC-PVTZ
  Basis Set: (AUG-CC-PVTZ AUX)
    Blend: AUG-CC-PVTZ-JKFIT

    Orbital Energies [Eh]
    ---------------------

    Doubly Occupied:

       1A   -104.853894     2A    -20.545065     3A    -15.606631
       4A    -11.373575     5A    -11.306020     6A    -11.304634
       7A    -11.255096     8A    -11.249200     9A    -11.246715
      10A    -11.241169    11A    -11.237561    12A    -10.577711
      13A     -8.044573    14A     -8.042831    15A     -8.042731
      16A     -1.414598    17A     -1.264419    18A     -1.177003
      19A     -1.122692    20A     -1.042498    21A     -1.007495
      22A     -0.985556    23A     -0.864946    24A     -0.827340
      25A     -0.786097    26A     -0.731100    27A     -0.694500
      28A     -0.674305    29A     -0.637106    30A     -0.635333
      31A     -0.622740    32A     -0.607038    33A     -0.589456
      34A     -0.572677    35A     -0.568328    36A     -0.537010
      37A     -0.532550    38A     -0.512324    39A     -0.480657
      40A     -0.468414    41A     -0.454399    42A     -0.438865
      43A     -0.342757    44A     -0.314645

  @DF-RHF Final Energy:  -896.60645623596656

   => Energetics <=

    Nuclear Repulsion Energy =            656.0768654569093314
    One-Electron Energy =               -2531.6981414561478232
    Two-Electron Energy =                 979.0148197632720439
    Total Energy =                       -896.6064562359665615
  Basis Set: (AUG-CC-PVTZ AUX)
    Blend: AUG-CC-PVTZ-RI
    Molecular point group: c1

    Geometry (in Angstrom), charge = 0, multiplicity = 1:

       Center              X                  Y                   Z               Mass
    ------------   -----------------  -----------------  -----------------  -----------------
         CL           0.994050120461     2.287335075612    -0.008741631553    34.968852682000
         O           -2.584453879539    -1.567192924388    -0.027582631553    15.994914619570
         N           -1.198282879539     0.280788075612    -0.017504631553    14.003074004430
         C            0.079786120461    -0.297106924388    -0.007270631553    12.000000000000
         C            1.204490120461     0.550904075612    -0.002738631553    12.000000000000
         C            0.298572120461    -1.684929924388    -0.002669631553    12.000000000000
         C            2.500129120461     0.042876075612     0.008048368447    12.000000000000
         C            1.597812120461    -2.189748924388     0.007783368447    12.000000000000
         C            2.701041120461    -1.336540924388     0.013005368447    12.000000000000
         C           -2.453590979539    -0.378783724388     0.015005268447    12.000000000000
         C           -3.592321879539     0.621367075612     0.035164368447    12.000000000000
         H           -0.558105879539    -2.345228924388    -0.007565631553     1.007825032230
         H           -1.210381879539     1.294137075612    -0.014310631553     1.007825032230
         H            3.339099120461     0.732873075612     0.011750368447     1.007825032230
         H            1.741571120461    -3.267160924388     0.011244368447     1.007825032230
         H            3.711861120461    -1.734867924388     0.020944368447     1.007825032230
         H           -3.748623879539     0.955616075612     1.065492368447     1.007825032230
         H           -4.486709879539     0.097647075612    -0.301422631553     1.007825032230
         H           -3.426462879539     1.501917075612    -0.591603631553     1.007825032230

  Basis Set: AUG-CC-PVTZ
    Blend: AUG-CC-PVTZ
  Basis Set: (AUG-CC-PVTZ AUX)
    Blend: AUG-CC-PVTZ-JKFIT
	 Reference Energy          =    -896.6064562359665615 [Eh]
	 Singles Energy            =      -0.0000000000000000 [Eh]
	 Same-Spin Energy          =      -0.5333696489227755 [Eh]
	 Opposite-Spin Energy      =      -1.6192873236371268 [Eh]
	 Correlation Energy        =      -2.1526569725599023 [Eh]
	 Total Energy              =    -898.7591132085265144 [Eh]

	 ================> DF-SCS-MP2 Energies <==================
	-----------------------------------------------------------
	 SCS Same-Spin Scale       =       0.3333333333333333 [-]
	 SCS Opposite-Spin Scale   =       1.2000000000000000 [-]
	 SCS Same-Spin Energy      =      -0.1777898829742585 [Eh]
	 SCS Opposite-Spin Energy  =      -1.9431447883645521 [Eh]
	 SCS Correlation Energy    =      -2.1209346713388104 [Eh]
	 SCS Total Energy          =    -898.7273909073053346 [Eh]
	-----------------------------------------------------------

  Dipole Moment: [D]
     X:     0.1747      Y:     1.6763      Z:     0.1154     Total:     1.6893

*** Psi4 exiting successfully. Buy a developer a beer!
