                               Psi4 1.4a3.dev225

  ==> Input File <==

--------------------------------------------------------------------------
#psi4
#
memory 32 gb

molecule  {
0 1
 Cl        1.0239510     2.3134080    -0.0075990
  O       -2.5545530    -1.5411200    -0.0264400
  N       -1.1683820     0.3068610    -0.0163620
  C        0.1096870    -0.2710340    -0.0061280
  C        1.2343910     0.5769770    -0.0015960
  C        0.3284730    -1.6588570    -0.0015270
  C        2.5300300     0.0689490     0.0091910
  C        1.6277130    -2.1636760     0.0089260
  C        2.7309420    -1.3104680     0.0141480
  C       -2.3977350    -0.3210840    -0.0173950
  C       -3.5624210     0.6474400     0.0363070
  H       -0.4490022    -2.2581091    -0.0059703
  H       -1.1804810     1.3202100    -0.0131680
  H        3.3690000     0.7589460     0.0128930
  H        1.7714720    -3.2410880     0.0123870
  H        3.7417620    -1.7087950     0.0220870
  H       -3.7187230     0.9816890     1.0666350
  H       -4.4568090     0.1237200    -0.3002800
  H       -3.3965620     1.5279900    -0.5904610
units angstrom
no_reorient  #important for SAPT in psi4, default
symmetry c1  #important for SAPT in psi4, default
}

set PROPERTIES_ORIGIN ["COM"]
properties('MP2/aug-cc-pvtz', properties = ['dipole'])
--------------------------------------------------------------------------

    Molecular point group: c1
  Charge       = 0
  Multiplicity = 1
  Basis Set: AUG-CC-PVTZ
    Blend: AUG-CC-PVTZ
  Basis Set: (AUG-CC-PVTZ AUX)
    Blend: AUG-CC-PVTZ-JKFIT

    Orbital Energies [Eh]
    ---------------------

    Doubly Occupied:

       1A   -104.856468     2A    -20.535506     3A    -15.613560
       4A    -11.371384     5A    -11.308945     6A    -11.307812
       7A    -11.257392     8A    -11.248490     9A    -11.248228
      10A    -11.244099    11A    -11.230191    12A    -10.580285
      13A     -8.047146    14A     -8.045399    15A     -8.045299
      16A     -1.390228    17A     -1.271419    18A     -1.182002
      19A     -1.126205    20A     -1.045945    21A     -1.011864
      22A     -0.987571    23A     -0.875741    24A     -0.832457
      25A     -0.792916    26A     -0.736024    27A     -0.689238
      28A     -0.683796    29A     -0.636377    30A     -0.633610
      31A     -0.629677    32A     -0.598653    33A     -0.592445
      34A     -0.574826    35A     -0.570881    36A     -0.540304
      37A     -0.528760    38A     -0.516629    39A     -0.479770
      40A     -0.471179    41A     -0.451418    42A     -0.436500
      43A     -0.345080    44A     -0.318902

  @DF-RHF Final Energy:  -896.60105737089395

   => Energetics <=

    Nuclear Repulsion Energy =            656.7576532785923291
    One-Electron Energy =               -2532.9361768915423454
    Two-Electron Energy =                 979.5774662420559480
    Total Energy =                       -896.6010573708939546
  Basis Set: (AUG-CC-PVTZ AUX)
    Blend: AUG-CC-PVTZ-RI
    Molecular point group: c1

    Geometry (in Angstrom), charge = 0, multiplicity = 1:

       Center              X                  Y                   Z               Mass
    ------------   -----------------  -----------------  -----------------  -----------------
         CL           0.991735235191     2.284725789384    -0.006363001216    34.968852682000
         O           -2.586768764809    -1.569802210616    -0.025204001216    15.994914619570
         N           -1.200597764809     0.278178789384    -0.015126001216    14.003074004430
         C            0.077471235191    -0.299716210616    -0.004892001216    12.000000000000
         C            1.202175235191     0.548294789384    -0.000360001216    12.000000000000
         C            0.296257235191    -1.687539210616    -0.000291001216    12.000000000000
         C            2.497814235191     0.040266789384     0.010426998784    12.000000000000
         C            1.595497235191    -2.192358210616     0.010161998784    12.000000000000
         C            2.698726235191    -1.339150210616     0.015383998784    12.000000000000
         C           -2.429950764809    -0.349766210616    -0.016159001216    12.000000000000
         C           -3.594636764809     0.618757789384     0.037542998784    12.000000000000
         H           -0.481217964809    -2.286791310616    -0.004734301216     1.007825032230
         H           -1.212696764809     1.291527789384    -0.011932001216     1.007825032230
         H            3.336784235191     0.730263789384     0.014128998784     1.007825032230
         H            1.739256235191    -3.269770210616     0.013622998784     1.007825032230
         H            3.709546235191    -1.737477210616     0.023322998784     1.007825032230
         H           -3.750938764809     0.953006789384     1.067870998784     1.007825032230
         H           -4.489024764809     0.095037789384    -0.299044001216     1.007825032230
         H           -3.428777764809     1.499307789384    -0.589225001216     1.007825032230

  Basis Set: AUG-CC-PVTZ
    Blend: AUG-CC-PVTZ
  Basis Set: (AUG-CC-PVTZ AUX)
    Blend: AUG-CC-PVTZ-JKFIT
	 Reference Energy          =    -896.6010573708939546 [Eh]
	 Singles Energy            =      -0.0000000000000000 [Eh]
	 Same-Spin Energy          =      -0.5335625115988786 [Eh]
	 Opposite-Spin Energy      =      -1.6198256864459639 [Eh]
	 Correlation Energy        =      -2.1533881980448424 [Eh]
	 Total Energy              =    -898.7544455689387632 [Eh]

	 ================> DF-SCS-MP2 Energies <==================
	-----------------------------------------------------------
	 SCS Same-Spin Scale       =       0.3333333333333333 [-]
	 SCS Opposite-Spin Scale   =       1.2000000000000000 [-]
	 SCS Same-Spin Energy      =      -0.1778541705329595 [Eh]
	 SCS Opposite-Spin Energy  =      -1.9437908237351567 [Eh]
	 SCS Correlation Energy    =      -2.1216449942681161 [Eh]
	 SCS Total Energy          =    -898.7227023651620357 [Eh]
	-----------------------------------------------------------

  Dipole Moment: [D]
     X:     0.6406      Y:     1.8785      Z:     0.0893     Total:     1.9867

*** Psi4 exiting successfully. Buy a developer a beer!
