                               Psi4 1.4a3.dev225

  ==> Input File <==

--------------------------------------------------------------------------
#psi4
#
memory 32 gb

molecule  {
0 1
 Cl        1.0239510     2.3134080    -0.0075990
  O       -2.5545530    -1.5411200    -0.0264400
  N       -1.1683820     0.3068610    -0.0163620
  C        0.2008028    -0.3122332    -0.0053984
  C        1.2343910     0.5769770    -0.0015960
  C        0.3284730    -1.6588570    -0.0015270
  C        2.5300300     0.0689490     0.0091910
  C        1.6277130    -2.1636760     0.0089260
  C        2.7309420    -1.3104680     0.0141480
  C       -2.3977350    -0.3210840    -0.0173950
  C       -3.5624210     0.6474400     0.0363070
  H       -0.5282050    -2.3191560    -0.0064230
  H       -1.1804810     1.3202100    -0.0131680
  H        3.3690000     0.7589460     0.0128930
  H        1.7714720    -3.2410880     0.0123870
  H        3.7417620    -1.7087950     0.0220870
  H       -3.7187230     0.9816890     1.0666350
  H       -4.4568090     0.1237200    -0.3002800
  H       -3.3965620     1.5279900    -0.5904610
units angstrom
no_reorient  #important for SAPT in psi4, default
symmetry c1  #important for SAPT in psi4, default
}

set PROPERTIES_ORIGIN ["COM"]
properties('MP2/aug-cc-pvtz', properties = ['dipole'])
--------------------------------------------------------------------------

    Molecular point group: c1
  Charge       = 0
  Multiplicity = 1
  Basis Set: AUG-CC-PVTZ
    Blend: AUG-CC-PVTZ
  Basis Set: (AUG-CC-PVTZ AUX)
    Blend: AUG-CC-PVTZ-JKFIT

    Orbital Energies [Eh]
    ---------------------

    Doubly Occupied:

       1A   -104.861880     2A    -20.526936     3A    -15.603794
       4A    -11.364089     5A    -11.308490     6A    -11.304129
       7A    -11.259619     8A    -11.251192     9A    -11.247935
      10A    -11.243110    11A    -11.238376    12A    -10.585431
      13A     -8.052303    14A     -8.050495    15A     -8.050408
      16A     -1.381079    17A     -1.250747    18A     -1.184550
      19A     -1.133777    20A     -1.044377    21A     -1.013886
      22A     -0.990718    23A     -0.867078    24A     -0.832678
      25A     -0.784593    26A     -0.724015    27A     -0.684239
      28A     -0.669855    29A     -0.646695    30A     -0.624758
      31A     -0.623338    32A     -0.599085    33A     -0.587174
      34A     -0.574766    35A     -0.565358    36A     -0.533857
      37A     -0.525453    38A     -0.524231    39A     -0.484238
      40A     -0.473049    41A     -0.439901    42A     -0.427390
      43A     -0.349141    44A     -0.332533

  @DF-RHF Final Energy:  -896.59660130901364

   => Energetics <=

    Nuclear Repulsion Energy =            656.3044349360858405
    One-Electron Energy =               -2532.1605758716364107
    Two-Electron Energy =                 979.2595396265370482
    Total Energy =                       -896.5966013090136357
  Basis Set: (AUG-CC-PVTZ AUX)
    Blend: AUG-CC-PVTZ-RI
    Molecular point group: c1

    Geometry (in Angstrom), charge = 0, multiplicity = 1:

       Center              X                  Y                   Z               Mass
    ------------   -----------------  -----------------  -----------------  -----------------
         CL           0.985738841745     2.288014654264    -0.006412098921    34.968852682000
         O           -2.592765158255    -1.566513345736    -0.025253098921    15.994914619570
         N           -1.206594158255     0.281467654264    -0.015175098921    14.003074004430
         C            0.162590641745    -0.337626545736    -0.004211498921    12.000000000000
         C            1.196178841745     0.551583654264    -0.000409098921    12.000000000000
         C            0.290260841745    -1.684250345736    -0.000340098921    12.000000000000
         C            2.491817841745     0.043555654264     0.010377901079    12.000000000000
         C            1.589500841745    -2.189069345736     0.010112901079    12.000000000000
         C            2.692729841745    -1.335861345736     0.015334901079    12.000000000000
         C           -2.435947158255    -0.346477345736    -0.016208098921    12.000000000000
         C           -3.600633158255     0.622046654264     0.037493901079    12.000000000000
         H           -0.566417158255    -2.344549345736    -0.005236098921     1.007825032230
         H           -1.218693158255     1.294816654264    -0.011981098921     1.007825032230
         H            3.330787841745     0.733552654264     0.014079901079     1.007825032230
         H            1.733259841745    -3.266481345736     0.013573901079     1.007825032230
         H            3.703549841745    -1.734188345736     0.023273901079     1.007825032230
         H           -3.756935158255     0.956295654264     1.067821901079     1.007825032230
         H           -4.495021158255     0.098326654264    -0.299093098921     1.007825032230
         H           -3.434774158255     1.502596654264    -0.589274098921     1.007825032230

  Basis Set: AUG-CC-PVTZ
    Blend: AUG-CC-PVTZ
  Basis Set: (AUG-CC-PVTZ AUX)
    Blend: AUG-CC-PVTZ-JKFIT
	 Reference Energy          =    -896.5966013090136357 [Eh]
	 Singles Energy            =      -0.0000000000000000 [Eh]
	 Same-Spin Energy          =      -0.5332947567319457 [Eh]
	 Opposite-Spin Energy      =      -1.6199896600254946 [Eh]
	 Correlation Energy        =      -2.1532844167574403 [Eh]
	 Total Energy              =    -898.7498857257710370 [Eh]

	 ================> DF-SCS-MP2 Energies <==================
	-----------------------------------------------------------
	 SCS Same-Spin Scale       =       0.3333333333333333 [-]
	 SCS Opposite-Spin Scale   =       1.2000000000000000 [-]
	 SCS Same-Spin Energy      =      -0.1777649189106486 [Eh]
	 SCS Opposite-Spin Energy  =      -1.9439875920305933 [Eh]
	 SCS Correlation Energy    =      -2.1217525109412421 [Eh]
	 SCS Total Energy          =    -898.7183538199549275 [Eh]
	-----------------------------------------------------------

  Dipole Moment: [D]
     X:     1.1759      Y:     1.8079      Z:     0.0913     Total:     2.1585

*** Psi4 exiting successfully. Buy a developer a beer!
