                               Psi4 1.4a3.dev225

  ==> Input File <==

--------------------------------------------------------------------------
#psi4
#
memory 32 gb

molecule  {
0 1
 Cl        1.0239510     2.3134080    -0.0075990
  O       -2.5545530    -1.5411200    -0.0264400
  N       -1.1683820     0.3068610    -0.0163620
  C        0.1096870    -0.2710340    -0.0061280
  C        1.2945941     0.7096290    -0.0015982
  C        0.3284730    -1.6588570    -0.0015270
  C        2.5300300     0.0689490     0.0091910
  C        1.6277130    -2.1636760     0.0089260
  C        2.7309420    -1.3104680     0.0141480
  C       -2.3977350    -0.3210840    -0.0173950
  C       -3.5624210     0.6474400     0.0363070
  H       -0.5282050    -2.3191560    -0.0064230
  H       -1.1804810     1.3202100    -0.0131680
  H        3.3690000     0.7589460     0.0128930
  H        1.7714720    -3.2410880     0.0123870
  H        3.7417620    -1.7087950     0.0220870
  H       -3.7187230     0.9816890     1.0666350
  H       -4.4568090     0.1237200    -0.3002800
  H       -3.3965620     1.5279900    -0.5904610
units angstrom
no_reorient  #important for SAPT in psi4, default
symmetry c1  #important for SAPT in psi4, default
}

set PROPERTIES_ORIGIN ["COM"]
properties('MP2/aug-cc-pvtz', properties = ['dipole'])
--------------------------------------------------------------------------

    Molecular point group: c1
  Charge       = 0
  Multiplicity = 1
  Basis Set: AUG-CC-PVTZ
    Blend: AUG-CC-PVTZ
  Basis Set: (AUG-CC-PVTZ AUX)
    Blend: AUG-CC-PVTZ-JKFIT

    Orbital Energies [Eh]
    ---------------------

    Doubly Occupied:

       1A   -104.868124     2A    -20.535005     3A    -15.613357
       4A    -11.370445     5A    -11.315674     6A    -11.310626
       7A    -11.253487     8A    -11.248026     9A    -11.246652
      10A    -11.239408    11A    -11.234578    12A    -10.594015
      13A     -8.061236    14A     -8.058990    15A     -8.058891
      16A     -1.389559    17A     -1.268552    18A     -1.204516
      19A     -1.129203    20A     -1.039006    21A     -1.007938
      22A     -0.974761    23A     -0.865597    24A     -0.827232
      25A     -0.780660    26A     -0.734012    27A     -0.686262
      28A     -0.680924    29A     -0.635580    30A     -0.632127
      31A     -0.615607    32A     -0.600332    33A     -0.595144
      34A     -0.574735    35A     -0.568413    36A     -0.540833
      37A     -0.537084    38A     -0.516344    39A     -0.482961
      40A     -0.469218    41A     -0.449271    42A     -0.430896
      43A     -0.341971    44A     -0.302582

  @DF-RHF Final Energy:  -896.58257378207884

   => Energetics <=

    Nuclear Repulsion Energy =            655.8122748789306797
    One-Electron Energy =               -2531.0100326500341907
    Two-Electron Energy =                 978.6151839890247857
    Total Energy =                       -896.5825737820788390
  Basis Set: (AUG-CC-PVTZ AUX)
    Blend: AUG-CC-PVTZ-RI
    Molecular point group: c1

    Geometry (in Angstrom), charge = 0, multiplicity = 1:

       Center              X                  Y                   Z               Mass
    ------------   -----------------  -----------------  -----------------  -----------------
         CL           0.987933444038     2.275672340518    -0.006360145841    34.968852682000
         O           -2.590570555962    -1.578855659482    -0.025201145841    15.994914619570
         N           -1.204399555962     0.269125340518    -0.015123145841    14.003074004430
         C            0.073669444038    -0.308769659482    -0.004889145841    12.000000000000
         C            1.258576544038     0.671893340518    -0.000359345841    12.000000000000
         C            0.292455444038    -1.696592659482    -0.000288145841    12.000000000000
         C            2.494012444038     0.031213340518     0.010429854159    12.000000000000
         C            1.591695444038    -2.201411659482     0.010164854159    12.000000000000
         C            2.694924444038    -1.348203659482     0.015386854159    12.000000000000
         C           -2.433752555962    -0.358819659482    -0.016156145841    12.000000000000
         C           -3.598438555962     0.609704340518     0.037545854159    12.000000000000
         H           -0.564222555962    -2.356891659482    -0.005184145841     1.007825032230
         H           -1.216498555962     1.282474340518    -0.011929145841     1.007825032230
         H            3.332982444038     0.721210340518     0.014131854159     1.007825032230
         H            1.735454444038    -3.278823659482     0.013625854159     1.007825032230
         H            3.705744444038    -1.746530659482     0.023325854159     1.007825032230
         H           -3.754740555962     0.943953340518     1.067873854159     1.007825032230
         H           -4.492826555962     0.085984340518    -0.299041145841     1.007825032230
         H           -3.432579555962     1.490254340518    -0.589222145841     1.007825032230

  Basis Set: AUG-CC-PVTZ
    Blend: AUG-CC-PVTZ
  Basis Set: (AUG-CC-PVTZ AUX)
    Blend: AUG-CC-PVTZ-JKFIT
	 Reference Energy          =    -896.5825737820788390 [Eh]
	 Singles Energy            =      -0.0000000000000000 [Eh]
	 Same-Spin Energy          =      -0.5358088508384447 [Eh]
	 Opposite-Spin Energy      =      -1.6234387814515474 [Eh]
	 Correlation Energy        =      -2.1592476322899921 [Eh]
	 Total Energy              =    -898.7418214143688147 [Eh]

	 ================> DF-SCS-MP2 Energies <==================
	-----------------------------------------------------------
	 SCS Same-Spin Scale       =       0.3333333333333333 [-]
	 SCS Opposite-Spin Scale   =       1.2000000000000000 [-]
	 SCS Same-Spin Energy      =      -0.1786029502794815 [Eh]
	 SCS Opposite-Spin Energy  =      -1.9481265377418568 [Eh]
	 SCS Correlation Energy    =      -2.1267294880213385 [Eh]
	 SCS Total Energy          =    -898.7093032701001221 [Eh]
	-----------------------------------------------------------

  Dipole Moment: [D]
     X:     0.4814      Y:     2.4388      Z:     0.0857     Total:     2.4873

*** Psi4 exiting successfully. Buy a developer a beer!
