                               Psi4 1.4a3.dev225

  ==> Input File <==

--------------------------------------------------------------------------
#psi4
#
memory 32 gb

molecule  {
0 1
 Cl        1.0239510     2.3134080    -0.0075990
  O       -2.5545530    -1.5411200    -0.0264400
  N       -1.1683820     0.3068610    -0.0163620
  C        0.1096870    -0.2710340    -0.0061280
  C        1.2945933     0.7096293    -0.0014894
  C        0.3284730    -1.6588570    -0.0015270
  C        2.5300300     0.0689490     0.0091910
  C        1.6277130    -2.1636760     0.0089260
  C        2.7309420    -1.3104680     0.0141480
  C       -2.3977350    -0.3210840    -0.0173950
  C       -3.5624210     0.6474400     0.0363070
  H       -0.5282050    -2.3191560    -0.0064230
  H       -1.1804810     1.3202100    -0.0131680
  H        3.3690000     0.7589460     0.0128930
  H        1.7714720    -3.2410880     0.0123870
  H        3.7417620    -1.7087950     0.0220870
  H       -3.7187230     0.9816890     1.0666350
  H       -4.4568090     0.1237200    -0.3002800
  H       -3.3965620     1.5279900    -0.5904610
units angstrom
no_reorient  #important for SAPT in psi4, default
symmetry c1  #important for SAPT in psi4, default
}

set PROPERTIES_ORIGIN ["COM"]
properties('MP2/aug-cc-pvtz', properties = ['dipole'])
--------------------------------------------------------------------------

    Molecular point group: c1
  Charge       = 0
  Multiplicity = 1
  Basis Set: AUG-CC-PVTZ
    Blend: AUG-CC-PVTZ
  Basis Set: (AUG-CC-PVTZ AUX)
    Blend: AUG-CC-PVTZ-JKFIT

    Orbital Energies [Eh]
    ---------------------

    Doubly Occupied:

       1A   -104.868124     2A    -20.535005     3A    -15.613357
       4A    -11.370445     5A    -11.315674     6A    -11.310626
       7A    -11.253487     8A    -11.248026     9A    -11.246652
      10A    -11.239408    11A    -11.234578    12A    -10.594015
      13A     -8.061236    14A     -8.058990    15A     -8.058891
      16A     -1.389559    17A     -1.268552    18A     -1.204516
      19A     -1.129203    20A     -1.039006    21A     -1.007938
      22A     -0.974761    23A     -0.865597    24A     -0.827232
      25A     -0.780660    26A     -0.734012    27A     -0.686262
      28A     -0.680924    29A     -0.635581    30A     -0.632127
      31A     -0.615607    32A     -0.600332    33A     -0.595144
      34A     -0.574735    35A     -0.568413    36A     -0.540833
      37A     -0.537084    38A     -0.516345    39A     -0.482961
      40A     -0.469218    41A     -0.449271    42A     -0.430896
      43A     -0.341971    44A     -0.302582

  @DF-RHF Final Energy:  -896.58257382124623

   => Energetics <=

    Nuclear Repulsion Energy =            655.8122787744899824
    One-Electron Energy =               -2531.0100402446018961
    Two-Electron Energy =                 978.6151876488655716
    Total Energy =                       -896.5825738212462284
  Basis Set: (AUG-CC-PVTZ AUX)
    Blend: AUG-CC-PVTZ-RI
    Molecular point group: c1

    Geometry (in Angstrom), charge = 0, multiplicity = 1:

       Center              X                  Y                   Z               Mass
    ------------   -----------------  -----------------  -----------------  -----------------
         CL           0.987933500833     2.275672319220    -0.006367869940    34.968852682000
         O           -2.590570499167    -1.578855680780    -0.025208869940    15.994914619570
         N           -1.204399499167     0.269125319220    -0.015130869940    14.003074004430
         C            0.073669500833    -0.308769680780    -0.004896869940    12.000000000000
         C            1.258575800833     0.671893619220    -0.000258269940    12.000000000000
         C            0.292455500833    -1.696592680780    -0.000295869940    12.000000000000
         C            2.494012500833     0.031213319220     0.010422130060    12.000000000000
         C            1.591695500833    -2.201411680780     0.010157130060    12.000000000000
         C            2.694924500833    -1.348203680780     0.015379130060    12.000000000000
         C           -2.433752499167    -0.358819680780    -0.016163869940    12.000000000000
         C           -3.598438499167     0.609704319220     0.037538130060    12.000000000000
         H           -0.564222499167    -2.356891680780    -0.005191869940     1.007825032230
         H           -1.216498499167     1.282474319220    -0.011936869940     1.007825032230
         H            3.332982500833     0.721210319220     0.014124130060     1.007825032230
         H            1.735454500833    -3.278823680780     0.013618130060     1.007825032230
         H            3.705744500833    -1.746530680780     0.023318130060     1.007825032230
         H           -3.754740499167     0.943953319220     1.067866130060     1.007825032230
         H           -4.492826499167     0.085984319220    -0.299048869940     1.007825032230
         H           -3.432579499167     1.490254319220    -0.589229869940     1.007825032230

  Basis Set: AUG-CC-PVTZ
    Blend: AUG-CC-PVTZ
  Basis Set: (AUG-CC-PVTZ AUX)
    Blend: AUG-CC-PVTZ-JKFIT
	 Reference Energy          =    -896.5825738212462284 [Eh]
	 Singles Energy            =      -0.0000000000000000 [Eh]
	 Same-Spin Energy          =      -0.5358088475549232 [Eh]
	 Opposite-Spin Energy      =      -1.6234387767758360 [Eh]
	 Correlation Energy        =      -2.1592476243307592 [Eh]
	 Total Energy              =    -898.7418214455769885 [Eh]

	 ================> DF-SCS-MP2 Energies <==================
	-----------------------------------------------------------
	 SCS Same-Spin Scale       =       0.3333333333333333 [-]
	 SCS Opposite-Spin Scale   =       1.2000000000000000 [-]
	 SCS Same-Spin Energy      =      -0.1786029491849744 [Eh]
	 SCS Opposite-Spin Energy  =      -1.9481265321310031 [Eh]
	 SCS Correlation Energy    =      -2.1267294813159774 [Eh]
	 SCS Total Energy          =    -898.7093033025622617 [Eh]
	-----------------------------------------------------------

  Dipole Moment: [D]
     X:     0.4813      Y:     2.4388      Z:     0.0857     Total:     2.4873

*** Psi4 exiting successfully. Buy a developer a beer!
