                               Psi4 1.4a3.dev225

  ==> Input File <==

--------------------------------------------------------------------------
#psi4
#
memory 32 gb

molecule  {
0 1
 Cl        1.0239510     2.3134080    -0.0075990
  O       -2.5545530    -1.5411200    -0.0264400
  N       -1.1683820     0.3068610    -0.0163620
  C        0.1096870    -0.2710340    -0.0061280
  C        1.2343910     0.5769770    -0.0015960
  C        0.3284730    -1.6588570    -0.0015270
  C        2.5300300     0.0689490     0.0091910
  C        1.5811087    -2.1455679     0.0085510
  C        2.7309420    -1.3104680     0.0141480
  C       -2.3977350    -0.3210840    -0.0173950
  C       -3.5624210     0.6474400     0.0363070
  H       -0.5282050    -2.3191560    -0.0064230
  H       -1.1804810     1.3202100    -0.0131680
  H        3.3690000     0.7589460     0.0128930
  H        1.7714720    -3.2410880     0.0123870
  H        3.7417620    -1.7087950     0.0220870
  H       -3.7187230     0.9816890     1.0666350
  H       -4.4568090     0.1237200    -0.3002800
  H       -3.3965620     1.5279900    -0.5904610
units angstrom
no_reorient  #important for SAPT in psi4, default
symmetry c1  #important for SAPT in psi4, default
}

set PROPERTIES_ORIGIN ["COM"]
properties('MP2/aug-cc-pvtz', properties = ['dipole'])
--------------------------------------------------------------------------

    Molecular point group: c1
  Charge       = 0
  Multiplicity = 1
  Basis Set: AUG-CC-PVTZ
    Blend: AUG-CC-PVTZ
  Basis Set: (AUG-CC-PVTZ AUX)
    Blend: AUG-CC-PVTZ-JKFIT

    Orbital Energies [Eh]
    ---------------------

    Doubly Occupied:

       1A   -104.855956     2A    -20.535907     3A    -15.614249
       4A    -11.372224     5A    -11.309564     6A    -11.306738
       7A    -11.256489     8A    -11.248685     9A    -11.247441
      10A    -11.245902    11A    -11.234694    12A    -10.579767
      13A     -8.046629    14A     -8.044886    15A     -8.044782
      16A     -1.391083    17A     -1.271973    18A     -1.182248
      19A     -1.127339    20A     -1.044571    21A     -1.014193
      22A     -0.985000    23A     -0.871097    24A     -0.830340
      25A     -0.791115    26A     -0.734309    27A     -0.688703
      28A     -0.677093    29A     -0.637249    30A     -0.634189
      31A     -0.618900    32A     -0.597831    33A     -0.591247
      34A     -0.575530    35A     -0.570751    36A     -0.544050
      37A     -0.528951    38A     -0.504954    39A     -0.480846
      40A     -0.470893    41A     -0.451444    42A     -0.434662
      43A     -0.351085    44A     -0.315392

  @DF-RHF Final Energy:  -896.60390929342543

   => Energetics <=

    Nuclear Repulsion Energy =            656.9540985384210217
    One-Electron Energy =               -2533.3941120380882239
    Two-Electron Energy =                 979.8361042062417710
    Total Energy =                       -896.6039092934254313
  Basis Set: (AUG-CC-PVTZ AUX)
    Blend: AUG-CC-PVTZ-RI
    Molecular point group: c1

    Geometry (in Angstrom), charge = 0, multiplicity = 1:

       Center              X                  Y                   Z               Mass
    ------------   -----------------  -----------------  -----------------  -----------------
         CL           0.995516080460     2.283804218535    -0.006333679446    34.968852682000
         O           -2.582987919540    -1.570723781465    -0.025174679446    15.994914619570
         N           -1.196816919540     0.277257218535    -0.015096679446    14.003074004430
         C            0.081252080460    -0.300637781465    -0.004862679446    12.000000000000
         C            1.205956080460     0.547373218535    -0.000330679446    12.000000000000
         C            0.300038080460    -1.688460781465    -0.000261679446    12.000000000000
         C            2.501595080460     0.039345218535     0.010456320554    12.000000000000
         C            1.552673780460    -2.175171681465     0.009816320554    12.000000000000
         C            2.702507080460    -1.340071781465     0.015413320554    12.000000000000
         C           -2.426169919540    -0.350687781465    -0.016129679446    12.000000000000
         C           -3.590855919540     0.617836218535     0.037572320554    12.000000000000
         H           -0.556639919540    -2.348759781465    -0.005157679446     1.007825032230
         H           -1.208915919540     1.290606218535    -0.011902679446     1.007825032230
         H            3.340565080460     0.729342218535     0.014158320554     1.007825032230
         H            1.743037080460    -3.270691781465     0.013652320554     1.007825032230
         H            3.713327080460    -1.738398781465     0.023352320554     1.007825032230
         H           -3.747157919540     0.952085218535     1.067900320554     1.007825032230
         H           -4.485243919540     0.094116218535    -0.299014679446     1.007825032230
         H           -3.424996919540     1.498386218535    -0.589195679446     1.007825032230

  Basis Set: AUG-CC-PVTZ
    Blend: AUG-CC-PVTZ
  Basis Set: (AUG-CC-PVTZ AUX)
    Blend: AUG-CC-PVTZ-JKFIT
	 Reference Energy          =    -896.6039092934254313 [Eh]
	 Singles Energy            =      -0.0000000000000000 [Eh]
	 Same-Spin Energy          =      -0.5338955827602730 [Eh]
	 Opposite-Spin Energy      =      -1.6204483071742901 [Eh]
	 Correlation Energy        =      -2.1543438899345633 [Eh]
	 Total Energy              =    -898.7582531833600115 [Eh]

	 ================> DF-SCS-MP2 Energies <==================
	-----------------------------------------------------------
	 SCS Same-Spin Scale       =       0.3333333333333333 [-]
	 SCS Opposite-Spin Scale   =       1.2000000000000000 [-]
	 SCS Same-Spin Energy      =      -0.1779651942534243 [Eh]
	 SCS Opposite-Spin Energy  =      -1.9445379686091480 [Eh]
	 SCS Correlation Energy    =      -2.1225031628625723 [Eh]
	 SCS Total Energy          =    -898.7264124562880170 [Eh]
	-----------------------------------------------------------

  Dipole Moment: [D]
     X:     0.5891      Y:     1.8682      Z:     0.0890     Total:     1.9609

*** Psi4 exiting successfully. Buy a developer a beer!
