                               Psi4 1.4a3.dev225

  ==> Input File <==

--------------------------------------------------------------------------
#psi4
#
memory 32 gb

molecule  {
0 1
 Cl        1.0239510     2.3134080    -0.0075990
  O       -2.5545530    -1.5411200    -0.0264400
  N       -1.1683820     0.3068610    -0.0163620
  C        0.1552449    -0.2916336    -0.0057632
  C        1.2343910     0.5769770    -0.0015960
  C        0.3284730    -1.6588570    -0.0015270
  C        2.5300300     0.0689490     0.0091910
  C        1.6277130    -2.1636760     0.0089260
  C        2.7309420    -1.3104680     0.0141480
  C       -2.3977350    -0.3210840    -0.0173950
  C       -3.5624210     0.6474400     0.0363070
  H       -0.5282050    -2.3191560    -0.0064230
  H       -1.1804810     1.3202100    -0.0131680
  H        3.3690000     0.7589460     0.0128930
  H        1.7714720    -3.2410880     0.0123870
  H        3.7417620    -1.7087950     0.0220870
  H       -3.7187230     0.9816890     1.0666350
  H       -4.4568090     0.1237200    -0.3002800
  H       -3.3965620     1.5279900    -0.5904610
units angstrom
no_reorient  #important for SAPT in psi4, default
symmetry c1  #important for SAPT in psi4, default
}

set PROPERTIES_ORIGIN ["COM"]
properties('MP2/aug-cc-pvtz', properties = ['dipole'])
--------------------------------------------------------------------------

    Molecular point group: c1
  Charge       = 0
  Multiplicity = 1
  Basis Set: AUG-CC-PVTZ
    Blend: AUG-CC-PVTZ
  Basis Set: (AUG-CC-PVTZ AUX)
    Blend: AUG-CC-PVTZ-JKFIT

    Orbital Energies [Eh]
    ---------------------

    Doubly Occupied:

       1A   -104.859192     2A    -20.531082     3A    -15.608782
       4A    -11.367836     5A    -11.308569     6A    -11.305854
       7A    -11.258263     8A    -11.249668     9A    -11.246166
      10A    -11.245688    11A    -11.239142    12A    -10.582877
      13A     -8.049744    14A     -8.047966    15A     -8.047873
      16A     -1.385591    17A     -1.259568    18A     -1.183708
      19A     -1.129420    20A     -1.044106    21A     -1.011148
      22A     -0.989749    23A     -0.868258    24A     -0.831699
      25A     -0.787528    26A     -0.729228    27A     -0.685954
      28A     -0.673703    29A     -0.641558    30A     -0.628938
      31A     -0.622827    32A     -0.597019    33A     -0.590347
      34A     -0.574084    35A     -0.567643    36A     -0.536748
      37A     -0.527468    38A     -0.519498    39A     -0.481704
      40A     -0.472182    41A     -0.445821    42A     -0.431021
      43A     -0.346772    44A     -0.326043

  @DF-RHF Final Energy:  -896.60469752254210

   => Energetics <=

    Nuclear Repulsion Energy =            656.2621946899726026
    One-Electron Energy =               -2532.0577129684056672
    Two-Electron Energy =                 979.1908207558909680
    Total Energy =                       -896.6046975225420965
  Basis Set: (AUG-CC-PVTZ AUX)
    Blend: AUG-CC-PVTZ-RI
    Molecular point group: c1

    Geometry (in Angstrom), charge = 0, multiplicity = 1:

       Center              X                  Y                   Z               Mass
    ------------   -----------------  -----------------  -----------------  -----------------
         CL           0.988973158767     2.286552215545    -0.006386200474    34.968852682000
         O           -2.589530841233    -1.567975784455    -0.025227200474    15.994914619570
         N           -1.203359841233     0.280005215545    -0.015149200474    14.003074004430
         C            0.120267058767    -0.318489384455    -0.004550400474    12.000000000000
         C            1.199413158767     0.550121215545    -0.000383200474    12.000000000000
         C            0.293495158767    -1.685712784455    -0.000314200474    12.000000000000
         C            2.495052158767     0.042093215545     0.010403799526    12.000000000000
         C            1.592735158767    -2.190531784455     0.010138799526    12.000000000000
         C            2.695964158767    -1.337323784455     0.015360799526    12.000000000000
         C           -2.432712841233    -0.347939784455    -0.016182200474    12.000000000000
         C           -3.597398841233     0.620584215545     0.037519799526    12.000000000000
         H           -0.563182841233    -2.346011784455    -0.005210200474     1.007825032230
         H           -1.215458841233     1.293354215545    -0.011955200474     1.007825032230
         H            3.334022158767     0.732090215545     0.014105799526     1.007825032230
         H            1.736494158767    -3.267943784455     0.013599799526     1.007825032230
         H            3.706784158767    -1.735650784455     0.023299799526     1.007825032230
         H           -3.753700841233     0.954833215545     1.067847799526     1.007825032230
         H           -4.491786841233     0.096864215545    -0.299067200474     1.007825032230
         H           -3.431539841233     1.501134215545    -0.589248200474     1.007825032230

  Basis Set: AUG-CC-PVTZ
    Blend: AUG-CC-PVTZ
  Basis Set: (AUG-CC-PVTZ AUX)
    Blend: AUG-CC-PVTZ-JKFIT
	 Reference Energy          =    -896.6046975225420965 [Eh]
	 Singles Energy            =      -0.0000000000000000 [Eh]
	 Same-Spin Energy          =      -0.5335054476755169 [Eh]
	 Opposite-Spin Energy      =      -1.6200097817050576 [Eh]
	 Correlation Energy        =      -2.1535152293805746 [Eh]
	 Total Energy              =    -898.7582127519226560 [Eh]

	 ================> DF-SCS-MP2 Energies <==================
	-----------------------------------------------------------
	 SCS Same-Spin Scale       =       0.3333333333333333 [-]
	 SCS Opposite-Spin Scale   =       1.2000000000000000 [-]
	 SCS Same-Spin Energy      =      -0.1778351492251723 [Eh]
	 SCS Opposite-Spin Energy  =      -1.9440117380460691 [Eh]
	 SCS Correlation Energy    =      -2.1218468872712415 [Eh]
	 SCS Total Energy          =    -898.7265444098133003 [Eh]
	-----------------------------------------------------------

  Dipole Moment: [D]
     X:     0.8894      Y:     1.8355      Z:     0.0901     Total:     2.0416

*** Psi4 exiting successfully. Buy a developer a beer!
