                               Psi4 1.4a3.dev225

  ==> Input File <==

--------------------------------------------------------------------------
#psi4
#
memory 32 gb

molecule  {
0 1
 Cl        1.0239510     2.3134080    -0.0075990
  O       -2.5545530    -1.5411200    -0.0264400
  N       -1.1683820     0.3068610    -0.0163620
  C        0.1096870    -0.2710340    -0.0061280
  C        1.2283755     0.6266135    -0.0017676
  C        0.3284730    -1.6588570    -0.0015270
  C        2.5300300     0.0689490     0.0091910
  C        1.6277130    -2.1636760     0.0089260
  C        2.7309420    -1.3104680     0.0141480
  C       -2.3977350    -0.3210840    -0.0173950
  C       -3.5624210     0.6474400     0.0363070
  H       -0.5282050    -2.3191560    -0.0064230
  H       -1.1804810     1.3202100    -0.0131680
  H        3.3690000     0.7589460     0.0128930
  H        1.7714720    -3.2410880     0.0123870
  H        3.7417620    -1.7087950     0.0220870
  H       -3.7187230     0.9816890     1.0666350
  H       -4.4568090     0.1237200    -0.3002800
  H       -3.3965620     1.5279900    -0.5904610
units angstrom
no_reorient  #important for SAPT in psi4, default
symmetry c1  #important for SAPT in psi4, default
}

set PROPERTIES_ORIGIN ["COM"]
properties('MP2/aug-cc-pvtz', properties = ['dipole'])
--------------------------------------------------------------------------

    Molecular point group: c1
  Charge       = 0
  Multiplicity = 1
  Basis Set: AUG-CC-PVTZ
    Blend: AUG-CC-PVTZ
  Basis Set: (AUG-CC-PVTZ AUX)
    Blend: AUG-CC-PVTZ-JKFIT

    Orbital Energies [Eh]
    ---------------------

    Doubly Occupied:

       1A   -104.861545     2A    -20.534869     3A    -15.612552
       4A    -11.370793     5A    -11.309800     6A    -11.308494
       7A    -11.257941     8A    -11.247933     9A    -11.247701
      10A    -11.242630    11A    -11.238450    12A    -10.586029
      13A     -8.053020    14A     -8.051098    15A     -8.050999
      16A     -1.389870    17A     -1.270557    18A     -1.187014
      19A     -1.128652    20A     -1.042410    21A     -1.006258
      22A     -0.983686    23A     -0.868849    24A     -0.829478
      25A     -0.786558    26A     -0.734481    27A     -0.686942
      28A     -0.676988    29A     -0.634767    30A     -0.632920
      31A     -0.621163    32A     -0.596208    33A     -0.594315
      34A     -0.574354    35A     -0.569703    36A     -0.538505
      37A     -0.530836    38A     -0.517409    39A     -0.481855
      40A     -0.471932    41A     -0.450071    42A     -0.433290
      43A     -0.340464    44A     -0.314886

  @DF-RHF Final Energy:  -896.60287513882656

   => Energetics <=

    Nuclear Repulsion Energy =            656.2401816379058346
    One-Electron Energy =               -2531.9495585521490284
    Two-Electron Energy =                 979.1065017754166320
    Total Energy =                       -896.6028751388265619
  Basis Set: (AUG-CC-PVTZ AUX)
    Blend: AUG-CC-PVTZ-RI
    Molecular point group: c1

    Geometry (in Angstrom), charge = 0, multiplicity = 1:

       Center              X                  Y                   Z               Mass
    ------------   -----------------  -----------------  -----------------  -----------------
         CL           0.992634537484     2.281565905514    -0.006348119534    34.968852682000
         O           -2.585869462516    -1.572962094486    -0.025189119534    15.994914619570
         N           -1.199698462516     0.275018905514    -0.015111119534    14.003074004430
         C            0.078370537484    -0.302876094486    -0.004877119534    12.000000000000
         C            1.197059037484     0.594771405514    -0.000516719534    12.000000000000
         C            0.297156537484    -1.690699094486    -0.000276119534    12.000000000000
         C            2.498713537484     0.037106905514     0.010441880466    12.000000000000
         C            1.596396537484    -2.195518094486     0.010176880466    12.000000000000
         C            2.699625537484    -1.342310094486     0.015398880466    12.000000000000
         C           -2.429051462516    -0.352926094486    -0.016144119534    12.000000000000
         C           -3.593737462516     0.615597905514     0.037557880466    12.000000000000
         H           -0.559521462516    -2.350998094486    -0.005172119534     1.007825032230
         H           -1.211797462516     1.288367905514    -0.011917119534     1.007825032230
         H            3.337683537484     0.727103905514     0.014143880466     1.007825032230
         H            1.740155537484    -3.272930094486     0.013637880466     1.007825032230
         H            3.710445537484    -1.740637094486     0.023337880466     1.007825032230
         H           -3.750039462516     0.949846905514     1.067885880466     1.007825032230
         H           -4.488125462516     0.091877905514    -0.299029119534     1.007825032230
         H           -3.427878462516     1.496147905514    -0.589210119534     1.007825032230

  Basis Set: AUG-CC-PVTZ
    Blend: AUG-CC-PVTZ
  Basis Set: (AUG-CC-PVTZ AUX)
    Blend: AUG-CC-PVTZ-JKFIT
	 Reference Energy          =    -896.6028751388265619 [Eh]
	 Singles Energy            =      -0.0000000000000000 [Eh]
	 Same-Spin Energy          =      -0.5345676765504754 [Eh]
	 Opposite-Spin Energy      =      -1.6213189186230348 [Eh]
	 Correlation Energy        =      -2.1558865951735102 [Eh]
	 Total Energy              =    -898.7587617340000179 [Eh]

	 ================> DF-SCS-MP2 Energies <==================
	-----------------------------------------------------------
	 SCS Same-Spin Scale       =       0.3333333333333333 [-]
	 SCS Opposite-Spin Scale   =       1.2000000000000000 [-]
	 SCS Same-Spin Energy      =      -0.1781892255168251 [Eh]
	 SCS Opposite-Spin Energy  =      -1.9455827023476417 [Eh]
	 SCS Correlation Energy    =      -2.1237719278644667 [Eh]
	 SCS Total Energy          =    -898.7266470666910436 [Eh]
	-----------------------------------------------------------

  Dipole Moment: [D]
     X:     0.5760      Y:     2.0841      Z:     0.0878     Total:     2.1640

*** Psi4 exiting successfully. Buy a developer a beer!
