                               Psi4 1.4a3.dev225

  ==> Input File <==

--------------------------------------------------------------------------
#psi4
#
memory 32 gb

molecule  {
0 1
 Cl        1.0239510     2.3134080    -0.0075990
  O       -2.5545530    -1.5411200    -0.0264400
  N       -1.1683820     0.3068610    -0.0163620
  C        0.1096870    -0.2710340    -0.0061280
  C        1.2343910     0.5769770    -0.0015960
  C        0.3284730    -1.6588570    -0.0015270
  C        2.5300300     0.0689490     0.0091910
  C        1.6277130    -2.1636760     0.0089260
  C        2.7309420    -1.3104680     0.0141480
  C       -2.3977350    -0.3210840    -0.0173950
  C       -3.5624210     0.6474400     0.0363070
  H       -0.5282050    -2.3191560    -0.0064230
  H       -1.1804810     1.3202100    -0.0131680
  H        3.3690000     0.7589460     0.0128930
  H        1.7714720    -3.2410880     0.0123870
  H        3.7417620    -1.7087950     0.0220870
  H       -3.7187230     0.9816890     1.0666350
  H       -4.2926599     0.2198396    -0.2385054
  H       -3.3965620     1.5279900    -0.5904610
units angstrom
no_reorient  #important for SAPT in psi4, default
symmetry c1  #important for SAPT in psi4, default
}

set PROPERTIES_ORIGIN ["COM"]
properties('MP2/aug-cc-pvtz', properties = ['dipole'])
--------------------------------------------------------------------------

    Molecular point group: c1
  Charge       = 0
  Multiplicity = 1
  Basis Set: AUG-CC-PVTZ
    Blend: AUG-CC-PVTZ
  Basis Set: (AUG-CC-PVTZ AUX)
    Blend: AUG-CC-PVTZ-JKFIT

    Orbital Energies [Eh]
    ---------------------

    Doubly Occupied:

       1A   -104.856211     2A    -20.536063     3A    -15.612706
       4A    -11.371017     5A    -11.308652     6A    -11.307517
       7A    -11.256794     8A    -11.248075     9A    -11.243822
      10A    -11.239685    11A    -11.225653    12A    -10.580026
      13A     -8.046887    14A     -8.045139    15A     -8.045040
      16A     -1.390991    17A     -1.270826    18A     -1.181573
      19A     -1.124938    20A     -1.054472    21A     -1.014300
      22A     -0.995464    23A     -0.874982    24A     -0.831780
      25A     -0.791633    26A     -0.738426    27A     -0.688496
      28A     -0.678124    29A     -0.639731    30A     -0.636008
      31A     -0.626391    32A     -0.601849    33A     -0.596915
      34A     -0.590770    35A     -0.574179    36A     -0.538854
      37A     -0.529384    38A     -0.513682    39A     -0.479625
      40A     -0.470692    41A     -0.451492    42A     -0.434243
      43A     -0.344402    44A     -0.318523

  @DF-RHF Final Energy:  -896.57201418234115

   => Energetics <=

    Nuclear Repulsion Energy =            657.3339374197997813
    One-Electron Energy =               -2533.9998402563146556
    Two-Electron Energy =                 980.0938886541736110
    Total Energy =                       -896.5720141823411495
  Basis Set: (AUG-CC-PVTZ AUX)
    Blend: AUG-CC-PVTZ-RI
    Molecular point group: c1

    Geometry (in Angstrom), charge = 0, multiplicity = 1:

       Center              X                  Y                   Z               Mass
    ------------   -----------------  -----------------  -----------------  -----------------
         CL           0.991228749417     2.284516671111    -0.006728628324    34.968852682000
         O           -2.587275250583    -1.570011328889    -0.025569628324    15.994914619570
         N           -1.201104250583     0.277969671111    -0.015491628324    14.003074004430
         C            0.076964749417    -0.299925328889    -0.005257628324    12.000000000000
         C            1.201668749417     0.548085671111    -0.000725628324    12.000000000000
         C            0.295750749417    -1.687748328889    -0.000656628324    12.000000000000
         C            2.497307749417     0.040057671111     0.010061371676    12.000000000000
         C            1.594990749417    -2.192567328889     0.009796371676    12.000000000000
         C            2.698219749417    -1.339359328889     0.015018371676    12.000000000000
         C           -2.430457250583    -0.349975328889    -0.016524628324    12.000000000000
         C           -3.595143250583     0.618548671111     0.037177371676    12.000000000000
         H           -0.560927250583    -2.348047328889    -0.005552628324     1.007825032230
         H           -1.213203250583     1.291318671111    -0.012297628324     1.007825032230
         H            3.336277749417     0.730054671111     0.013763371676     1.007825032230
         H            1.738749749417    -3.269979328889     0.013257371676     1.007825032230
         H            3.709039749417    -1.737686328889     0.022957371676     1.007825032230
         H           -3.751445250583     0.952797671111     1.067505371676     1.007825032230
         H           -4.325382150583     0.190948271111    -0.237635028324     1.007825032230
         H           -3.429284250583     1.499098671111    -0.589590628324     1.007825032230

  Basis Set: AUG-CC-PVTZ
    Blend: AUG-CC-PVTZ
  Basis Set: (AUG-CC-PVTZ AUX)
    Blend: AUG-CC-PVTZ-JKFIT
	 Reference Energy          =    -896.5720141823411495 [Eh]
	 Singles Energy            =      -0.0000000000000000 [Eh]
	 Same-Spin Energy          =      -0.5340398803290098 [Eh]
	 Opposite-Spin Energy      =      -1.6198766196340930 [Eh]
	 Correlation Energy        =      -2.1539164999631026 [Eh]
	 Total Energy              =    -898.7259306823042380 [Eh]

	 ================> DF-SCS-MP2 Energies <==================
	-----------------------------------------------------------
	 SCS Same-Spin Scale       =       0.3333333333333333 [-]
	 SCS Opposite-Spin Scale   =       1.2000000000000000 [-]
	 SCS Same-Spin Energy      =      -0.1780132934430033 [Eh]
	 SCS Opposite-Spin Energy  =      -1.9438519435609116 [Eh]
	 SCS Correlation Energy    =      -2.1218652370039148 [Eh]
	 SCS Total Energy          =    -898.6938794193450804 [Eh]
	-----------------------------------------------------------

  Dipole Moment: [D]
     X:     0.5651      Y:     1.8817      Z:     0.0886     Total:     1.9667

*** Psi4 exiting successfully. Buy a developer a beer!
