                               Psi4 1.4a3.dev225

  ==> Input File <==

--------------------------------------------------------------------------
#psi4
#
memory 32 gb

molecule  {
0 1
 Cl        1.0239510     2.3134080    -0.0075990
  O       -2.5545530    -1.5411200    -0.0264400
  N       -1.1683820     0.3068610    -0.0163620
  C        0.1096870    -0.2710340    -0.0061280
  C        1.2343910     0.5769770    -0.0015960
  C        0.3253585    -1.6391011    -0.0015925
  C        2.5300300     0.0689490     0.0091910
  C        1.6277130    -2.1636760     0.0089260
  C        2.7309420    -1.3104680     0.0141480
  C       -2.3977350    -0.3210840    -0.0173950
  C       -3.5624210     0.6474400     0.0363070
  H       -0.5282050    -2.3191560    -0.0064230
  H       -1.1804810     1.3202100    -0.0131680
  H        3.3690000     0.7589460     0.0128930
  H        1.7714720    -3.2410880     0.0123870
  H        3.7417620    -1.7087950     0.0220870
  H       -3.7187230     0.9816890     1.0666350
  H       -4.4568090     0.1237200    -0.3002800
  H       -3.3965620     1.5279900    -0.5904610
units angstrom
no_reorient  #important for SAPT in psi4, default
symmetry c1  #important for SAPT in psi4, default
}

set PROPERTIES_ORIGIN ["COM"]
properties('MP2/aug-cc-pvtz', properties = ['dipole'])
--------------------------------------------------------------------------

    Molecular point group: c1
  Charge       = 0
  Multiplicity = 1
  Basis Set: AUG-CC-PVTZ
    Blend: AUG-CC-PVTZ
  Basis Set: (AUG-CC-PVTZ AUX)
    Blend: AUG-CC-PVTZ-JKFIT

    Orbital Energies [Eh]
    ---------------------

    Doubly Occupied:

       1A   -104.856610     2A    -20.535024     3A    -15.612840
       4A    -11.371298     5A    -11.308975     6A    -11.306023
       7A    -11.256963     8A    -11.249405     9A    -11.248069
      10A    -11.244193    11A    -11.239130    12A    -10.580424
      13A     -8.047284    14A     -8.045536    15A     -8.045437
      16A     -1.390180    17A     -1.271460    18A     -1.182120
      19A     -1.125400    20A     -1.046027    21A     -1.007726
      22A     -0.988238    23A     -0.870899    24A     -0.831875
      25A     -0.789128    26A     -0.736476    27A     -0.687962
      28A     -0.674908    29A     -0.637452    30A     -0.633568
      31A     -0.621871    32A     -0.597170    33A     -0.589860
      34A     -0.575281    35A     -0.570175    36A     -0.536488
      37A     -0.528741    38A     -0.515697    39A     -0.479991
      40A     -0.470767    41A     -0.451023    42A     -0.433464
      43A     -0.343599    44A     -0.320552

  @DF-RHF Final Energy:  -896.60655358787972

   => Energetics <=

    Nuclear Repulsion Energy =            656.5854934554064357
    One-Electron Energy =               -2532.6734729931595211
    Two-Electron Energy =                 979.4814259498734828
    Total Energy =                       -896.6065535878797164
  Basis Set: (AUG-CC-PVTZ AUX)
    Blend: AUG-CC-PVTZ-RI
    Molecular point group: c1

    Geometry (in Angstrom), charge = 0, multiplicity = 1:

       Center              X                  Y                   Z               Mass
    ------------   -----------------  -----------------  -----------------  -----------------
         CL           0.992428585198     2.283687235364    -0.006355651950    34.968852682000
         O           -2.586075414802    -1.570840764636    -0.025196651950    15.994914619570
         N           -1.199904414802     0.277140235364    -0.015118651950    14.003074004430
         C            0.078164585198    -0.300754764636    -0.004884651950    12.000000000000
         C            1.202868585198     0.547256235364    -0.000352651950    12.000000000000
         C            0.293836085198    -1.668821864636    -0.000349151950    12.000000000000
         C            2.498507585198     0.039228235364     0.010434348050    12.000000000000
         C            1.596190585198    -2.193396764636     0.010169348050    12.000000000000
         C            2.699419585198    -1.340188764636     0.015391348050    12.000000000000
         C           -2.429257414802    -0.350804764636    -0.016151651950    12.000000000000
         C           -3.593943414802     0.617719235364     0.037550348050    12.000000000000
         H           -0.559727414802    -2.348876764636    -0.005179651950     1.007825032230
         H           -1.212003414802     1.290489235364    -0.011924651950     1.007825032230
         H            3.337477585198     0.729225235364     0.014136348050     1.007825032230
         H            1.739949585198    -3.270808764636     0.013630348050     1.007825032230
         H            3.710239585198    -1.738515764636     0.023330348050     1.007825032230
         H           -3.750245414802     0.951968235364     1.067878348050     1.007825032230
         H           -4.488331414802     0.093999235364    -0.299036651950     1.007825032230
         H           -3.428084414802     1.498269235364    -0.589217651950     1.007825032230

  Basis Set: AUG-CC-PVTZ
    Blend: AUG-CC-PVTZ
  Basis Set: (AUG-CC-PVTZ AUX)
    Blend: AUG-CC-PVTZ-JKFIT
	 Reference Energy          =    -896.6065535878797164 [Eh]
	 Singles Energy            =      -0.0000000000000000 [Eh]
	 Same-Spin Energy          =      -0.5339721018867402 [Eh]
	 Opposite-Spin Energy      =      -1.6204808343372714 [Eh]
	 Correlation Energy        =      -2.1544529362240117 [Eh]
	 Total Energy              =    -898.7610065241037773 [Eh]

	 ================> DF-SCS-MP2 Energies <==================
	-----------------------------------------------------------
	 SCS Same-Spin Scale       =       0.3333333333333333 [-]
	 SCS Opposite-Spin Scale   =       1.2000000000000000 [-]
	 SCS Same-Spin Energy      =      -0.1779907006289134 [Eh]
	 SCS Opposite-Spin Energy  =      -1.9445770012047257 [Eh]
	 SCS Correlation Energy    =      -2.1225677018336389 [Eh]
	 SCS Total Energy          =    -898.7291212897133619 [Eh]
	-----------------------------------------------------------

  Dipole Moment: [D]
     X:     0.6105      Y:     1.8595      Z:     0.0890     Total:     1.9592

*** Psi4 exiting successfully. Buy a developer a beer!
