                               Psi4 1.4a3.dev225

  ==> Input File <==

--------------------------------------------------------------------------
#psi4
#
memory 32 gb

molecule  {
0 1
 Cl        1.0239510     2.3134080    -0.0075990
  O       -2.5545530    -1.5411200    -0.0264400
  N       -1.1683820     0.3068610    -0.0163620
  C        0.1279102    -0.2792738    -0.0059821
  C        1.2343910     0.5769770    -0.0015960
  C        0.3284730    -1.6588570    -0.0015270
  C        2.5300300     0.0689490     0.0091910
  C        1.6277130    -2.1636760     0.0089260
  C        2.7309420    -1.3104680     0.0141480
  C       -2.3977350    -0.3210840    -0.0173950
  C       -3.5624210     0.6474400     0.0363070
  H       -0.5282050    -2.3191560    -0.0064230
  H       -1.1804810     1.3202100    -0.0131680
  H        3.3690000     0.7589460     0.0128930
  H        1.7714720    -3.2410880     0.0123870
  H        3.7417620    -1.7087950     0.0220870
  H       -3.7187230     0.9816890     1.0666350
  H       -4.4568090     0.1237200    -0.3002800
  H       -3.3965620     1.5279900    -0.5904610
units angstrom
no_reorient  #important for SAPT in psi4, default
symmetry c1  #important for SAPT in psi4, default
}

set PROPERTIES_ORIGIN ["COM"]
properties('MP2/aug-cc-pvtz', properties = ['dipole'])
--------------------------------------------------------------------------

    Molecular point group: c1
  Charge       = 0
  Multiplicity = 1
  Basis Set: AUG-CC-PVTZ
    Blend: AUG-CC-PVTZ
  Basis Set: (AUG-CC-PVTZ AUX)
    Blend: AUG-CC-PVTZ-JKFIT

    Orbital Energies [Eh]
    ---------------------

    Doubly Occupied:

       1A   -104.857571     2A    -20.533708     3A    -15.611660
       4A    -11.370131     5A    -11.308710     6A    -11.307139
       7A    -11.257506     8A    -11.248820     9A    -11.247269
      10A    -11.244956    11A    -11.239621    12A    -10.581335
      13A     -8.048198    14A     -8.046438    15A     -8.046341
      16A     -1.388520    17A     -1.266282    18A     -1.182705
      19A     -1.126857    20A     -1.044431    21A     -1.009771
      22A     -0.988578    23A     -0.869961    24A     -0.831034
      25A     -0.789025    26A     -0.733137    27A     -0.687334
      28A     -0.675480    29A     -0.638381    30A     -0.631729
      31A     -0.622254    32A     -0.596694    33A     -0.591225
      34A     -0.574340    35A     -0.569265    36A     -0.537892
      37A     -0.528393    38A     -0.516229    39A     -0.480426
      40A     -0.471474    41A     -0.449300    42A     -0.433119
      43A     -0.345459    44A     -0.321808

  @DF-RHF Final Energy:  -896.60679301347022

   => Energetics <=

    Nuclear Repulsion Energy =            656.2560545765834377
    One-Electron Energy =               -2532.0246818136579350
    Two-Electron Energy =                 979.1618342236042736
    Total Energy =                       -896.6067930134702237
  Basis Set: (AUG-CC-PVTZ AUX)
    Blend: AUG-CC-PVTZ-RI
    Molecular point group: c1

    Geometry (in Angstrom), charge = 0, multiplicity = 1:

       Center              X                  Y                   Z               Mass
    ------------   -----------------  -----------------  -----------------  -----------------
         CL           0.990913746140     2.285674749474    -0.006370659986    34.968852682000
         O           -2.587590253860    -1.568853250526    -0.025211659986    15.994914619570
         N           -1.201419253860     0.279127749474    -0.015133659986    14.003074004430
         C            0.094872946140    -0.307007050526    -0.004753759986    12.000000000000
         C            1.201353746140     0.549243749474    -0.000367659986    12.000000000000
         C            0.295435746140    -1.686590250526    -0.000298659986    12.000000000000
         C            2.496992746140     0.041215749474     0.010419340014    12.000000000000
         C            1.594675746140    -2.191409250526     0.010154340014    12.000000000000
         C            2.697904746140    -1.338201250526     0.015376340014    12.000000000000
         C           -2.430772253860    -0.348817250526    -0.016166659986    12.000000000000
         C           -3.595458253860     0.619706749474     0.037535340014    12.000000000000
         H           -0.561242253860    -2.346889250526    -0.005194659986     1.007825032230
         H           -1.213518253860     1.292476749474    -0.011939659986     1.007825032230
         H            3.335962746140     0.731212749474     0.014121340014     1.007825032230
         H            1.738434746140    -3.268821250526     0.013615340014     1.007825032230
         H            3.708724746140    -1.736528250526     0.023315340014     1.007825032230
         H           -3.751760253860     0.953955749474     1.067863340014     1.007825032230
         H           -4.489846253860     0.095986749474    -0.299051659986     1.007825032230
         H           -3.429599253860     1.500256749474    -0.589232659986     1.007825032230

  Basis Set: AUG-CC-PVTZ
    Blend: AUG-CC-PVTZ
  Basis Set: (AUG-CC-PVTZ AUX)
    Blend: AUG-CC-PVTZ-JKFIT
	 Reference Energy          =    -896.6067930134702237 [Eh]
	 Singles Energy            =      -0.0000000000000000 [Eh]
	 Same-Spin Energy          =      -0.5337483324234695 [Eh]
	 Opposite-Spin Energy      =      -1.6202285311722153 [Eh]
	 Correlation Energy        =      -2.1539768635956849 [Eh]
	 Total Energy              =    -898.7607698770658544 [Eh]

	 ================> DF-SCS-MP2 Energies <==================
	-----------------------------------------------------------
	 SCS Same-Spin Scale       =       0.3333333333333333 [-]
	 SCS Opposite-Spin Scale   =       1.2000000000000000 [-]
	 SCS Same-Spin Energy      =      -0.1779161108078232 [Eh]
	 SCS Opposite-Spin Energy  =      -1.9442742374066584 [Eh]
	 SCS Correlation Energy    =      -2.1221903482144815 [Eh]
	 SCS Total Energy          =    -898.7289833616847545 [Eh]
	-----------------------------------------------------------

  Dipole Moment: [D]
     X:     0.7123      Y:     1.8530      Z:     0.0894     Total:     1.9872

*** Psi4 exiting successfully. Buy a developer a beer!
