                               Psi4 1.4a3.dev225

  ==> Input File <==

--------------------------------------------------------------------------
#psi4
#
memory 32 gb

molecule  {
0 1
 Cl        1.0239510     2.3134080    -0.0075990
  O       -2.5545530    -1.5411200    -0.0264400
  N       -1.1683820     0.3068610    -0.0163620
  C        0.1096870    -0.2710340    -0.0061280
  C        1.2343910     0.5769770    -0.0015960
  C        0.3284730    -1.6588570    -0.0015270
  C        2.5300300     0.0689490     0.0091910
  C        1.5708862    -2.0846398     0.0083283
  C        2.7309420    -1.3104680     0.0141480
  C       -2.3977350    -0.3210840    -0.0173950
  C       -3.5624210     0.6474400     0.0363070
  H       -0.5282050    -2.3191560    -0.0064230
  H       -1.1804810     1.3202100    -0.0131680
  H        3.3690000     0.7589460     0.0128930
  H        1.7714720    -3.2410880     0.0123870
  H        3.7417620    -1.7087950     0.0220870
  H       -3.7187230     0.9816890     1.0666350
  H       -4.4568090     0.1237200    -0.3002800
  H       -3.3965620     1.5279900    -0.5904610
units angstrom
no_reorient  #important for SAPT in psi4, default
symmetry c1  #important for SAPT in psi4, default
}

set PROPERTIES_ORIGIN ["COM"]
properties('MP2/aug-cc-pvtz', properties = ['dipole'])
--------------------------------------------------------------------------

    Molecular point group: c1
  Charge       = 0
  Multiplicity = 1
  Basis Set: AUG-CC-PVTZ
    Blend: AUG-CC-PVTZ
  Basis Set: (AUG-CC-PVTZ AUX)
    Blend: AUG-CC-PVTZ-JKFIT

    Orbital Energies [Eh]
    ---------------------

    Doubly Occupied:

       1A   -104.855576     2A    -20.536654     3A    -15.614598
       4A    -11.372848     5A    -11.309931     6A    -11.305520
       7A    -11.256782     8A    -11.249073     9A    -11.245875
      10A    -11.243248    11A    -11.231107    12A    -10.579380
      13A     -8.046245    14A     -8.044503    15A     -8.044394
      16A     -1.391764    17A     -1.272745    18A     -1.184710
      19A     -1.132238    20A     -1.046583    21A     -1.016506
      22A     -0.985352    23A     -0.873782    24A     -0.828344
      25A     -0.792797    26A     -0.729964    27A     -0.690342
      28A     -0.680515    29A     -0.639542    30A     -0.634730
      31A     -0.617719    32A     -0.597770    33A     -0.584982
      34A     -0.576818    35A     -0.571919    36A     -0.550541
      37A     -0.529711    38A     -0.491412    39A     -0.483520
      40A     -0.470742    41A     -0.453564    42A     -0.435674
      43A     -0.353994    44A     -0.316540

  @DF-RHF Final Energy:  -896.59496895895495

   => Energetics <=

    Nuclear Repulsion Energy =            658.2702994142822490
    One-Electron Energy =               -2535.9894272238716439
    Two-Electron Energy =                 981.1241588506343305
    Total Energy =                       -896.5949689589549507
  Basis Set: (AUG-CC-PVTZ AUX)
    Blend: AUG-CC-PVTZ-RI
    Molecular point group: c1

    Geometry (in Angstrom), charge = 0, multiplicity = 1:

       Center              X                  Y                   Z               Mass
    ------------   -----------------  -----------------  -----------------  -----------------
         CL           0.996241812018     2.279478716461    -0.006317869183    34.968852682000
         O           -2.582262187982    -1.575049283539    -0.025158869183    15.994914619570
         N           -1.196091187982     0.272931716461    -0.015080869183    14.003074004430
         C            0.081977812018    -0.304963283539    -0.004846869183    12.000000000000
         C            1.206681812018     0.543047716461    -0.000314869183    12.000000000000
         C            0.300763812018    -1.692786283539    -0.000245869183    12.000000000000
         C            2.502320812018     0.035019716461     0.010472130817    12.000000000000
         C            1.543177012018    -2.118569083539     0.009609430817    12.000000000000
         C            2.703232812018    -1.344397283539     0.015429130817    12.000000000000
         C           -2.425444187982    -0.355013283539    -0.016113869183    12.000000000000
         C           -3.590130187982     0.613510716461     0.037588130817    12.000000000000
         H           -0.555914187982    -2.353085283539    -0.005141869183     1.007825032230
         H           -1.208190187982     1.286280716461    -0.011886869183     1.007825032230
         H            3.341290812018     0.725016716461     0.014174130817     1.007825032230
         H            1.743762812018    -3.275017283539     0.013668130817     1.007825032230
         H            3.714052812018    -1.742724283539     0.023368130817     1.007825032230
         H           -3.746432187982     0.947759716461     1.067916130817     1.007825032230
         H           -4.484518187982     0.089790716461    -0.298998869183     1.007825032230
         H           -3.424271187982     1.494060716461    -0.589179869183     1.007825032230

  Basis Set: AUG-CC-PVTZ
    Blend: AUG-CC-PVTZ
  Basis Set: (AUG-CC-PVTZ AUX)
    Blend: AUG-CC-PVTZ-JKFIT
	 Reference Energy          =    -896.5949689589549507 [Eh]
	 Singles Energy            =      -0.0000000000000000 [Eh]
	 Same-Spin Energy          =      -0.5340731419116397 [Eh]
	 Opposite-Spin Energy      =      -1.6205985425553799 [Eh]
	 Correlation Energy        =      -2.1546716844670195 [Eh]
	 Total Energy              =    -898.7496406434220262 [Eh]

	 ================> DF-SCS-MP2 Energies <==================
	-----------------------------------------------------------
	 SCS Same-Spin Scale       =       0.3333333333333333 [-]
	 SCS Opposite-Spin Scale   =       1.2000000000000000 [-]
	 SCS Same-Spin Energy      =      -0.1780243806372132 [Eh]
	 SCS Opposite-Spin Energy  =      -1.9447182510664558 [Eh]
	 SCS Correlation Energy    =      -2.1227426317036691 [Eh]
	 SCS Total Energy          =    -898.7177115906586096 [Eh]
	-----------------------------------------------------------

  Dipole Moment: [D]
     X:     0.5747      Y:     1.9197      Z:     0.0891     Total:     2.0059

*** Psi4 exiting successfully. Buy a developer a beer!
