                               Psi4 1.4a3.dev225

  ==> Input File <==

--------------------------------------------------------------------------
#psi4
#
memory 32 gb

molecule  {
0 1
 Cl        1.0239510     2.3134080    -0.0075990
  O       -2.5545530    -1.5411200    -0.0264400
  N       -1.1683820     0.3068610    -0.0163620
  C        0.1096870    -0.2710340    -0.0061280
  C        1.2343910     0.5769770    -0.0015960
  C        0.3362591    -1.7082468    -0.0013633
  C        2.5300300     0.0689490     0.0091910
  C        1.6277130    -2.1636760     0.0089260
  C        2.7309420    -1.3104680     0.0141480
  C       -2.3977350    -0.3210840    -0.0173950
  C       -3.5624210     0.6474400     0.0363070
  H       -0.5282050    -2.3191560    -0.0064230
  H       -1.1804810     1.3202100    -0.0131680
  H        3.3690000     0.7589460     0.0128930
  H        1.7714720    -3.2410880     0.0123870
  H        3.7417620    -1.7087950     0.0220870
  H       -3.7187230     0.9816890     1.0666350
  H       -4.4568090     0.1237200    -0.3002800
  H       -3.3965620     1.5279900    -0.5904610
units angstrom
no_reorient  #important for SAPT in psi4, default
symmetry c1  #important for SAPT in psi4, default
}

set PROPERTIES_ORIGIN ["COM"]
properties('MP2/aug-cc-pvtz', properties = ['dipole'])
--------------------------------------------------------------------------

    Molecular point group: c1
  Charge       = 0
  Multiplicity = 1
  Basis Set: AUG-CC-PVTZ
    Blend: AUG-CC-PVTZ
  Basis Set: (AUG-CC-PVTZ AUX)
    Blend: AUG-CC-PVTZ-JKFIT

    Orbital Energies [Eh]
    ---------------------

    Doubly Occupied:

       1A   -104.856123     2A    -20.536742     3A    -15.615199
       4A    -11.372635     5A    -11.313635     6A    -11.307288
       7A    -11.257240     8A    -11.249005     9A    -11.245671
      10A    -11.243723    11A    -11.241699    12A    -10.579940
      13A     -8.046802    14A     -8.045057    15A     -8.044953
      16A     -1.391573    17A     -1.271062    18A     -1.181290
      19A     -1.124829    20A     -1.042525    21A     -1.012216
      22A     -0.985548    23A     -0.873143    24A     -0.827622
      25A     -0.791535    26A     -0.734706    27A     -0.689665
      28A     -0.680234    29A     -0.634977    30A     -0.634084
      31A     -0.620861    32A     -0.597526    33A     -0.592912
      34A     -0.573772    35A     -0.571010    36A     -0.543117
      37A     -0.529173    38A     -0.507881    39A     -0.479201
      40A     -0.471178    41A     -0.452828    42A     -0.436719
      43A     -0.347762    44A     -0.314629

  @DF-RHF Final Energy:  -896.60383095336340

   => Energetics <=

    Nuclear Repulsion Energy =            655.4732926308430478
    One-Electron Energy =               -2530.4156704581432678
    Two-Electron Energy =                 978.3385468739369344
    Total Energy =                       -896.6038309533633992
  Basis Set: (AUG-CC-PVTZ AUX)
    Blend: AUG-CC-PVTZ-RI
    Molecular point group: c1

    Geometry (in Angstrom), charge = 0, multiplicity = 1:

       Center              X                  Y                   Z               Mass
    ------------   -----------------  -----------------  -----------------  -----------------
         CL           0.991654712914     2.288596134029    -0.006371923671    34.968852682000
         O           -2.586849287086    -1.565931865971    -0.025212923671    15.994914619570
         N           -1.200678287086     0.282049134029    -0.015134923671    14.003074004430
         C            0.077390712914    -0.295845865971    -0.004900923671    12.000000000000
         C            1.202094712914     0.552165134029    -0.000368923671    12.000000000000
         C            0.303962812914    -1.733058665971    -0.000136223671    12.000000000000
         C            2.497733712914     0.044137134029     0.010418076329    12.000000000000
         C            1.595416712914    -2.188487865971     0.010153076329    12.000000000000
         C            2.698645712914    -1.335279865971     0.015375076329    12.000000000000
         C           -2.430031287086    -0.345895865971    -0.016167923671    12.000000000000
         C           -3.594717287086     0.622628134029     0.037534076329    12.000000000000
         H           -0.560501287086    -2.343967865971    -0.005195923671     1.007825032230
         H           -1.212777287086     1.295398134029    -0.011940923671     1.007825032230
         H            3.336703712914     0.734134134029     0.014120076329     1.007825032230
         H            1.739175712914    -3.265899865971     0.013614076329     1.007825032230
         H            3.709465712914    -1.733606865971     0.023314076329     1.007825032230
         H           -3.751019287086     0.956877134029     1.067862076329     1.007825032230
         H           -4.489105287086     0.098908134029    -0.299052923671     1.007825032230
         H           -3.428858287086     1.503178134029    -0.589233923671     1.007825032230

  Basis Set: AUG-CC-PVTZ
    Blend: AUG-CC-PVTZ
  Basis Set: (AUG-CC-PVTZ AUX)
    Blend: AUG-CC-PVTZ-JKFIT
	 Reference Energy          =    -896.6038309533633992 [Eh]
	 Singles Energy            =      -0.0000000000000000 [Eh]
	 Same-Spin Energy          =      -0.5338667644800885 [Eh]
	 Opposite-Spin Energy      =      -1.6205836321925342 [Eh]
	 Correlation Energy        =      -2.1544503966726225 [Eh]
	 Total Energy              =    -898.7582813500359862 [Eh]

	 ================> DF-SCS-MP2 Energies <==================
	-----------------------------------------------------------
	 SCS Same-Spin Scale       =       0.3333333333333333 [-]
	 SCS Opposite-Spin Scale   =       1.2000000000000000 [-]
	 SCS Same-Spin Energy      =      -0.1779555881600295 [Eh]
	 SCS Opposite-Spin Energy  =      -1.9447003586310410 [Eh]
	 SCS Correlation Energy    =      -2.1226559467910704 [Eh]
	 SCS Total Energy          =    -898.7264869001544412 [Eh]
	-----------------------------------------------------------

  Dipole Moment: [D]
     X:     0.5518      Y:     1.8743      Z:     0.0889     Total:     1.9558

*** Psi4 exiting successfully. Buy a developer a beer!
