                               Psi4 1.4a3.dev225

  ==> Input File <==

--------------------------------------------------------------------------
#psi4
#
memory 32 gb

molecule  {
0 1
 Cl        1.0239510     2.3134080    -0.0075990
  O       -2.5545530    -1.5411200    -0.0264400
  N       -1.1683820     0.3068610    -0.0163620
  C        0.1096870    -0.2710340    -0.0061280
  C        1.2343910     0.5769770    -0.0015960
  C        0.3284730    -1.6588570    -0.0015270
  C        2.5300300     0.0689490     0.0091910
  C        1.6445397    -2.1180243     0.0089565
  C        2.7309420    -1.3104680     0.0141480
  C       -2.3977350    -0.3210840    -0.0173950
  C       -3.5624210     0.6474400     0.0363070
  H       -0.5282050    -2.3191560    -0.0064230
  H       -1.1804810     1.3202100    -0.0131680
  H        3.3690000     0.7589460     0.0128930
  H        1.7714720    -3.2410880     0.0123870
  H        3.7417620    -1.7087950     0.0220870
  H       -3.7187230     0.9816890     1.0666350
  H       -4.4568090     0.1237200    -0.3002800
  H       -3.3965620     1.5279900    -0.5904610
units angstrom
no_reorient  #important for SAPT in psi4, default
symmetry c1  #important for SAPT in psi4, default
}

set PROPERTIES_ORIGIN ["COM"]
properties('MP2/aug-cc-pvtz', properties = ['dipole'])
--------------------------------------------------------------------------

    Molecular point group: c1
  Charge       = 0
  Multiplicity = 1
  Basis Set: AUG-CC-PVTZ
    Blend: AUG-CC-PVTZ
  Basis Set: (AUG-CC-PVTZ AUX)
    Blend: AUG-CC-PVTZ-JKFIT

    Orbital Energies [Eh]
    ---------------------

    Doubly Occupied:

       1A   -104.856345     2A    -20.535919     3A    -15.613392
       4A    -11.371877     5A    -11.308669     6A    -11.307540
       7A    -11.257434     8A    -11.248451     9A    -11.246858
      10A    -11.239539    11A    -11.239365    12A    -10.580157
      13A     -8.047020    14A     -8.045271    15A     -8.045168
      16A     -1.390850    17A     -1.271493    18A     -1.183536
      19A     -1.128719    20A     -1.046692    21A     -1.007645
      22A     -0.989559    23A     -0.874056    24A     -0.828328
      25A     -0.790364    26A     -0.732619    27A     -0.689570
      28A     -0.678930    29A     -0.637900    30A     -0.633840
      31A     -0.620128    32A     -0.596907    33A     -0.585709
      34A     -0.575378    35A     -0.571331    36A     -0.543086
      37A     -0.529418    38A     -0.506134    39A     -0.481417
      40A     -0.470748    41A     -0.453649    42A     -0.435370
      43A     -0.343780    44A     -0.321824

  @DF-RHF Final Energy:  -896.60413638260309

   => Energetics <=

    Nuclear Repulsion Energy =            657.0722522420080622
    One-Electron Energy =               -2533.6288116622604321
    Two-Electron Energy =                 979.9524230376492824
    Total Energy =                       -896.6041363826030874
  Basis Set: (AUG-CC-PVTZ AUX)
    Blend: AUG-CC-PVTZ-RI
    Molecular point group: c1

    Geometry (in Angstrom), charge = 0, multiplicity = 1:

       Center              X                  Y                   Z               Mass
    ------------   -----------------  -----------------  -----------------  -----------------
         CL           0.991012888632     2.281848800609    -0.006362467330    34.968852682000
         O           -2.587491111368    -1.572679199391    -0.025203467330    15.994914619570
         N           -1.201320111368     0.275301800609    -0.015125467330    14.003074004430
         C            0.076748888632    -0.302593199391    -0.004891467330    12.000000000000
         C            1.201452888632     0.545417800609    -0.000359467330    12.000000000000
         C            0.295534888632    -1.690416199391    -0.000290467330    12.000000000000
         C            2.497091888632     0.037389800609     0.010427532670    12.000000000000
         C            1.611601588632    -2.149583499391     0.010193032670    12.000000000000
         C            2.698003888632    -1.342027199391     0.015384532670    12.000000000000
         C           -2.430673111368    -0.352643199391    -0.016158467330    12.000000000000
         C           -3.595359111368     0.615880800609     0.037543532670    12.000000000000
         H           -0.561143111368    -2.350715199391    -0.005186467330     1.007825032230
         H           -1.213419111368     1.288650800609    -0.011931467330     1.007825032230
         H            3.336061888632     0.727386800609     0.014129532670     1.007825032230
         H            1.738533888632    -3.272647199391     0.013623532670     1.007825032230
         H            3.708823888632    -1.740354199391     0.023323532670     1.007825032230
         H           -3.751661111368     0.950129800609     1.067871532670     1.007825032230
         H           -4.489747111368     0.092160800609    -0.299043467330     1.007825032230
         H           -3.429500111368     1.496430800609    -0.589224467330     1.007825032230

  Basis Set: AUG-CC-PVTZ
    Blend: AUG-CC-PVTZ
  Basis Set: (AUG-CC-PVTZ AUX)
    Blend: AUG-CC-PVTZ-JKFIT
	 Reference Energy          =    -896.6041363826030874 [Eh]
	 Singles Energy            =      -0.0000000000000000 [Eh]
	 Same-Spin Energy          =      -0.5340067159540174 [Eh]
	 Opposite-Spin Energy      =      -1.6203548952475584 [Eh]
	 Correlation Energy        =      -2.1543616112015758 [Eh]
	 Total Energy              =    -898.7584979938046672 [Eh]

	 ================> DF-SCS-MP2 Energies <==================
	-----------------------------------------------------------
	 SCS Same-Spin Scale       =       0.3333333333333333 [-]
	 SCS Opposite-Spin Scale   =       1.2000000000000000 [-]
	 SCS Same-Spin Energy      =      -0.1780022386513391 [Eh]
	 SCS Opposite-Spin Energy  =      -1.9444258742970699 [Eh]
	 SCS Correlation Energy    =      -2.1224281129484091 [Eh]
	 SCS Total Energy          =    -898.7265644955515427 [Eh]
	-----------------------------------------------------------

  Dipole Moment: [D]
     X:     0.5835      Y:     1.8957      Z:     0.0889     Total:     1.9854

*** Psi4 exiting successfully. Buy a developer a beer!
