                               Psi4 1.4a3.dev225

  ==> Input File <==

--------------------------------------------------------------------------
#psi4
#
memory 32 gb

molecule  {
0 1
 Cl        1.0239510     2.3134080    -0.0075990
  O       -2.5545530    -1.5411200    -0.0264400
  N       -1.1683820     0.3068610    -0.0163620
  C        0.1096870    -0.2710340    -0.0061280
  C        1.2343910     0.5769770    -0.0015960
  C        0.3284730    -1.6588570    -0.0015270
  C        2.5300300     0.0689490     0.0091910
  C        1.5678270    -2.2967222     0.0087584
  C        2.7309420    -1.3104680     0.0141480
  C       -2.3977350    -0.3210840    -0.0173950
  C       -3.5624210     0.6474400     0.0363070
  H       -0.5282050    -2.3191560    -0.0064230
  H       -1.1804810     1.3202100    -0.0131680
  H        3.3690000     0.7589460     0.0128930
  H        1.7714720    -3.2410880     0.0123870
  H        3.7417620    -1.7087950     0.0220870
  H       -3.7187230     0.9816890     1.0666350
  H       -4.4568090     0.1237200    -0.3002800
  H       -3.3965620     1.5279900    -0.5904610
units angstrom
no_reorient  #important for SAPT in psi4, default
symmetry c1  #important for SAPT in psi4, default
}

set PROPERTIES_ORIGIN ["COM"]
properties('MP2/aug-cc-pvtz', properties = ['dipole'])
--------------------------------------------------------------------------

    Molecular point group: c1
  Charge       = 0
  Multiplicity = 1
  Basis Set: AUG-CC-PVTZ
    Blend: AUG-CC-PVTZ
  Basis Set: (AUG-CC-PVTZ AUX)
    Blend: AUG-CC-PVTZ-JKFIT

    Orbital Energies [Eh]
    ---------------------

    Doubly Occupied:

       1A   -104.857376     2A    -20.534565     3A    -15.614324
       4A    -11.371355     5A    -11.310650     6A    -11.309496
       7A    -11.257295     8A    -11.255845     9A    -11.253142
      10A    -11.248200    11A    -11.243273    12A    -10.581186
      13A     -8.048039    14A     -8.046294    15A     -8.046202
      16A     -1.390022    17A     -1.271289    18A     -1.179273
      19A     -1.116685    20A     -1.041187    21A     -1.013408
      22A     -0.983122    23A     -0.865601    24A     -0.841015
      25A     -0.787555    26A     -0.749287    27A     -0.685765
      28A     -0.668621    29A     -0.642466    30A     -0.633637
      31A     -0.628429    32A     -0.603109    33A     -0.596347
      34A     -0.573993    35A     -0.569027    36A     -0.540619
      37A     -0.527946    38A     -0.503147    39A     -0.476767
      40A     -0.470631    41A     -0.445744    42A     -0.430863
      43A     -0.349104    44A     -0.310184

  @DF-RHF Final Energy:  -896.57723054103644

   => Energetics <=

    Nuclear Repulsion Energy =            654.0788273767452665
    One-Electron Energy =               -2527.5679442862474389
    Two-Electron Energy =                 976.9118863684657299
    Total Energy =                       -896.5772305410364424
  Basis Set: (AUG-CC-PVTZ AUX)
    Blend: AUG-CC-PVTZ-RI
    Molecular point group: c1

    Geometry (in Angstrom), charge = 0, multiplicity = 1:

       Center              X                  Y                   Z               Mass
    ------------   -----------------  -----------------  -----------------  -----------------
         CL           0.996458995484     2.294535198790    -0.006348403508    34.968852682000
         O           -2.582045004516    -1.559992801210    -0.025189403508    15.994914619570
         N           -1.195874004516     0.287988198790    -0.015111403508    14.003074004430
         C            0.082194995484    -0.289906801210    -0.004877403508    12.000000000000
         C            1.206898995484     0.558104198790    -0.000345403508    12.000000000000
         C            0.300980995484    -1.677729801210    -0.000276403508    12.000000000000
         C            2.502537995484     0.050076198790     0.010441596492    12.000000000000
         C            1.540334995484    -2.315595001210     0.010008996492    12.000000000000
         C            2.703449995484    -1.329340801210     0.015398596492    12.000000000000
         C           -2.425227004516    -0.339956801210    -0.016144403508    12.000000000000
         C           -3.589913004516     0.628567198790     0.037557596492    12.000000000000
         H           -0.555697004516    -2.338028801210    -0.005172403508     1.007825032230
         H           -1.207973004516     1.301337198790    -0.011917403508     1.007825032230
         H            3.341507995484     0.740073198790     0.014143596492     1.007825032230
         H            1.743979995484    -3.259960801210     0.013637596492     1.007825032230
         H            3.714269995484    -1.727667801210     0.023337596492     1.007825032230
         H           -3.746215004516     0.962816198790     1.067885596492     1.007825032230
         H           -4.484301004516     0.104847198790    -0.299029403508     1.007825032230
         H           -3.424054004516     1.509117198790    -0.589210403508     1.007825032230

  Basis Set: AUG-CC-PVTZ
    Blend: AUG-CC-PVTZ
  Basis Set: (AUG-CC-PVTZ AUX)
    Blend: AUG-CC-PVTZ-JKFIT
	 Reference Energy          =    -896.5772305410364424 [Eh]
	 Singles Energy            =      -0.0000000000000000 [Eh]
	 Same-Spin Energy          =      -0.5342229658576169 [Eh]
	 Opposite-Spin Energy      =      -1.6229368230232704 [Eh]
	 Correlation Energy        =      -2.1571597888808873 [Eh]
	 Total Energy              =    -898.7343903299173462 [Eh]

	 ================> DF-SCS-MP2 Energies <==================
	-----------------------------------------------------------
	 SCS Same-Spin Scale       =       0.3333333333333333 [-]
	 SCS Opposite-Spin Scale   =       1.2000000000000000 [-]
	 SCS Same-Spin Energy      =      -0.1780743219525389 [Eh]
	 SCS Opposite-Spin Energy  =      -1.9475241876279243 [Eh]
	 SCS Correlation Energy    =      -2.1255985095804633 [Eh]
	 SCS Total Energy          =    -898.7028290506168560 [Eh]
	-----------------------------------------------------------

  Dipole Moment: [D]
     X:     0.5898      Y:     1.8370      Z:     0.0888     Total:     1.9314

*** Psi4 exiting successfully. Buy a developer a beer!
