                               Psi4 1.4a3.dev225

  ==> Input File <==

--------------------------------------------------------------------------
#psi4
#
memory 32 gb

molecule  {
0 1
 Cl        1.0239510     2.3134080    -0.0075990
  O       -2.5545530    -1.5411200    -0.0264400
  N       -1.1683820     0.3068610    -0.0163620
  C        0.1096870    -0.2710340    -0.0061280
  C        1.2343910     0.5769770    -0.0015960
  C        0.3284730    -1.6588570    -0.0015270
  C        2.5300300     0.0689490     0.0091910
  C        1.6277130    -2.1636760     0.0089260
  C        2.7309420    -1.3104680     0.0141480
  C       -2.3977350    -0.3210840    -0.0173950
  C       -3.5624210     0.6474400     0.0363070
  H       -0.5282050    -2.3191560    -0.0064230
  H       -1.1804810     1.3202100    -0.0131680
  H        3.3690000     0.7589460     0.0128930
  H        1.7714720    -3.2410880     0.0123870
  H        3.7417620    -1.7087950     0.0220870
  H       -3.7187230     0.9816890     1.0666350
  H       -4.4568090     0.1237200    -0.3002800
  H       -3.3965620     1.5279900    -0.5904610
units angstrom
no_reorient  #important for SAPT in psi4, default
symmetry c1  #important for SAPT in psi4, default
}

set PROPERTIES_ORIGIN ["COM"]
properties('MP2/aug-cc-pvtz', properties = ['dipole'])
--------------------------------------------------------------------------

    Molecular point group: c1
  Charge       = 0
  Multiplicity = 1
  Basis Set: AUG-CC-PVTZ
    Blend: AUG-CC-PVTZ
  Basis Set: (AUG-CC-PVTZ AUX)
    Blend: AUG-CC-PVTZ-JKFIT

    Orbital Energies [Eh]
    ---------------------

    Doubly Occupied:

       1A   -104.856485     2A    -20.535534     3A    -15.613560
       4A    -11.371696     5A    -11.309018     6A    -11.307886
       7A    -11.257016     8A    -11.248350     9A    -11.248274
      10A    -11.244067    11A    -11.239929    12A    -10.580300
      13A     -8.047161    14A     -8.045413    15A     -8.045313
      16A     -1.390596    17A     -1.271327    18A     -1.181879
      19A     -1.125166    20A     -1.044885    21A     -1.008903
      22A     -0.987577    23A     -0.871510    24A     -0.830628
      25A     -0.789890    26A     -0.735984    27A     -0.688457
      28A     -0.676326    29A     -0.636303    30A     -0.633714
      31A     -0.621795    32A     -0.597221    33A     -0.590987
      34A     -0.574817    35A     -0.570438    36A     -0.538387
      37A     -0.528879    38A     -0.513932    39A     -0.479727
      40A     -0.470931    41A     -0.451536    42A     -0.434484
      43A     -0.344618    44A     -0.318851

  @DF-RHF Final Energy:  -896.60694751686981

   => Energetics <=

    Nuclear Repulsion Energy =            656.2608728722095748
    One-Electron Energy =               -2532.0161415766087885
    Two-Electron Energy =                 979.1483211875294046
    Total Energy =                       -896.6069475168698091
  Basis Set: (AUG-CC-PVTZ AUX)
    Blend: AUG-CC-PVTZ-RI
    Molecular point group: c1

    Geometry (in Angstrom), charge = 0, multiplicity = 1:

       Center              X                  Y                   Z               Mass
    ------------   -----------------  -----------------  -----------------  -----------------
         CL           0.992207475788     2.285089776826    -0.006360302027    34.968852682000
         O           -2.586296524212    -1.569438223174    -0.025201302027    15.994914619570
         N           -1.200125524212     0.278542776826    -0.015123302027    14.003074004430
         C            0.077943475788    -0.299352223174    -0.004889302027    12.000000000000
         C            1.202647475788     0.548658776826    -0.000357302027    12.000000000000
         C            0.296729475788    -1.687175223174    -0.000288302027    12.000000000000
         C            2.498286475788     0.040630776826     0.010429697973    12.000000000000
         C            1.595969475788    -2.191994223174     0.010164697973    12.000000000000
         C            2.699198475788    -1.338786223174     0.015386697973    12.000000000000
         C           -2.429478524212    -0.349402223174    -0.016156302027    12.000000000000
         C           -3.594164524212     0.619121776826     0.037545697973    12.000000000000
         H           -0.559948524212    -2.347474223174    -0.005184302027     1.007825032230
         H           -1.212224524212     1.291891776826    -0.011929302027     1.007825032230
         H            3.337256475788     0.730627776826     0.014131697973     1.007825032230
         H            1.739728475788    -3.269406223174     0.013625697973     1.007825032230
         H            3.710018475788    -1.737113223174     0.023325697973     1.007825032230
         H           -3.750466524212     0.953370776826     1.067873697973     1.007825032230
         H           -4.488552524212     0.095401776826    -0.299041302027     1.007825032230
         H           -3.428305524212     1.499671776826    -0.589222302027     1.007825032230

  Basis Set: AUG-CC-PVTZ
    Blend: AUG-CC-PVTZ
  Basis Set: (AUG-CC-PVTZ AUX)
    Blend: AUG-CC-PVTZ-JKFIT
	 Reference Energy          =    -896.6069475168698091 [Eh]
	 Singles Energy            =      -0.0000000000000000 [Eh]
	 Same-Spin Energy          =      -0.5339573100335100 [Eh]
	 Opposite-Spin Energy      =      -1.6204592196064256 [Eh]
	 Correlation Energy        =      -2.1544165296399358 [Eh]
	 Total Energy              =    -898.7613640465096978 [Eh]

	 ================> DF-SCS-MP2 Energies <==================
	-----------------------------------------------------------
	 SCS Same-Spin Scale       =       0.3333333333333333 [-]
	 SCS Opposite-Spin Scale   =       1.2000000000000000 [-]
	 SCS Same-Spin Energy      =      -0.1779857700111700 [Eh]
	 SCS Opposite-Spin Energy  =      -1.9445510635277106 [Eh]
	 SCS Correlation Energy    =      -2.1225368335388803 [Eh]
	 SCS Total Energy          =    -898.7294843504087112 [Eh]
	-----------------------------------------------------------

  Dipole Moment: [D]
     X:     0.5917      Y:     1.8652      Z:     0.0889     Total:     1.9588

*** Psi4 exiting successfully. Buy a developer a beer!
