                               Psi4 1.4a3.dev225

  ==> Input File <==

--------------------------------------------------------------------------
#psi4
#
memory 32 gb

molecule  {
0 1
 Cl        1.0239510     2.3134080    -0.0075990
  O       -2.5545530    -1.5411200    -0.0264400
  N       -1.1683820     0.3068610    -0.0163620
  C        0.1096870    -0.2710340    -0.0061280
  C        1.2343910     0.5769770    -0.0015960
  C        0.3284730    -1.6588570    -0.0015270
  C        2.4820122     0.0610960     0.0088873
  C        1.6277130    -2.1636760     0.0089260
  C        2.7309420    -1.3104680     0.0141480
  C       -2.3977350    -0.3210840    -0.0173950
  C       -3.5624210     0.6474400     0.0363070
  H       -0.5282050    -2.3191560    -0.0064230
  H       -1.1804810     1.3202100    -0.0131680
  H        3.3690000     0.7589460     0.0128930
  H        1.7714720    -3.2410880     0.0123870
  H        3.7417620    -1.7087950     0.0220870
  H       -3.7187230     0.9816890     1.0666350
  H       -4.4568090     0.1237200    -0.3002800
  H       -3.3965620     1.5279900    -0.5904610
units angstrom
no_reorient  #important for SAPT in psi4, default
symmetry c1  #important for SAPT in psi4, default
}

set PROPERTIES_ORIGIN ["COM"]
properties('MP2/aug-cc-pvtz', properties = ['dipole'])
--------------------------------------------------------------------------

    Molecular point group: c1
  Charge       = 0
  Multiplicity = 1
  Basis Set: AUG-CC-PVTZ
    Blend: AUG-CC-PVTZ
  Basis Set: (AUG-CC-PVTZ AUX)
    Blend: AUG-CC-PVTZ-JKFIT

    Orbital Energies [Eh]
    ---------------------

    Doubly Occupied:

       1A   -104.857182     2A    -20.535641     3A    -15.613701
       4A    -11.371629     5A    -11.308561     6A    -11.304379
       7A    -11.255401     8A    -11.248379     9A    -11.248005
      10A    -11.243195    11A    -11.238388    12A    -10.580976
      13A     -8.047839    14A     -8.046080    15A     -8.045978
      16A     -1.390602    17A     -1.271880    18A     -1.185940
      19A     -1.126169    20A     -1.044364    21A     -1.010961
      22A     -0.989278    23A     -0.872843    24A     -0.831029
      25A     -0.787668    26A     -0.736532    27A     -0.687377
      28A     -0.677381    29A     -0.638633    30A     -0.633867
      31A     -0.615448    32A     -0.595523    33A     -0.592067
      34A     -0.576554    35A     -0.570502    36A     -0.539965
      37A     -0.530331    38A     -0.507483    39A     -0.480230
      40A     -0.472878    41A     -0.451982    42A     -0.434257
      43A     -0.348609    44A     -0.317892

  @DF-RHF Final Energy:  -896.60423980910184

   => Energetics <=

    Nuclear Repulsion Energy =            657.2696205698670155
    One-Electron Energy =               -2534.0205692662866568
    Two-Electron Energy =                 980.1467088873176863
    Total Energy =                       -896.6042398091018413
  Basis Set: (AUG-CC-PVTZ AUX)
    Blend: AUG-CC-PVTZ-RI
    Molecular point group: c1

    Geometry (in Angstrom), charge = 0, multiplicity = 1:

       Center              X                  Y                   Z               Mass
    ------------   -----------------  -----------------  -----------------  -----------------
         CL           0.995616429842     2.285647289169    -0.006338741286    34.968852682000
         O           -2.582887570158    -1.568880710831    -0.025179741286    15.994914619570
         N           -1.196716570158     0.279100289169    -0.015101741286    14.003074004430
         C            0.081352429842    -0.298794710831    -0.004867741286    12.000000000000
         C            1.206056429842     0.549216289169    -0.000335741286    12.000000000000
         C            0.300138429842    -1.686617710831    -0.000266741286    12.000000000000
         C            2.453677629842     0.033335289169     0.010147558714    12.000000000000
         C            1.599378429842    -2.191436710831     0.010186258714    12.000000000000
         C            2.702607429842    -1.338228710831     0.015408258714    12.000000000000
         C           -2.426069570158    -0.348844710831    -0.016134741286    12.000000000000
         C           -3.590755570158     0.619679289169     0.037567258714    12.000000000000
         H           -0.556539570158    -2.346916710831    -0.005162741286     1.007825032230
         H           -1.208815570158     1.292449289169    -0.011907741286     1.007825032230
         H            3.340665429842     0.731185289169     0.014153258714     1.007825032230
         H            1.743137429842    -3.268848710831     0.013647258714     1.007825032230
         H            3.713427429842    -1.736555710831     0.023347258714     1.007825032230
         H           -3.747057570158     0.953928289169     1.067895258714     1.007825032230
         H           -4.485143570158     0.095959289169    -0.299019741286     1.007825032230
         H           -3.424896570158     1.500229289169    -0.589200741286     1.007825032230

  Basis Set: AUG-CC-PVTZ
    Blend: AUG-CC-PVTZ
  Basis Set: (AUG-CC-PVTZ AUX)
    Blend: AUG-CC-PVTZ-JKFIT
	 Reference Energy          =    -896.6042398091018413 [Eh]
	 Singles Energy            =      -0.0000000000000000 [Eh]
	 Same-Spin Energy          =      -0.5339976001458968 [Eh]
	 Opposite-Spin Energy      =      -1.6203399165926202 [Eh]
	 Correlation Energy        =      -2.1543375167385168 [Eh]
	 Total Energy              =    -898.7585773258404060 [Eh]

	 ================> DF-SCS-MP2 Energies <==================
	-----------------------------------------------------------
	 SCS Same-Spin Scale       =       0.3333333333333333 [-]
	 SCS Opposite-Spin Scale   =       1.2000000000000000 [-]
	 SCS Same-Spin Energy      =      -0.1779992000486323 [Eh]
	 SCS Opposite-Spin Energy  =      -1.9444078999111443 [Eh]
	 SCS Correlation Energy    =      -2.1224070999597764 [Eh]
	 SCS Total Energy          =    -898.7266469090616283 [Eh]
	-----------------------------------------------------------

  Dipole Moment: [D]
     X:     0.5863      Y:     1.8654      Z:     0.0888     Total:     1.9574

*** Psi4 exiting successfully. Buy a developer a beer!
