                               Psi4 1.4a3.dev225

  ==> Input File <==

--------------------------------------------------------------------------
#psi4
#
memory 32 gb

molecule  {
0 1
 Cl        1.0239510     2.3134080    -0.0075990
  O       -2.5545530    -1.5411200    -0.0264400
  N       -1.1683820     0.3068610    -0.0163620
  C        0.1096870    -0.2710340    -0.0061280
  C        1.2343910     0.5769770    -0.0015960
  C        0.3284730    -1.6588570    -0.0015270
  C        2.5300300     0.0689490     0.0091910
  C        1.6277130    -2.1636760     0.0089260
  C        2.7309420    -1.3104680     0.0141480
  C       -2.3977350    -0.3210840    -0.0173950
  C       -3.5624210     0.6474400     0.0363070
  H       -0.5282050    -2.3191560    -0.0064230
  H       -1.1804810     1.3202100    -0.0131680
  H        3.3690000     0.7589460     0.0128930
  H        1.7846977    -3.3402090     0.0127054
  H        3.7417620    -1.7087950     0.0220870
  H       -3.7187230     0.9816890     1.0666350
  H       -4.4568090     0.1237200    -0.3002800
  H       -3.3965620     1.5279900    -0.5904610
units angstrom
no_reorient  #important for SAPT in psi4, default
symmetry c1  #important for SAPT in psi4, default
}

set PROPERTIES_ORIGIN ["COM"]
properties('MP2/aug-cc-pvtz', properties = ['dipole'])
--------------------------------------------------------------------------

    Molecular point group: c1
  Charge       = 0
  Multiplicity = 1
  Basis Set: AUG-CC-PVTZ
    Blend: AUG-CC-PVTZ
  Basis Set: (AUG-CC-PVTZ AUX)
    Blend: AUG-CC-PVTZ-JKFIT

    Orbital Energies [Eh]
    ---------------------

    Doubly Occupied:

       1A   -104.856791     2A    -20.535765     3A    -15.613941
       4A    -11.371939     5A    -11.309582     6A    -11.308401
       7A    -11.259328     8A    -11.257727     9A    -11.248528
      10A    -11.245100    11A    -11.240896    12A    -10.580604
      13A     -8.047465    14A     -8.045717    15A     -8.045616
      16A     -1.390835    17A     -1.271712    18A     -1.182234
      19A     -1.124910    20A     -1.045279    21A     -1.007743
      22A     -0.986549    23A     -0.871766    24A     -0.827479
      25A     -0.789906    26A     -0.729946    27A     -0.688129
      28A     -0.676270    29A     -0.636748    30A     -0.633969
      31A     -0.618534    32A     -0.597128    33A     -0.583871
      34A     -0.575208    35A     -0.570672    36A     -0.538672
      37A     -0.529179    38A     -0.506662    39A     -0.480168
      40A     -0.471174    41A     -0.451968    42A     -0.434698
      43A     -0.345157    44A     -0.319360

  @DF-RHF Final Energy:  -896.59955729007572

   => Energetics <=

    Nuclear Repulsion Energy =            655.7534039287390897
    One-Electron Energy =               -2530.9992639503652754
    Two-Electron Energy =                 978.6463027315504632
    Total Energy =                       -896.5995572900757224
  Basis Set: (AUG-CC-PVTZ AUX)
    Blend: AUG-CC-PVTZ-RI
    Molecular point group: c1

    Geometry (in Angstrom), charge = 0, multiplicity = 1:

       Center              X                  Y                   Z               Mass
    ------------   -----------------  -----------------  -----------------  -----------------
         CL           0.992128618570     2.285680778157    -0.006362200463    34.968852682000
         O           -2.586375381430    -1.568847221843    -0.025203200463    15.994914619570
         N           -1.200204381430     0.279133778157    -0.015125200463    14.003074004430
         C            0.077864618570    -0.298761221843    -0.004891200463    12.000000000000
         C            1.202568618570     0.549249778157    -0.000359200463    12.000000000000
         C            0.296650618570    -1.686584221843    -0.000290200463    12.000000000000
         C            2.498207618570     0.041221778157     0.010427799537    12.000000000000
         C            1.595890618570    -2.191403221843     0.010162799537    12.000000000000
         C            2.699119618570    -1.338195221843     0.015384799537    12.000000000000
         C           -2.429557381430    -0.348811221843    -0.016158200463    12.000000000000
         C           -3.594243381430     0.619712778157     0.037543799537    12.000000000000
         H           -0.560027381430    -2.346883221843    -0.005186200463     1.007825032230
         H           -1.212303381430     1.292482778157    -0.011931200463     1.007825032230
         H            3.337177618570     0.731218778157     0.014129799537     1.007825032230
         H            1.752875318570    -3.367936221843     0.013942199537     1.007825032230
         H            3.709939618570    -1.736522221843     0.023323799537     1.007825032230
         H           -3.750545381430     0.953961778157     1.067871799537     1.007825032230
         H           -4.488631381430     0.095992778157    -0.299043200463     1.007825032230
         H           -3.428384381430     1.500262778157    -0.589224200463     1.007825032230

  Basis Set: AUG-CC-PVTZ
    Blend: AUG-CC-PVTZ
  Basis Set: (AUG-CC-PVTZ AUX)
    Blend: AUG-CC-PVTZ-JKFIT
	 Reference Energy          =    -896.5995572900757224 [Eh]
	 Singles Energy            =      -0.0000000000000000 [Eh]
	 Same-Spin Energy          =      -0.5341689132657131 [Eh]
	 Opposite-Spin Energy      =      -1.6213940437016379 [Eh]
	 Correlation Energy        =      -2.1555629569673509 [Eh]
	 Total Energy              =    -898.7551202470431235 [Eh]

	 ================> DF-SCS-MP2 Energies <==================
	-----------------------------------------------------------
	 SCS Same-Spin Scale       =       0.3333333333333333 [-]
	 SCS Opposite-Spin Scale   =       1.2000000000000000 [-]
	 SCS Same-Spin Energy      =      -0.1780563044219044 [Eh]
	 SCS Opposite-Spin Energy  =      -1.9456728524419653 [Eh]
	 SCS Correlation Energy    =      -2.1237291568638699 [Eh]
	 SCS Total Energy          =    -898.7232864469395963 [Eh]
	-----------------------------------------------------------

  Dipole Moment: [D]
     X:     0.5775      Y:     1.9049      Z:     0.0888     Total:     1.9925

*** Psi4 exiting successfully. Buy a developer a beer!
