                               Psi4 1.4a3.dev225

  ==> Input File <==

--------------------------------------------------------------------------
#psi4
#
memory 32 gb

molecule  {
0 1
 Cl        1.0239510     2.3134080    -0.0075990
  O       -2.5545530    -1.5411200    -0.0264400
  N       -1.1683820     0.3068610    -0.0163620
  C        0.1096870    -0.2710340    -0.0061280
  C        1.2343910     0.5769770    -0.0015960
  C        0.3284730    -1.6588570    -0.0015270
  C        2.5300300     0.0689490     0.0091910
  C        1.6277130    -2.1636760     0.0089260
  C        2.7309420    -1.3104680     0.0141480
  C       -2.3977350    -0.3210840    -0.0173950
  C       -3.5624210     0.6474400     0.0363070
  H       -0.6074078    -2.3802029    -0.0068757
  H       -1.1804810     1.3202100    -0.0131680
  H        3.3690000     0.7589460     0.0128930
  H        1.7714720    -3.2410880     0.0123870
  H        3.7417620    -1.7087950     0.0220870
  H       -3.7187230     0.9816890     1.0666350
  H       -4.4568090     0.1237200    -0.3002800
  H       -3.3965620     1.5279900    -0.5904610
units angstrom
no_reorient  #important for SAPT in psi4, default
symmetry c1  #important for SAPT in psi4, default
}

set PROPERTIES_ORIGIN ["COM"]
properties('MP2/aug-cc-pvtz', properties = ['dipole'])
--------------------------------------------------------------------------

    Molecular point group: c1
  Charge       = 0
  Multiplicity = 1
  Basis Set: AUG-CC-PVTZ
    Blend: AUG-CC-PVTZ
  Basis Set: (AUG-CC-PVTZ AUX)
    Blend: AUG-CC-PVTZ-JKFIT

    Orbital Energies [Eh]
    ---------------------

    Doubly Occupied:

       1A   -104.856519     2A    -20.535676     3A    -15.613618
       4A    -11.372111     5A    -11.309151     6A    -11.308012
       7A    -11.256666     8A    -11.249018     9A    -11.248529
      10A    -11.247670    11A    -11.244031    12A    -10.580330
      13A     -8.047191    14A     -8.045443    15A     -8.045343
      16A     -1.391064    17A     -1.271320    18A     -1.181808
      19A     -1.124452    20A     -1.044290    21A     -1.006718
      22A     -0.987625    23A     -0.868762    24A     -0.829231
      25A     -0.787581    26A     -0.735944    27A     -0.688952
      28A     -0.670839    29A     -0.636279    30A     -0.633887
      31A     -0.615327    32A     -0.596266    33A     -0.587296
      34A     -0.574838    35A     -0.569705    36A     -0.536205
      37A     -0.529051    38A     -0.509991    39A     -0.479724
      40A     -0.470643    41A     -0.451709    42A     -0.431337
      43A     -0.344193    44A     -0.318831

  @DF-RHF Final Energy:  -896.59899294943534

   => Energetics <=

    Nuclear Repulsion Energy =            655.8221952742646863
    One-Electron Energy =               -2531.1760256984262014
    Two-Electron Energy =                 978.7548374747261732
    Total Energy =                       -896.5989929494353419
  Basis Set: (AUG-CC-PVTZ AUX)
    Blend: AUG-CC-PVTZ-RI
    Molecular point group: c1

    Geometry (in Angstrom), charge = 0, multiplicity = 1:

       Center              X                  Y                   Z               Mass
    ------------   -----------------  -----------------  -----------------  -----------------
         CL           0.992679716386     2.285453764267    -0.006357602838    34.968852682000
         O           -2.585824283614    -1.569074235733    -0.025198602838    15.994914619570
         N           -1.199653283614     0.278906764267    -0.015120602838    14.003074004430
         C            0.078415716386    -0.298988235733    -0.004886602838    12.000000000000
         C            1.203119716386     0.549022764267    -0.000354602838    12.000000000000
         C            0.297201716386    -1.686811235733    -0.000285602838    12.000000000000
         C            2.498758716386     0.040994764267     0.010432397162    12.000000000000
         C            1.596441716386    -2.191630235733     0.010167397162    12.000000000000
         C            2.699670716386    -1.338422235733     0.015389397162    12.000000000000
         C           -2.429006283614    -0.349038235733    -0.016153602838    12.000000000000
         C           -3.593692283614     0.619485764267     0.037548397162    12.000000000000
         H           -0.638679083614    -2.408157135733    -0.005634302838     1.007825032230
         H           -1.211752283614     1.292255764267    -0.011926602838     1.007825032230
         H            3.337728716386     0.730991764267     0.014134397162     1.007825032230
         H            1.740200716386    -3.269042235733     0.013628397162     1.007825032230
         H            3.710490716386    -1.736749235733     0.023328397162     1.007825032230
         H           -3.749994283614     0.953734764267     1.067876397162     1.007825032230
         H           -4.488080283614     0.095765764267    -0.299038602838     1.007825032230
         H           -3.427833283614     1.500035764267    -0.589219602838     1.007825032230

  Basis Set: AUG-CC-PVTZ
    Blend: AUG-CC-PVTZ
  Basis Set: (AUG-CC-PVTZ AUX)
    Blend: AUG-CC-PVTZ-JKFIT
	 Reference Energy          =    -896.5989929494353419 [Eh]
	 Singles Energy            =      -0.0000000000000000 [Eh]
	 Same-Spin Energy          =      -0.5344828733649316 [Eh]
	 Opposite-Spin Energy      =      -1.6215812172363546 [Eh]
	 Correlation Energy        =      -2.1560640906012862 [Eh]
	 Total Energy              =    -898.7550570400366041 [Eh]

	 ================> DF-SCS-MP2 Energies <==================
	-----------------------------------------------------------
	 SCS Same-Spin Scale       =       0.3333333333333333 [-]
	 SCS Opposite-Spin Scale   =       1.2000000000000000 [-]
	 SCS Same-Spin Energy      =      -0.1781609577883105 [Eh]
	 SCS Opposite-Spin Energy  =      -1.9458974606836255 [Eh]
	 SCS Correlation Energy    =      -2.1240584184719360 [Eh]
	 SCS Total Energy          =    -898.7230513679072601 [Eh]
	-----------------------------------------------------------

  Dipole Moment: [D]
     X:     0.5359      Y:     1.8576      Z:     0.0885     Total:     1.9354

*** Psi4 exiting successfully. Buy a developer a beer!
