                               Psi4 1.4a3.dev225

  ==> Input File <==

--------------------------------------------------------------------------
#psi4
#
memory 32 gb

molecule  {
0 1
 Cl        1.0239510     2.3134080    -0.0075990
  O       -2.5545530    -1.5411200    -0.0264400
  N       -1.1683820     0.3068610    -0.0163620
  C        0.1096870    -0.2710340    -0.0061280
  C        1.2343910     0.5769770    -0.0015960
  C        0.3284730    -1.6588570    -0.0015270
  C        2.5300300     0.0689490     0.0091910
  C        1.6277130    -2.1636760     0.0089260
  C        2.7704936    -1.2798798     0.0143352
  C       -2.3977350    -0.3210840    -0.0173950
  C       -3.5624210     0.6474400     0.0363070
  H       -0.5282050    -2.3191560    -0.0064230
  H       -1.1804810     1.3202100    -0.0131680
  H        3.3690000     0.7589460     0.0128930
  H        1.7714720    -3.2410880     0.0123870
  H        3.7417620    -1.7087950     0.0220870
  H       -3.7187230     0.9816890     1.0666350
  H       -4.4568090     0.1237200    -0.3002800
  H       -3.3965620     1.5279900    -0.5904610
units angstrom
no_reorient  #important for SAPT in psi4, default
symmetry c1  #important for SAPT in psi4, default
}

set PROPERTIES_ORIGIN ["COM"]
properties('MP2/aug-cc-pvtz', properties = ['dipole'])
--------------------------------------------------------------------------

    Molecular point group: c1
  Charge       = 0
  Multiplicity = 1
  Basis Set: AUG-CC-PVTZ
    Blend: AUG-CC-PVTZ
  Basis Set: (AUG-CC-PVTZ AUX)
    Blend: AUG-CC-PVTZ-JKFIT

    Orbital Energies [Eh]
    ---------------------

    Doubly Occupied:

       1A   -104.856264     2A    -20.535918     3A    -15.614102
       4A    -11.372200     5A    -11.309690     6A    -11.307044
       7A    -11.254391     8A    -11.253692     9A    -11.248651
      10A    -11.244443    11A    -11.240265    12A    -10.580038
      13A     -8.046900    14A     -8.045156    15A     -8.045051
      16A     -1.391053    17A     -1.271651    18A     -1.181210
      19A     -1.122312    20A     -1.046442    21A     -1.009652
      22A     -0.984814    23A     -0.869845    24A     -0.833594
      25A     -0.789269    26A     -0.735751    27A     -0.688184
      28A     -0.679692    29A     -0.636786    30A     -0.634037
      31A     -0.621195    32A     -0.598743    33A     -0.589538
      34A     -0.574780    35A     -0.571009    36A     -0.540809
      37A     -0.528926    38A     -0.510774    39A     -0.478446
      40A     -0.471440    41A     -0.450757    42A     -0.434511
      43A     -0.346113    44A     -0.316776

  @DF-RHF Final Energy:  -896.60387254467457

   => Energetics <=

    Nuclear Repulsion Energy =            655.8003882149241690
    One-Electron Energy =               -2531.0846909124843478
    Two-Electron Energy =                 978.6804301528856058
    Total Energy =                       -896.6038725446745730
  Basis Set: (AUG-CC-PVTZ AUX)
    Blend: AUG-CC-PVTZ-RI
    Molecular point group: c1

    Geometry (in Angstrom), charge = 0, multiplicity = 1:

       Center              X                  Y                   Z               Mass
    ------------   -----------------  -----------------  -----------------  -----------------
         CL           0.989399567322     2.282918211940    -0.006373592020    34.968852682000
         O           -2.589104432678    -1.571609788060    -0.025214592020    15.994914619570
         N           -1.202933432678     0.276371211940    -0.015136592020    14.003074004430
         C            0.075135567322    -0.301523788060    -0.004902592020    12.000000000000
         C            1.199839567322     0.546487211940    -0.000370592020    12.000000000000
         C            0.293921567322    -1.689346788060    -0.000301592020    12.000000000000
         C            2.495478567322     0.038459211940     0.010416407980    12.000000000000
         C            1.593161567322    -2.194165788060     0.010151407980    12.000000000000
         C            2.735942167322    -1.310369588060     0.015560607980    12.000000000000
         C           -2.432286432678    -0.351573788060    -0.016169592020    12.000000000000
         C           -3.596972432678     0.616950211940     0.037532407980    12.000000000000
         H           -0.562756432678    -2.349645788060    -0.005197592020     1.007825032230
         H           -1.215032432678     1.289720211940    -0.011942592020     1.007825032230
         H            3.334448567322     0.728456211940     0.014118407980     1.007825032230
         H            1.736920567322    -3.271577788060     0.013612407980     1.007825032230
         H            3.707210567322    -1.739284788060     0.023312407980     1.007825032230
         H           -3.753274432678     0.951199211940     1.067860407980     1.007825032230
         H           -4.491360432678     0.093230211940    -0.299054592020     1.007825032230
         H           -3.431113432678     1.497500211940    -0.589235592020     1.007825032230

  Basis Set: AUG-CC-PVTZ
    Blend: AUG-CC-PVTZ
  Basis Set: (AUG-CC-PVTZ AUX)
    Blend: AUG-CC-PVTZ-JKFIT
	 Reference Energy          =    -896.6038725446745730 [Eh]
	 Singles Energy            =      -0.0000000000000000 [Eh]
	 Same-Spin Energy          =      -0.5337986378710275 [Eh]
	 Opposite-Spin Energy      =      -1.6206506846838393 [Eh]
	 Correlation Energy        =      -2.1544493225548669 [Eh]
	 Total Energy              =    -898.7583218672294834 [Eh]

	 ================> DF-SCS-MP2 Energies <==================
	-----------------------------------------------------------
	 SCS Same-Spin Scale       =       0.3333333333333333 [-]
	 SCS Opposite-Spin Scale   =       1.2000000000000000 [-]
	 SCS Same-Spin Energy      =      -0.1779328792903425 [Eh]
	 SCS Opposite-Spin Energy  =      -1.9447808216206071 [Eh]
	 SCS Correlation Energy    =      -2.1227137009109494 [Eh]
	 SCS Total Energy          =    -898.7265862455855085 [Eh]
	-----------------------------------------------------------

  Dipole Moment: [D]
     X:     0.5844      Y:     1.8607      Z:     0.0890     Total:     1.9524

*** Psi4 exiting successfully. Buy a developer a beer!
