                               Psi4 1.4a3.dev225

  ==> Input File <==

--------------------------------------------------------------------------
#psi4
#
memory 32 gb

molecule  {
0 1
 Cl        1.0239510     2.3134080    -0.0075990
  O       -2.5545530    -1.5411200    -0.0264400
  N       -1.1683820     0.3068610    -0.0163620
  C        0.1096870    -0.2710340    -0.0061280
  C        1.2343910     0.5769770    -0.0015960
  C        0.3284730    -1.6588570    -0.0015270
  C        2.5300300     0.0689490     0.0091910
  C        1.6277130    -2.1636760     0.0089260
  C        2.7309420    -1.3104680     0.0141480
  C       -2.3977350    -0.3210840    -0.0173950
  C       -3.5624210     0.6474400     0.0363070
  H       -0.5282050    -2.3191560    -0.0064230
  H       -1.1804810     1.3202100    -0.0131680
  H        3.4462341     0.8224659     0.0132338
  H        1.7714720    -3.2410880     0.0123870
  H        3.7417620    -1.7087950     0.0220870
  H       -3.7187230     0.9816890     1.0666350
  H       -4.4568090     0.1237200    -0.3002800
  H       -3.3965620     1.5279900    -0.5904610
units angstrom
no_reorient  #important for SAPT in psi4, default
symmetry c1  #important for SAPT in psi4, default
}

set PROPERTIES_ORIGIN ["COM"]
properties('MP2/aug-cc-pvtz', properties = ['dipole'])
--------------------------------------------------------------------------

    Molecular point group: c1
  Charge       = 0
  Multiplicity = 1
  Basis Set: AUG-CC-PVTZ
    Blend: AUG-CC-PVTZ
  Basis Set: (AUG-CC-PVTZ AUX)
    Blend: AUG-CC-PVTZ-JKFIT

    Orbital Energies [Eh]
    ---------------------

    Doubly Occupied:

       1A   -104.856352     2A    -20.535712     3A    -15.613813
       4A    -11.371887     5A    -11.309726     6A    -11.308575
       7A    -11.267731     8A    -11.248869     9A    -11.248474
      10A    -11.244837    11A    -11.240179    12A    -10.580162
      13A     -8.047021    14A     -8.045270    15A     -8.045170
      16A     -1.390779    17A     -1.271582    18A     -1.181541
      19A     -1.125360    20A     -1.044195    21A     -1.006984
      22A     -0.987945    23A     -0.869946    24A     -0.829949
      25A     -0.786040    26A     -0.734764    27A     -0.685856
      28A     -0.676500    29A     -0.636724    30A     -0.633893
      31A     -0.614454    32A     -0.595271    33A     -0.587529
      34A     -0.575079    35A     -0.570546    36A     -0.535559
      37A     -0.529032    38A     -0.510574    39A     -0.479823
      40A     -0.470952    41A     -0.451859    42A     -0.434525
      43A     -0.344974    44A     -0.319247

  @DF-RHF Final Energy:  -896.59942231877210

   => Energetics <=

    Nuclear Repulsion Energy =            655.7488926190885650
    One-Electron Energy =               -2531.0061068321456332
    Two-Electron Energy =                 978.6577918942849692
    Total Energy =                       -896.5994223187720991
  Basis Set: (AUG-CC-PVTZ AUX)
    Blend: AUG-CC-PVTZ-RI
    Molecular point group: c1

    Geometry (in Angstrom), charge = 0, multiplicity = 1:

       Center              X                  Y                   Z               Mass
    ------------   -----------------  -----------------  -----------------  -----------------
         CL           0.991746973413     2.284711044312    -0.006362334021    34.968852682000
         O           -2.586757026587    -1.569816955688    -0.025203334021    15.994914619570
         N           -1.200586026587     0.278164044312    -0.015125334021    14.003074004430
         C            0.077482973413    -0.299730955688    -0.004891334021    12.000000000000
         C            1.202186973413     0.548280044312    -0.000359334021    12.000000000000
         C            0.296268973413    -1.687553955688    -0.000290334021    12.000000000000
         C            2.497825973413     0.040252044312     0.010427665979    12.000000000000
         C            1.595508973413    -2.192372955688     0.010162665979    12.000000000000
         C            2.698737973413    -1.339164955688     0.015384665979    12.000000000000
         C           -2.429939026587    -0.349780955688    -0.016158334021    12.000000000000
         C           -3.594625026587     0.618743044312     0.037543665979    12.000000000000
         H           -0.560409026587    -2.347852955688    -0.005186334021     1.007825032230
         H           -1.212685026587     1.291513044312    -0.011931334021     1.007825032230
         H            3.414030073413     0.793768944312     0.014470465979     1.007825032230
         H            1.739267973413    -3.269784955688     0.013623665979     1.007825032230
         H            3.709557973413    -1.737491955688     0.023323665979     1.007825032230
         H           -3.750927026587     0.952992044312     1.067871665979     1.007825032230
         H           -4.489013026587     0.095023044312    -0.299043334021     1.007825032230
         H           -3.428766026587     1.499293044312    -0.589224334021     1.007825032230

  Basis Set: AUG-CC-PVTZ
    Blend: AUG-CC-PVTZ
  Basis Set: (AUG-CC-PVTZ AUX)
    Blend: AUG-CC-PVTZ-JKFIT
	 Reference Energy          =    -896.5994223187720991 [Eh]
	 Singles Energy            =      -0.0000000000000000 [Eh]
	 Same-Spin Energy          =      -0.5342388798440956 [Eh]
	 Opposite-Spin Energy      =      -1.6213855105899766 [Eh]
	 Correlation Energy        =      -2.1556243904340722 [Eh]
	 Total Energy              =    -898.7550467092062263 [Eh]

	 ================> DF-SCS-MP2 Energies <==================
	-----------------------------------------------------------
	 SCS Same-Spin Scale       =       0.3333333333333333 [-]
	 SCS Opposite-Spin Scale   =       1.2000000000000000 [-]
	 SCS Same-Spin Energy      =      -0.1780796266146985 [Eh]
	 SCS Opposite-Spin Energy  =      -1.9456626127079719 [Eh]
	 SCS Correlation Energy    =      -2.1237422393226706 [Eh]
	 SCS Total Energy          =    -898.7231645580948225 [Eh]
	-----------------------------------------------------------

  Dipole Moment: [D]
     X:     0.5774      Y:     1.8551      Z:     0.0889     Total:     1.9449

*** Psi4 exiting successfully. Buy a developer a beer!
