                               Psi4 1.4a3.dev225

  ==> Input File <==

--------------------------------------------------------------------------
#psi4
#
memory 32 gb

molecule  {
0 1
 Cl        1.0239510     2.3134080    -0.0075990
  O       -2.5545530    -1.5411200    -0.0264400
  N       -1.1683820     0.3068610    -0.0163620
  C        0.1096870    -0.2710340    -0.0061280
  C        1.2343910     0.5769770    -0.0015960
  C        0.3284730    -1.6588570    -0.0015270
  C        2.5300300     0.0689490     0.0091910
  C        1.6277130    -2.1636760     0.0089260
  C        2.7309420    -1.3104680     0.0141480
  C       -2.3977350    -0.3210840    -0.0173950
  C       -3.5624210     0.6474400     0.0363070
  H       -0.5282050    -2.3191560    -0.0064230
  H       -1.1804810     1.3202100    -0.0131680
  H        3.3690000     0.7589460     0.0128930
  H        1.7714720    -3.2410880     0.0123870
  H        3.7417620    -1.7087950     0.0220870
  H       -3.7050114     1.0885408     1.0276831
  H       -4.4568090     0.1237200    -0.3002800
  H       -3.3965620     1.5279900    -0.5904610
units angstrom
no_reorient  #important for SAPT in psi4, default
symmetry c1  #important for SAPT in psi4, default
}

set PROPERTIES_ORIGIN ["COM"]
properties('MP2/aug-cc-pvtz', properties = ['dipole'])
--------------------------------------------------------------------------

    Molecular point group: c1
  Charge       = 0
  Multiplicity = 1
  Basis Set: AUG-CC-PVTZ
    Blend: AUG-CC-PVTZ
  Basis Set: (AUG-CC-PVTZ AUX)
    Blend: AUG-CC-PVTZ-JKFIT

    Orbital Energies [Eh]
    ---------------------

    Doubly Occupied:

       1A   -104.856560     2A    -20.536326     3A    -15.613622
       4A    -11.372598     5A    -11.309081     6A    -11.307947
       7A    -11.257069     8A    -11.248359     9A    -11.248327
      10A    -11.244095    11A    -11.239988    12A    -10.580374
      13A     -8.047235    14A     -8.045488    15A     -8.045388
      16A     -1.391082    17A     -1.271488    18A     -1.181954
      19A     -1.125225    20A     -1.044835    21A     -1.008916
      22A     -0.987545    23A     -0.871704    24A     -0.830739
      25A     -0.790406    26A     -0.736127    27A     -0.691409
      28A     -0.676387    29A     -0.637418    30A     -0.630410
      31A     -0.621848    32A     -0.599482    33A     -0.591171
      34A     -0.574693    35A     -0.568158    36A     -0.538647
      37A     -0.526951    38A     -0.514054    39A     -0.479790
      40A     -0.471013    41A     -0.451732    42A     -0.435847
      43A     -0.344671    44A     -0.318854

  @DF-RHF Final Energy:  -896.60563050781411

   => Energetics <=

    Nuclear Repulsion Energy =            656.2164845746062838
    One-Electron Energy =               -2531.9142058538773199
    Two-Electron Energy =                 979.0920907714569239
    Total Energy =                       -896.6056305078141122
  Basis Set: (AUG-CC-PVTZ AUX)
    Blend: AUG-CC-PVTZ-RI
    Molecular point group: c1

    Geometry (in Angstrom), charge = 0, multiplicity = 1:

       Center              X                  Y                   Z               Mass
    ------------   -----------------  -----------------  -----------------  -----------------
         CL           0.992125721429     2.284452681194    -0.006128054322    34.968852682000
         O           -2.586378278571    -1.570075318806    -0.024969054322    15.994914619570
         N           -1.200207278571     0.277905681194    -0.014891054322    14.003074004430
         C            0.077861721429    -0.299989318806    -0.004657054322    12.000000000000
         C            1.202565721429     0.548021681194    -0.000125054322    12.000000000000
         C            0.296647721429    -1.687812318806    -0.000056054322    12.000000000000
         C            2.498204721429     0.039993681194     0.010661945678    12.000000000000
         C            1.595887721429    -2.192631318806     0.010396945678    12.000000000000
         C            2.699116721429    -1.339423318806     0.015618945678    12.000000000000
         C           -2.429560278571    -0.350039318806    -0.015924054322    12.000000000000
         C           -3.594246278571     0.618484681194     0.037777945678    12.000000000000
         H           -0.560030278571    -2.348111318806    -0.004952054322     1.007825032230
         H           -1.212306278571     1.291254681194    -0.011697054322     1.007825032230
         H            3.337174721429     0.729990681194     0.014363945678     1.007825032230
         H            1.739646721429    -3.270043318806     0.013857945678     1.007825032230
         H            3.709936721429    -1.737750318806     0.023557945678     1.007825032230
         H           -3.736836678571     1.059585481194     1.029154045678     1.007825032230
         H           -4.488634278571     0.094764681194    -0.298809054322     1.007825032230
         H           -3.428387278571     1.499034681194    -0.588990054322     1.007825032230

  Basis Set: AUG-CC-PVTZ
    Blend: AUG-CC-PVTZ
  Basis Set: (AUG-CC-PVTZ AUX)
    Blend: AUG-CC-PVTZ-JKFIT
	 Reference Energy          =    -896.6056305078141122 [Eh]
	 Singles Energy            =      -0.0000000000000000 [Eh]
	 Same-Spin Energy          =      -0.5340167845335584 [Eh]
	 Opposite-Spin Energy      =      -1.6205368776628575 [Eh]
	 Correlation Energy        =      -2.1545536621964159 [Eh]
	 Total Energy              =    -898.7601841700105751 [Eh]

	 ================> DF-SCS-MP2 Energies <==================
	-----------------------------------------------------------
	 SCS Same-Spin Scale       =       0.3333333333333333 [-]
	 SCS Opposite-Spin Scale   =       1.2000000000000000 [-]
	 SCS Same-Spin Energy      =      -0.1780055948445194 [Eh]
	 SCS Opposite-Spin Energy  =      -1.9446442531954289 [Eh]
	 SCS Correlation Energy    =      -2.1226498480399485 [Eh]
	 SCS Total Energy          =    -898.7282803558540536 [Eh]
	-----------------------------------------------------------

  Dipole Moment: [D]
     X:     0.6051      Y:     1.9035      Z:     0.0807     Total:     1.9990

*** Psi4 exiting successfully. Buy a developer a beer!
