                               Psi4 1.4a3.dev225

  ==> Input File <==

--------------------------------------------------------------------------
#psi4
#
memory 32 gb

molecule  {
0 1
 Cl        1.0239510     2.3134080    -0.0075990
  O       -2.5545530    -1.5411200    -0.0264400
  N       -1.1683820     0.3068610    -0.0163620
  C        0.1096870    -0.2710340    -0.0061280
  C        1.2021080     0.4853575    -0.0016015
  C        0.3284730    -1.6588570    -0.0015270
  C        2.5300300     0.0689490     0.0091910
  C        1.6277130    -2.1636760     0.0089260
  C        2.7309420    -1.3104680     0.0141480
  C       -2.3977350    -0.3210840    -0.0173950
  C       -3.5624210     0.6474400     0.0363070
  H       -0.5282050    -2.3191560    -0.0064230
  H       -1.1804810     1.3202100    -0.0131680
  H        3.3690000     0.7589460     0.0128930
  H        1.7714720    -3.2410880     0.0123870
  H        3.7417620    -1.7087950     0.0220870
  H       -3.7187230     0.9816890     1.0666350
  H       -4.4568090     0.1237200    -0.3002800
  H       -3.3965620     1.5279900    -0.5904610
units angstrom
no_reorient  #important for SAPT in psi4, default
symmetry c1  #important for SAPT in psi4, default
}

set PROPERTIES_ORIGIN ["COM"]
properties('MP2/aug-cc-pvtz', properties = ['dipole'])
--------------------------------------------------------------------------

    Molecular point group: c1
  Charge       = 0
  Multiplicity = 1
  Basis Set: AUG-CC-PVTZ
    Blend: AUG-CC-PVTZ
  Basis Set: (AUG-CC-PVTZ AUX)
    Blend: AUG-CC-PVTZ-JKFIT

    Orbital Energies [Eh]
    ---------------------

    Doubly Occupied:

       1A   -104.845838     2A    -20.536307     3A    -15.614372
       4A    -11.372974     5A    -11.308734     6A    -11.302585
       7A    -11.260582     8A    -11.249882     9A    -11.248820
      10A    -11.248006    11A    -11.244444    12A    -10.568932
      13A     -8.035611    14A     -8.034090    15A     -8.033991
      16A     -1.391704    17A     -1.275013    18A     -1.181198
      19A     -1.113495    20A     -1.051716    21A     -1.009640
      22A     -0.996404    23A     -0.876978    24A     -0.833098
      25A     -0.796325    26A     -0.737436    27A     -0.692270
      28A     -0.678231    29A     -0.641221    30A     -0.635539
      31A     -0.626217    32A     -0.598290    33A     -0.581444
      34A     -0.578816    35A     -0.571632    36A     -0.540439
      37A     -0.527025    38A     -0.504601    39A     -0.473257
      40A     -0.464201    41A     -0.453566    42A     -0.436035
      43A     -0.347995    44A     -0.330114

  @DF-RHF Final Energy:  -896.59993767534479

   => Energetics <=

    Nuclear Repulsion Energy =            656.7128200320637461
    One-Electron Energy =               -2532.9273776169170560
    Two-Electron Energy =                 979.6146199095085194
    Total Energy =                       -896.5999376753447905
  Basis Set: (AUG-CC-PVTZ AUX)
    Blend: AUG-CC-PVTZ-RI
    Molecular point group: c1

    Geometry (in Angstrom), charge = 0, multiplicity = 1:

       Center              X                  Y                   Z               Mass
    ------------   -----------------  -----------------  -----------------  -----------------
         CL           0.994499360542     2.291594170320    -0.006359911563    34.968852682000
         O           -2.584004639458    -1.562933829680    -0.025200911563    15.994914619570
         N           -1.197833639458     0.285047170320    -0.015122911563    14.003074004430
         C            0.080235360542    -0.292847829680    -0.004888911563    12.000000000000
         C            1.172656360542     0.463543670320    -0.000362411563    12.000000000000
         C            0.299021360542    -1.680670829680    -0.000287911563    12.000000000000
         C            2.500578360542     0.047135170320     0.010430088437    12.000000000000
         C            1.598261360542    -2.185489829680     0.010165088437    12.000000000000
         C            2.701490360542    -1.332281829680     0.015387088437    12.000000000000
         C           -2.427186639458    -0.342897829680    -0.016155911563    12.000000000000
         C           -3.591872639458     0.625626170320     0.037546088437    12.000000000000
         H           -0.557656639458    -2.340969829680    -0.005183911563     1.007825032230
         H           -1.209932639458     1.298396170320    -0.011928911563     1.007825032230
         H            3.339548360542     0.737132170320     0.014132088437     1.007825032230
         H            1.742020360542    -3.262901829680     0.013626088437     1.007825032230
         H            3.712310360542    -1.730608829680     0.023326088437     1.007825032230
         H           -3.748174639458     0.959875170320     1.067874088437     1.007825032230
         H           -4.486260639458     0.101906170320    -0.299040911563     1.007825032230
         H           -3.426013639458     1.506176170320    -0.589221911563     1.007825032230

  Basis Set: AUG-CC-PVTZ
    Blend: AUG-CC-PVTZ
  Basis Set: (AUG-CC-PVTZ AUX)
    Blend: AUG-CC-PVTZ-JKFIT
	 Reference Energy          =    -896.5999376753447905 [Eh]
	 Singles Energy            =      -0.0000000000000000 [Eh]
	 Same-Spin Energy          =      -0.5332145532477010 [Eh]
	 Opposite-Spin Energy      =      -1.6197435401865499 [Eh]
	 Correlation Energy        =      -2.1529580934342509 [Eh]
	 Total Energy              =    -898.7528957687790125 [Eh]

	 ================> DF-SCS-MP2 Energies <==================
	-----------------------------------------------------------
	 SCS Same-Spin Scale       =       0.3333333333333333 [-]
	 SCS Opposite-Spin Scale   =       1.2000000000000000 [-]
	 SCS Same-Spin Energy      =      -0.1777381844159003 [Eh]
	 SCS Opposite-Spin Energy  =      -1.9436922482238597 [Eh]
	 SCS Correlation Energy    =      -2.1214304326397602 [Eh]
	 SCS Total Energy          =    -898.7213681079845173 [Eh]
	-----------------------------------------------------------

  Dipole Moment: [D]
     X:     0.6534      Y:     1.4351      Z:     0.0913     Total:     1.5795

*** Psi4 exiting successfully. Buy a developer a beer!
