                               Psi4 1.4a3.dev225

  ==> Input File <==

--------------------------------------------------------------------------
#psi4
#
memory 32 gb

molecule  {
0 1
 Cl        1.0239510     2.3134080    -0.0075990
  O       -2.5545530    -1.5411200    -0.0264400
  N       -1.1683820     0.3068610    -0.0163620
  C        0.1096870    -0.2710340    -0.0061280
  C        1.2343910     0.5769770    -0.0015960
  C        0.3284730    -1.6588570    -0.0015270
  C        2.5300300     0.0689490     0.0091910
  C        1.6277130    -2.1636760     0.0089260
  C        2.7309420    -1.3104680     0.0141480
  C       -2.3977350    -0.3210840    -0.0173950
  C       -3.5624210     0.6474400     0.0363070
  H       -0.5282050    -2.3191560    -0.0064230
  H       -1.1804810     1.3202100    -0.0131680
  H        3.4076170     0.7907060     0.0130634
  H        1.7714720    -3.2410880     0.0123870
  H        3.7417620    -1.7087950     0.0220870
  H       -3.7187230     0.9816890     1.0666350
  H       -4.4568090     0.1237200    -0.3002800
  H       -3.3965620     1.5279900    -0.5904610
units angstrom
no_reorient  #important for SAPT in psi4, default
symmetry c1  #important for SAPT in psi4, default
}

set PROPERTIES_ORIGIN ["COM"]
properties('MP2/aug-cc-pvtz', properties = ['dipole'])
--------------------------------------------------------------------------

    Molecular point group: c1
  Charge       = 0
  Multiplicity = 1
  Basis Set: AUG-CC-PVTZ
    Blend: AUG-CC-PVTZ
  Basis Set: (AUG-CC-PVTZ AUX)
    Blend: AUG-CC-PVTZ-JKFIT

    Orbital Energies [Eh]
    ---------------------

    Doubly Occupied:

       1A   -104.856411     2A    -20.535615     3A    -15.613678
       4A    -11.371784     5A    -11.309346     6A    -11.308211
       7A    -11.262489     8A    -11.248555     9A    -11.248407
      10A    -11.244425    11A    -11.240035    12A    -10.580224
      13A     -8.047084    14A     -8.045334    15A     -8.045235
      16A     -1.390679    17A     -1.271443    18A     -1.181669
      19A     -1.125245    20A     -1.044469    21A     -1.007833
      22A     -0.987749    23A     -0.870608    24A     -0.830215
      25A     -0.787788    26A     -0.735311    27A     -0.687026
      28A     -0.676405    29A     -0.636496    30A     -0.633795
      31A     -0.617637    32A     -0.596087    33A     -0.589764
      34A     -0.574937    35A     -0.570490    36A     -0.537005
      37A     -0.528946    38A     -0.512526    39A     -0.479766
      40A     -0.470940    41A     -0.451683    42A     -0.434503
      43A     -0.344772    44A     -0.319036

  @DF-RHF Final Energy:  -896.60442093680899

   => Energetics <=

    Nuclear Repulsion Energy =            655.9984079622170157
    One-Electron Energy =               -2531.5023488804154113
    Two-Electron Energy =                 978.8995199813894033
    Total Energy =                       -896.6044209368089923
  Basis Set: (AUG-CC-PVTZ AUX)
    Blend: AUG-CC-PVTZ-RI
    Molecular point group: c1

    Geometry (in Angstrom), charge = 0, multiplicity = 1:

       Center              X                  Y                   Z               Mass
    ------------   -----------------  -----------------  -----------------  -----------------
         CL           0.991977224899     2.284900410271    -0.006361318024    34.968852682000
         O           -2.586526775101    -1.569627589729    -0.025202318024    15.994914619570
         N           -1.200355775101     0.278353410271    -0.015124318024    14.003074004430
         C            0.077713224899    -0.299541589729    -0.004890318024    12.000000000000
         C            1.202417224899     0.548469410271    -0.000358318024    12.000000000000
         C            0.296499224899    -1.687364589729    -0.000289318024    12.000000000000
         C            2.498056224899     0.040441410271     0.010428681976    12.000000000000
         C            1.595739224899    -2.192183589729     0.010163681976    12.000000000000
         C            2.698968224899    -1.338975589729     0.015385681976    12.000000000000
         C           -2.429708775101    -0.349591589729    -0.016157318024    12.000000000000
         C           -3.594394775101     0.618932410271     0.037544681976    12.000000000000
         H           -0.560178775101    -2.347663589729    -0.005185318024     1.007825032230
         H           -1.212454775101     1.291702410271    -0.011930318024     1.007825032230
         H            3.375643224899     0.762198410271     0.014301081976     1.007825032230
         H            1.739498224899    -3.269595589729     0.013624681976     1.007825032230
         H            3.709788224899    -1.737302589729     0.023324681976     1.007825032230
         H           -3.750696775101     0.953181410271     1.067872681976     1.007825032230
         H           -4.488782775101     0.095212410271    -0.299042318024     1.007825032230
         H           -3.428535775101     1.499482410271    -0.589223318024     1.007825032230

  Basis Set: AUG-CC-PVTZ
    Blend: AUG-CC-PVTZ
  Basis Set: (AUG-CC-PVTZ AUX)
    Blend: AUG-CC-PVTZ-JKFIT
	 Reference Energy          =    -896.6044209368089923 [Eh]
	 Singles Energy            =      -0.0000000000000000 [Eh]
	 Same-Spin Energy          =      -0.5340894749678947 [Eh]
	 Opposite-Spin Energy      =      -1.6208734686513695 [Eh]
	 Correlation Energy        =      -2.1549629436192643 [Eh]
	 Total Energy              =    -898.7593838804282314 [Eh]

	 ================> DF-SCS-MP2 Energies <==================
	-----------------------------------------------------------
	 SCS Same-Spin Scale       =       0.3333333333333333 [-]
	 SCS Opposite-Spin Scale   =       1.2000000000000000 [-]
	 SCS Same-Spin Energy      =      -0.1780298249892982 [Eh]
	 SCS Opposite-Spin Energy  =      -1.9450481623816434 [Eh]
	 SCS Correlation Energy    =      -2.1230779873709418 [Eh]
	 SCS Total Energy          =    -898.7274989241799403 [Eh]
	-----------------------------------------------------------

  Dipole Moment: [D]
     X:     0.5860      Y:     1.8609      Z:     0.0889     Total:     1.9530

*** Psi4 exiting successfully. Buy a developer a beer!
