                               Psi4 1.4a3.dev225

  ==> Input File <==

--------------------------------------------------------------------------
#psi4
#
memory 32 gb

molecule  {
0 1
 Cl        1.0239510     2.3134080    -0.0075990
  O       -2.5545530    -1.5411200    -0.0264400
  N       -1.1683820     0.3068610    -0.0163620
  C        0.1096870    -0.2710340    -0.0061280
  C        1.2343910     0.5769770    -0.0015960
  C        0.3284730    -1.6588570    -0.0015270
  C        2.5300300     0.0689490     0.0091910
  C        1.7209215    -2.1998921     0.0096759
  C        2.7309420    -1.3104680     0.0141480
  C       -2.3977350    -0.3210840    -0.0173950
  C       -3.5624210     0.6474400     0.0363070
  H       -0.5282050    -2.3191560    -0.0064230
  H       -1.1804810     1.3202100    -0.0131680
  H        3.3690000     0.7589460     0.0128930
  H        1.7714720    -3.2410880     0.0123870
  H        3.7417620    -1.7087950     0.0220870
  H       -3.7187230     0.9816890     1.0666350
  H       -4.4568090     0.1237200    -0.3002800
  H       -3.3965620     1.5279900    -0.5904610
units angstrom
no_reorient  #important for SAPT in psi4, default
symmetry c1  #important for SAPT in psi4, default
}

set PROPERTIES_ORIGIN ["COM"]
properties('MP2/aug-cc-pvtz', properties = ['dipole'])
--------------------------------------------------------------------------

    Molecular point group: c1
  Charge       = 0
  Multiplicity = 1
  Basis Set: AUG-CC-PVTZ
    Blend: AUG-CC-PVTZ
  Basis Set: (AUG-CC-PVTZ AUX)
    Blend: AUG-CC-PVTZ-JKFIT

    Orbital Energies [Eh]
    ---------------------

    Doubly Occupied:

       1A   -104.857691     2A    -20.534799     3A    -15.612295
       4A    -11.370669     5A    -11.311863     6A    -11.306460
       7A    -11.257979     8A    -11.249311     9A    -11.247979
      10A    -11.247714    11A    -11.240324    12A    -10.581508
      13A     -8.048367    14A     -8.046610    15A     -8.046518
      16A     -1.389648    17A     -1.270183    18A     -1.181743
      19A     -1.123170    20A     -1.045969    21A     -1.000417
      22A     -0.992107    23A     -0.872107    24A     -0.831170
      25A     -0.787700    26A     -0.738750    27A     -0.689006
      28A     -0.674646    29A     -0.639680    30A     -0.632883
      31A     -0.626800    32A     -0.596426    33A     -0.590355
      34A     -0.573680    35A     -0.569142    36A     -0.531463
      37A     -0.528856    38A     -0.517145    39A     -0.478470
      40A     -0.470441    41A     -0.452419    42A     -0.433302
      43A     -0.336066    44A     -0.324018

  @DF-RHF Final Energy:  -896.59511376736566

   => Energetics <=

    Nuclear Repulsion Energy =            654.9774981367621649
    One-Electron Energy =               -2529.4295285584339581
    Two-Electron Energy =                 977.8569166543060192
    Total Energy =                       -896.5951137673656604
  Basis Set: (AUG-CC-PVTZ AUX)
    Blend: AUG-CC-PVTZ-RI
    Molecular point group: c1

    Geometry (in Angstrom), charge = 0, multiplicity = 1:

       Center              X                  Y                   Z               Mass
    ------------   -----------------  -----------------  -----------------  -----------------
         CL           0.985590273544     2.287660886308    -0.006413540090    34.968852682000
         O           -2.592913726456    -1.566867113692    -0.025254540090    15.994914619570
         N           -1.206742726456     0.281113886308    -0.015176540090    14.003074004430
         C            0.071326273544    -0.296781113692    -0.004942540090    12.000000000000
         C            1.196030273544     0.551229886308    -0.000410540090    12.000000000000
         C            0.290112273544    -1.684604113692    -0.000341540090    12.000000000000
         C            2.491669273544     0.043201886308     0.010376459910    12.000000000000
         C            1.682560773544    -2.225639213692     0.010861359910    12.000000000000
         C            2.692581273544    -1.336215113692     0.015333459910    12.000000000000
         C           -2.436095726456    -0.346831113692    -0.016209540090    12.000000000000
         C           -3.600781726456     0.621692886308     0.037492459910    12.000000000000
         H           -0.566565726456    -2.344903113692    -0.005237540090     1.007825032230
         H           -1.218841726456     1.294462886308    -0.011982540090     1.007825032230
         H            3.330639273544     0.733198886308     0.014078459910     1.007825032230
         H            1.733111273544    -3.266835113692     0.013572459910     1.007825032230
         H            3.703401273544    -1.734542113692     0.023272459910     1.007825032230
         H           -3.757083726456     0.955941886308     1.067820459910     1.007825032230
         H           -4.495169726456     0.097972886308    -0.299094540090     1.007825032230
         H           -3.434922726456     1.502242886308    -0.589275540090     1.007825032230

  Basis Set: AUG-CC-PVTZ
    Blend: AUG-CC-PVTZ
  Basis Set: (AUG-CC-PVTZ AUX)
    Blend: AUG-CC-PVTZ-JKFIT
	 Reference Energy          =    -896.5951137673656604 [Eh]
	 Singles Energy            =      -0.0000000000000000 [Eh]
	 Same-Spin Energy          =      -0.5338652150062810 [Eh]
	 Opposite-Spin Energy      =      -1.6213651440881529 [Eh]
	 Correlation Energy        =      -2.1552303590944337 [Eh]
	 Total Energy              =    -898.7503441264600497 [Eh]

	 ================> DF-SCS-MP2 Energies <==================
	-----------------------------------------------------------
	 SCS Same-Spin Scale       =       0.3333333333333333 [-]
	 SCS Opposite-Spin Scale   =       1.2000000000000000 [-]
	 SCS Same-Spin Energy      =      -0.1779550716687603 [Eh]
	 SCS Opposite-Spin Energy  =      -1.9456381729057834 [Eh]
	 SCS Correlation Energy    =      -2.1235932445745438 [Eh]
	 SCS Total Energy          =    -898.7187070119401824 [Eh]
	-----------------------------------------------------------

  Dipole Moment: [D]
     X:     0.5993      Y:     1.8672      Z:     0.0887     Total:     1.9630

*** Psi4 exiting successfully. Buy a developer a beer!
