                               Psi4 1.4a3.dev225

  ==> Input File <==

--------------------------------------------------------------------------
#psi4
#
memory 32 gb

molecule  {
0 1
 Cl        1.0239510     2.3134080    -0.0075990
  O       -2.5545530    -1.5411200    -0.0264400
  N       -1.1683820     0.3068610    -0.0163620
  C        0.1096870    -0.2710340    -0.0061280
  C        1.2343910     0.5769770    -0.0015960
  C        0.3206869    -1.6094672    -0.0016907
  C        2.5300300     0.0689490     0.0091910
  C        1.6277130    -2.1636760     0.0089260
  C        2.7309420    -1.3104680     0.0141480
  C       -2.3977350    -0.3210840    -0.0173950
  C       -3.5624210     0.6474400     0.0363070
  H       -0.5282050    -2.3191560    -0.0064230
  H       -1.1804810     1.3202100    -0.0131680
  H        3.3690000     0.7589460     0.0128930
  H        1.7714720    -3.2410880     0.0123870
  H        3.7417620    -1.7087950     0.0220870
  H       -3.7187230     0.9816890     1.0666350
  H       -4.4568090     0.1237200    -0.3002800
  H       -3.3965620     1.5279900    -0.5904610
units angstrom
no_reorient  #important for SAPT in psi4, default
symmetry c1  #important for SAPT in psi4, default
}

set PROPERTIES_ORIGIN ["COM"]
properties('MP2/aug-cc-pvtz', properties = ['dipole'])
--------------------------------------------------------------------------

    Molecular point group: c1
  Charge       = 0
  Multiplicity = 1
  Basis Set: AUG-CC-PVTZ
    Blend: AUG-CC-PVTZ
  Basis Set: (AUG-CC-PVTZ AUX)
    Blend: AUG-CC-PVTZ-JKFIT

    Orbital Energies [Eh]
    ---------------------

    Doubly Occupied:

       1A   -104.856778     2A    -20.534232     3A    -15.611699
       4A    -11.370682     5A    -11.309520     6A    -11.302314
       7A    -11.256922     8A    -11.251136     9A    -11.247632
      10A    -11.244389    11A    -11.237826    12A    -10.580591
      13A     -8.047450    14A     -8.045701    15A     -8.045604
      16A     -1.389537    17A     -1.271711    18A     -1.182494
      19A     -1.125869    20A     -1.047975    21A     -1.006193
      22A     -0.988971    23A     -0.870062    24A     -0.833728
      25A     -0.787879    26A     -0.737181    27A     -0.687202
      28A     -0.672940    29A     -0.639569    30A     -0.633355
      31A     -0.621822    32A     -0.597064    33A     -0.588007
      34A     -0.576042    35A     -0.569752    36A     -0.534017
      37A     -0.528515    38A     -0.517312    39A     -0.480451
      40A     -0.470437    41A     -0.450264    42A     -0.431782
      43A     -0.342481    44A     -0.322974

  @DF-RHF Final Energy:  -896.60400171650554

   => Energetics <=

    Nuclear Repulsion Energy =            657.0839531604099193
    One-Electron Energy =               -2533.6797829495017140
    Two-Electron Energy =                 979.9918280725862587
    Total Energy =                       -896.6040017165055360
  Basis Set: (AUG-CC-PVTZ AUX)
    Blend: AUG-CC-PVTZ-RI
    Molecular point group: c1

    Geometry (in Angstrom), charge = 0, multiplicity = 1:

       Center              X                  Y                   Z               Mass
    ------------   -----------------  -----------------  -----------------  -----------------
         CL           0.992760238663     2.281583419622    -0.006348680383    34.968852682000
         O           -2.585743761337    -1.572944580378    -0.025189680383    15.994914619570
         N           -1.199572761337     0.275036419622    -0.015111680383    14.003074004430
         C            0.078496238663    -0.302858580378    -0.004877680383    12.000000000000
         C            1.203200238663     0.545152419622    -0.000345680383    12.000000000000
         C            0.289496138663    -1.641291780378    -0.000440380383    12.000000000000
         C            2.498839238663     0.037124419622     0.010441319617    12.000000000000
         C            1.596522238663    -2.195500580378     0.010176319617    12.000000000000
         C            2.699751238663    -1.342292580378     0.015398319617    12.000000000000
         C           -2.428925761337    -0.352908580378    -0.016144680383    12.000000000000
         C           -3.593611761337     0.615615419622     0.037557319617    12.000000000000
         H           -0.559395761337    -2.350980580378    -0.005172680383     1.007825032230
         H           -1.211671761337     1.288385419622    -0.011917680383     1.007825032230
         H            3.337809238663     0.727121419622     0.014143319617     1.007825032230
         H            1.740281238663    -3.272912580378     0.013637319617     1.007825032230
         H            3.710571238663    -1.740619580378     0.023337319617     1.007825032230
         H           -3.749913761337     0.949864419622     1.067885319617     1.007825032230
         H           -4.487999761337     0.091895419622    -0.299029680383     1.007825032230
         H           -3.427752761337     1.496165419622    -0.589210680383     1.007825032230

  Basis Set: AUG-CC-PVTZ
    Blend: AUG-CC-PVTZ
  Basis Set: (AUG-CC-PVTZ AUX)
    Blend: AUG-CC-PVTZ-JKFIT
	 Reference Energy          =    -896.6040017165055360 [Eh]
	 Singles Energy            =      -0.0000000000000000 [Eh]
	 Same-Spin Energy          =      -0.5339683810244193 [Eh]
	 Opposite-Spin Energy      =      -1.6205880077083235 [Eh]
	 Correlation Energy        =      -2.1545563887327428 [Eh]
	 Total Energy              =    -898.7585581052383077 [Eh]

	 ================> DF-SCS-MP2 Energies <==================
	-----------------------------------------------------------
	 SCS Same-Spin Scale       =       0.3333333333333333 [-]
	 SCS Opposite-Spin Scale   =       1.2000000000000000 [-]
	 SCS Same-Spin Energy      =      -0.1779894603414731 [Eh]
	 SCS Opposite-Spin Energy  =      -1.9447056092499881 [Eh]
	 SCS Correlation Energy    =      -2.1226950695914613 [Eh]
	 SCS Total Energy          =    -898.7266967860970226 [Eh]
	-----------------------------------------------------------

  Dipole Moment: [D]
     X:     0.6420      Y:     1.8491      Z:     0.0890     Total:     1.9594

*** Psi4 exiting successfully. Buy a developer a beer!
