                               Psi4 1.4a3.dev225

  ==> Input File <==

--------------------------------------------------------------------------
#psi4
#
memory 32 gb

molecule  {
0 1
 Cl        1.0239510     2.3134080    -0.0075990
  O       -2.5545530    -1.5411200    -0.0264400
  N       -1.1683820     0.3068610    -0.0163620
  C        0.1096870    -0.2710340    -0.0061280
  C        1.2343910     0.5769770    -0.0015960
  C        0.3284730    -1.6588570    -0.0015270
  C        2.5300300     0.0689490     0.0091910
  C        1.6277130    -2.1636760     0.0089260
  C        2.7309420    -1.3104680     0.0141480
  C       -2.4155460    -0.3301817    -0.0174100
  C       -3.5624210     0.6474400     0.0363070
  H       -0.5282050    -2.3191560    -0.0064230
  H       -1.1804810     1.3202100    -0.0131680
  H        3.3690000     0.7589460     0.0128930
  H        1.7714720    -3.2410880     0.0123870
  H        3.7417620    -1.7087950     0.0220870
  H       -3.7187230     0.9816890     1.0666350
  H       -4.4568090     0.1237200    -0.3002800
  H       -3.3965620     1.5279900    -0.5904610
units angstrom
no_reorient  #important for SAPT in psi4, default
symmetry c1  #important for SAPT in psi4, default
}

set PROPERTIES_ORIGIN ["COM"]
properties('MP2/aug-cc-pvtz', properties = ['dipole'])
--------------------------------------------------------------------------

    Molecular point group: c1
  Charge       = 0
  Multiplicity = 1
  Basis Set: AUG-CC-PVTZ
    Blend: AUG-CC-PVTZ
  Basis Set: (AUG-CC-PVTZ AUX)
    Blend: AUG-CC-PVTZ-JKFIT

    Orbital Energies [Eh]
    ---------------------

    Doubly Occupied:

       1A   -104.855161     2A    -20.539657     3A    -15.610341
       4A    -11.373188     5A    -11.307585     6A    -11.306352
       7A    -11.255999     8A    -11.249268     9A    -11.247375
      10A    -11.242595    11A    -11.238632    12A    -10.578977
      13A     -8.045839    14A     -8.044094    15A     -8.043994
      16A     -1.398429    17A     -1.267420    18A     -1.179375
      19A     -1.123884    20A     -1.044904    21A     -1.008593
      22A     -0.987345    23A     -0.868015    24A     -0.828967
      25A     -0.787675    26A     -0.733380    27A     -0.691160
      28A     -0.675340    29A     -0.636139    30A     -0.634241
      31A     -0.621732    32A     -0.601997    33A     -0.590221
      34A     -0.574013    35A     -0.570115    36A     -0.537556
      37A     -0.529362    38A     -0.513106    39A     -0.479752
      40A     -0.469619    41A     -0.452640    42A     -0.437365
      43A     -0.343596    44A     -0.316676

  @DF-RHF Final Energy:  -896.60700290969658

   => Energetics <=

    Nuclear Repulsion Energy =            656.0804841778364107
    One-Electron Energy =               -2531.6916232207345274
    Two-Electron Energy =                 979.0041361332016550
    Total Energy =                       -896.6070029096965754
  Basis Set: (AUG-CC-PVTZ AUX)
    Blend: AUG-CC-PVTZ-RI
    Molecular point group: c1

    Geometry (in Angstrom), charge = 0, multiplicity = 1:

       Center              X                  Y                   Z               Mass
    ------------   -----------------  -----------------  -----------------  -----------------
         CL           0.993471941896     2.285735654840    -0.006359237124    34.968852682000
         O           -2.585032058104    -1.568792345160    -0.025200237124    15.994914619570
         N           -1.198861058104     0.279188654840    -0.015122237124    14.003074004430
         C            0.079207941896    -0.298706345160    -0.004888237124    12.000000000000
         C            1.203911941896     0.549304654840    -0.000356237124    12.000000000000
         C            0.297993941896    -1.686529345160    -0.000287237124    12.000000000000
         C            2.499550941896     0.041276654840     0.010430762876    12.000000000000
         C            1.597233941896    -2.191348345160     0.010165762876    12.000000000000
         C            2.700462941896    -1.338140345160     0.015387762876    12.000000000000
         C           -2.446025058104    -0.357854045160    -0.016170237124    12.000000000000
         C           -3.592900058104     0.619767654840     0.037546762876    12.000000000000
         H           -0.558684058104    -2.346828345160    -0.005183237124     1.007825032230
         H           -1.210960058104     1.292537654840    -0.011928237124     1.007825032230
         H            3.338520941896     0.731273654840     0.014132762876     1.007825032230
         H            1.740992941896    -3.268760345160     0.013626762876     1.007825032230
         H            3.711282941896    -1.736467345160     0.023326762876     1.007825032230
         H           -3.749202058104     0.954016654840     1.067874762876     1.007825032230
         H           -4.487288058104     0.096047654840    -0.299040237124     1.007825032230
         H           -3.427041058104     1.500317654840    -0.589221237124     1.007825032230

  Basis Set: AUG-CC-PVTZ
    Blend: AUG-CC-PVTZ
  Basis Set: (AUG-CC-PVTZ AUX)
    Blend: AUG-CC-PVTZ-JKFIT
	 Reference Energy          =    -896.6070029096965754 [Eh]
	 Singles Energy            =      -0.0000000000000000 [Eh]
	 Same-Spin Energy          =      -0.5338260537766313 [Eh]
	 Opposite-Spin Energy      =      -1.6201849013427712 [Eh]
	 Correlation Energy        =      -2.1540109551194027 [Eh]
	 Total Energy              =    -898.7610138648159364 [Eh]

	 ================> DF-SCS-MP2 Energies <==================
	-----------------------------------------------------------
	 SCS Same-Spin Scale       =       0.3333333333333333 [-]
	 SCS Opposite-Spin Scale   =       1.2000000000000000 [-]
	 SCS Same-Spin Energy      =      -0.1779420179255438 [Eh]
	 SCS Opposite-Spin Energy  =      -1.9442218816113253 [Eh]
	 SCS Correlation Energy    =      -2.1221638995368690 [Eh]
	 SCS Total Energy          =    -898.7291668092334476 [Eh]
	-----------------------------------------------------------

  Dipole Moment: [D]
     X:     0.3679      Y:     1.8048      Z:     0.0894     Total:     1.8441

*** Psi4 exiting successfully. Buy a developer a beer!
