                               Psi4 1.4a3.dev225

  ==> Input File <==

--------------------------------------------------------------------------
#psi4
#
memory 32 gb

molecule  {
0 1
 Cl        1.0239510     2.3134080    -0.0075990
  O       -2.5545530    -1.5411200    -0.0264400
  N       -1.1683820     0.3068610    -0.0163620
  C        0.1096870    -0.2710340    -0.0061280
  C        1.2343910     0.5769770    -0.0015960
  C        0.3284730    -1.6588570    -0.0015270
  C        2.5300300     0.0689490     0.0091910
  C        1.6093034    -2.2087127     0.0088828
  C        2.7309420    -1.3104680     0.0141480
  C       -2.3977350    -0.3210840    -0.0173950
  C       -3.5624210     0.6474400     0.0363070
  H       -0.5282050    -2.3191560    -0.0064230
  H       -1.1804810     1.3202100    -0.0131680
  H        3.3690000     0.7589460     0.0128930
  H        1.7714720    -3.2410880     0.0123870
  H        3.7417620    -1.7087950     0.0220870
  H       -3.7187230     0.9816890     1.0666350
  H       -4.4568090     0.1237200    -0.3002800
  H       -3.3965620     1.5279900    -0.5904610
units angstrom
no_reorient  #important for SAPT in psi4, default
symmetry c1  #important for SAPT in psi4, default
}

set PROPERTIES_ORIGIN ["COM"]
properties('MP2/aug-cc-pvtz', properties = ['dipole'])
--------------------------------------------------------------------------

    Molecular point group: c1
  Charge       = 0
  Multiplicity = 1
  Basis Set: AUG-CC-PVTZ
    Blend: AUG-CC-PVTZ
  Basis Set: (AUG-CC-PVTZ AUX)
    Blend: AUG-CC-PVTZ-JKFIT

    Orbital Energies [Eh]
    ---------------------

    Doubly Occupied:

       1A   -104.856710     2A    -20.535183     3A    -15.613778
       4A    -11.371553     5A    -11.309473     6A    -11.308335
       7A    -11.256710     8A    -11.249922     9A    -11.248485
      10A    -11.248277    11A    -11.240698    12A    -10.580525
      13A     -8.047383    14A     -8.045637    15A     -8.045539
      16A     -1.390376    17A     -1.271247    18A     -1.180681
      19A     -1.121959    20A     -1.043387    21A     -1.010297
      22A     -0.985799    23A     -0.869174    24A     -0.833529
      25A     -0.789227    26A     -0.739929    27A     -0.687455
      28A     -0.673711    29A     -0.635164    30A     -0.633601
      31A     -0.625033    32A     -0.598589    33A     -0.594893
      34A     -0.574418    35A     -0.569797    36A     -0.536457
      37A     -0.528469    38A     -0.515598    39A     -0.478437
      40A     -0.470973    41A     -0.449485    42A     -0.433484
      43A     -0.345834    44A     -0.315867

  @DF-RHF Final Energy:  -896.60333175449625

   => Energetics <=

    Nuclear Repulsion Energy =            655.4912638857280172
    One-Electron Energy =               -2530.4670324808002988
    Two-Electron Energy =                 978.3724368405759151
    Total Energy =                       -896.6033317544962529
  Basis Set: (AUG-CC-PVTZ AUX)
    Blend: AUG-CC-PVTZ-RI
    Molecular point group: c1

    Geometry (in Angstrom), charge = 0, multiplicity = 1:

       Center              X                  Y                   Z               Mass
    ------------   -----------------  -----------------  -----------------  -----------------
         CL           0.993514438634     2.288287092009    -0.006357235106    34.968852682000
         O           -2.584989561366    -1.566240907991    -0.025198235106    15.994914619570
         N           -1.198818561366     0.281740092009    -0.015120235106    14.003074004430
         C            0.079250438634    -0.296154907991    -0.004886235106    12.000000000000
         C            1.203954438634     0.551856092009    -0.000354235106    12.000000000000
         C            0.298036438634    -1.683977907991    -0.000285235106    12.000000000000
         C            2.499593438634     0.043828092009     0.010432764894    12.000000000000
         C            1.578866838634    -2.233833607991     0.010124564894    12.000000000000
         C            2.700505438634    -1.335588907991     0.015389764894    12.000000000000
         C           -2.428171561366    -0.346204907991    -0.016153235106    12.000000000000
         C           -3.592857561366     0.622319092009     0.037548764894    12.000000000000
         H           -0.558641561366    -2.344276907991    -0.005181235106     1.007825032230
         H           -1.210917561366     1.295089092009    -0.011926235106     1.007825032230
         H            3.338563438634     0.733825092009     0.014134764894     1.007825032230
         H            1.741035438634    -3.266208907991     0.013628764894     1.007825032230
         H            3.711325438634    -1.733915907991     0.023328764894     1.007825032230
         H           -3.749159561366     0.956568092009     1.067876764894     1.007825032230
         H           -4.487245561366     0.098599092009    -0.299038235106     1.007825032230
         H           -3.426998561366     1.502869092009    -0.589219235106     1.007825032230

  Basis Set: AUG-CC-PVTZ
    Blend: AUG-CC-PVTZ
  Basis Set: (AUG-CC-PVTZ AUX)
    Blend: AUG-CC-PVTZ-JKFIT
	 Reference Energy          =    -896.6033317544962529 [Eh]
	 Singles Energy            =      -0.0000000000000000 [Eh]
	 Same-Spin Energy          =      -0.5339760108879295 [Eh]
	 Opposite-Spin Energy      =      -1.6209241146529307 [Eh]
	 Correlation Energy        =      -2.1549001255408600 [Eh]
	 Total Energy              =    -898.7582318800371013 [Eh]

	 ================> DF-SCS-MP2 Energies <==================
	-----------------------------------------------------------
	 SCS Same-Spin Scale       =       0.3333333333333333 [-]
	 SCS Opposite-Spin Scale   =       1.2000000000000000 [-]
	 SCS Same-Spin Energy      =      -0.1779920036293098 [Eh]
	 SCS Opposite-Spin Energy  =      -1.9451089375835169 [Eh]
	 SCS Correlation Energy    =      -2.1231009412128268 [Eh]
	 SCS Total Energy          =    -898.7264326957090361 [Eh]
	-----------------------------------------------------------

  Dipole Moment: [D]
     X:     0.5957      Y:     1.8466      Z:     0.0889     Total:     1.9424

*** Psi4 exiting successfully. Buy a developer a beer!
