                               Psi4 1.4a3.dev225

  ==> Input File <==

--------------------------------------------------------------------------
#psi4
#
memory 32 gb

molecule  {
0 1
 Cl        1.0239510     2.3134080    -0.0075990
  O       -2.5545530    -1.5411200    -0.0264400
  N       -1.1683820     0.3068610    -0.0163620
  C        0.1096870    -0.2710340    -0.0061280
  C        1.2343910     0.5769770    -0.0015960
  C        0.3284730    -1.6588570    -0.0015270
  C        2.5300300     0.0689490     0.0091910
  C        1.6277130    -2.1636760     0.0089260
  C        2.7309420    -1.3104680     0.0141480
  C       -2.3977350    -0.3210840    -0.0173950
  C       -3.5624210     0.6474400     0.0363070
  H       -0.5282050    -2.3191560    -0.0064230
  H       -1.1804810     1.3202100    -0.0131680
  H        3.2145318     0.6319062     0.0122114
  H        1.7714720    -3.2410880     0.0123870
  H        3.7417620    -1.7087950     0.0220870
  H       -3.7187230     0.9816890     1.0666350
  H       -4.4568090     0.1237200    -0.3002800
  H       -3.3965620     1.5279900    -0.5904610
units angstrom
no_reorient  #important for SAPT in psi4, default
symmetry c1  #important for SAPT in psi4, default
}

set PROPERTIES_ORIGIN ["COM"]
properties('MP2/aug-cc-pvtz', properties = ['dipole'])
--------------------------------------------------------------------------

    Molecular point group: c1
  Charge       = 0
  Multiplicity = 1
  Basis Set: AUG-CC-PVTZ
    Blend: AUG-CC-PVTZ
  Basis Set: (AUG-CC-PVTZ AUX)
    Blend: AUG-CC-PVTZ-JKFIT

    Orbital Energies [Eh]
    ---------------------

    Doubly Occupied:

       1A   -104.856910     2A    -20.535353     3A    -15.613265
       4A    -11.371495     5A    -11.308194     6A    -11.307059
       7A    -11.248228     8A    -11.247484     9A    -11.243367
      10A    -11.239879    11A    -11.233932    12A    -10.580725
      13A     -8.047590    14A     -8.045845    15A     -8.045745
      16A     -1.390409    17A     -1.271089    18A     -1.183806
      19A     -1.125259    20A     -1.049080    21A     -1.015704
      22A     -0.987143    23A     -0.879033    24A     -0.834421
      25A     -0.801426    26A     -0.739851    27A     -0.696615
      28A     -0.676147    29A     -0.641185    30A     -0.635917
      31A     -0.633498    32A     -0.600332    33A     -0.592025
      34A     -0.574555    35A     -0.570317    36A     -0.542667
      37A     -0.528793    38A     -0.516750    39A     -0.479730
      40A     -0.470951    41A     -0.451226    42A     -0.434486
      43A     -0.344496    44A     -0.318363

  @DF-RHF Final Energy:  -896.57211622886291

   => Energetics <=

    Nuclear Repulsion Energy =            657.4775650097819835
    One-Electron Energy =               -2534.2786741397590049
    Two-Electron Energy =                 980.2289929011141112
    Total Energy =                       -896.5721162288629102
  Basis Set: (AUG-CC-PVTZ AUX)
    Blend: AUG-CC-PVTZ-RI
    Molecular point group: c1

    Geometry (in Angstrom), charge = 0, multiplicity = 1:

       Center              X                  Y                   Z               Mass
    ------------   -----------------  -----------------  -----------------  -----------------
         CL           0.993128480539     2.285847241853    -0.006356238040    34.968852682000
         O           -2.585375519461    -1.568680758147    -0.025197238040    15.994914619570
         N           -1.199204519461     0.279300241853    -0.015119238040    14.003074004430
         C            0.078864480539    -0.298594758147    -0.004885238040    12.000000000000
         C            1.203568480539     0.549416241853    -0.000353238040    12.000000000000
         C            0.297650480539    -1.686417758147    -0.000284238040    12.000000000000
         C            2.499207480539     0.041388241853     0.010433761960    12.000000000000
         C            1.596890480539    -2.191236758147     0.010168761960    12.000000000000
         C            2.700119480539    -1.338028758147     0.015390761960    12.000000000000
         C           -2.428557519461    -0.348644758147    -0.016152238040    12.000000000000
         C           -3.593243519461     0.619879241853     0.037549761960    12.000000000000
         H           -0.559027519461    -2.346716758147    -0.005180238040     1.007825032230
         H           -1.211303519461     1.292649241853    -0.011925238040     1.007825032230
         H            3.183709280539     0.604345441853     0.013454161960     1.007825032230
         H            1.740649480539    -3.268648758147     0.013629761960     1.007825032230
         H            3.710939480539    -1.736355758147     0.023329761960     1.007825032230
         H           -3.749545519461     0.954128241853     1.067877761960     1.007825032230
         H           -4.487631519461     0.096159241853    -0.299037238040     1.007825032230
         H           -3.427384519461     1.500429241853    -0.589218238040     1.007825032230

  Basis Set: AUG-CC-PVTZ
    Blend: AUG-CC-PVTZ
  Basis Set: (AUG-CC-PVTZ AUX)
    Blend: AUG-CC-PVTZ-JKFIT
	 Reference Energy          =    -896.5721162288629102 [Eh]
	 Singles Energy            =      -0.0000000000000000 [Eh]
	 Same-Spin Energy          =      -0.5336876265795998 [Eh]
	 Opposite-Spin Energy      =      -1.6199648827902564 [Eh]
	 Correlation Energy        =      -2.1536525093698562 [Eh]
	 Total Energy              =    -898.7257687382327731 [Eh]

	 ================> DF-SCS-MP2 Energies <==================
	-----------------------------------------------------------
	 SCS Same-Spin Scale       =       0.3333333333333333 [-]
	 SCS Opposite-Spin Scale   =       1.2000000000000000 [-]
	 SCS Same-Spin Energy      =      -0.1778958755265332 [Eh]
	 SCS Opposite-Spin Energy  =      -1.9439578593483076 [Eh]
	 SCS Correlation Energy    =      -2.1218537348748407 [Eh]
	 SCS Total Energy          =    -898.6939699637377998 [Eh]
	-----------------------------------------------------------

  Dipole Moment: [D]
     X:     0.5861      Y:     1.8672      Z:     0.0888     Total:     1.9591

*** Psi4 exiting successfully. Buy a developer a beer!
