                               Psi4 1.4a3.dev225

  ==> Input File <==

--------------------------------------------------------------------------
#psi4
#
memory 32 gb

molecule  {
0 1
 Cl        1.0239510     2.3134080    -0.0075990
  O       -2.5545530    -1.5411200    -0.0264400
  N       -1.1683820     0.3068610    -0.0163620
  C        0.1096870    -0.2710340    -0.0061280
  C        1.2343910     0.5769770    -0.0015960
  C        0.3284730    -1.6588570    -0.0015270
  C        2.5300300     0.0689490     0.0091910
  C        1.6277130    -2.1636760     0.0089260
  C        2.7309420    -1.3104680     0.0141480
  C       -2.4422625    -0.3438283    -0.0174324
  C       -3.5624210     0.6474400     0.0363070
  H       -0.5282050    -2.3191560    -0.0064230
  H       -1.1804810     1.3202100    -0.0131680
  H        3.3690000     0.7589460     0.0128930
  H        1.7714720    -3.2410880     0.0123870
  H        3.7417620    -1.7087950     0.0220870
  H       -3.7187230     0.9816890     1.0666350
  H       -4.4568090     0.1237200    -0.3002800
  H       -3.3965620     1.5279900    -0.5904610
units angstrom
no_reorient  #important for SAPT in psi4, default
symmetry c1  #important for SAPT in psi4, default
}

set PROPERTIES_ORIGIN ["COM"]
properties('MP2/aug-cc-pvtz', properties = ['dipole'])
--------------------------------------------------------------------------

    Molecular point group: c1
  Charge       = 0
  Multiplicity = 1
  Basis Set: AUG-CC-PVTZ
    Blend: AUG-CC-PVTZ
  Basis Set: (AUG-CC-PVTZ AUX)
    Blend: AUG-CC-PVTZ-JKFIT

    Orbital Energies [Eh]
    ---------------------

    Doubly Occupied:

       1A   -104.853170     2A    -20.545783     3A    -15.605321
       4A    -11.375375     5A    -11.305514     6A    -11.303918
       7A    -11.254462     8A    -11.250812     9A    -11.246022
      10A    -11.240394    11A    -11.236692    12A    -10.576989
      13A     -8.043852    14A     -8.042111    15A     -8.042011
      16A     -1.411115    17A     -1.261197    18A     -1.175560
      19A     -1.121960    20A     -1.045694    21A     -1.008087
      22A     -0.986438    23A     -0.862997    24A     -0.826494
      25A     -0.784663    26A     -0.729567    27A     -0.695176
      28A     -0.673791    29A     -0.637250    30A     -0.635863
      31A     -0.622097    32A     -0.607444    33A     -0.588632
      34A     -0.572607    35A     -0.569613    36A     -0.536361
      37A     -0.531077    38A     -0.511856    39A     -0.479786
      40A     -0.467624    41A     -0.453178    42A     -0.440943
      43A     -0.342059    44A     -0.313401

  @DF-RHF Final Energy:  -896.60534464923853

   => Energetics <=

    Nuclear Repulsion Energy =            655.8218011802092633
    One-Electron Energy =               -2531.2243760094161189
    Two-Electron Energy =                 978.7972301799684374
    Total Energy =                       -896.6053446492385319
  Basis Set: (AUG-CC-PVTZ AUX)
    Blend: AUG-CC-PVTZ-RI
    Molecular point group: c1

    Geometry (in Angstrom), charge = 0, multiplicity = 1:

       Center              X                  Y                   Z               Mass
    ------------   -----------------  -----------------  -----------------  -----------------
         CL           0.995368641057     2.286704475410    -0.006357646868    34.968852682000
         O           -2.583135358943    -1.567823524590    -0.025198646868    15.994914619570
         N           -1.196964358943     0.280157475410    -0.015120646868    14.003074004430
         C            0.081104641057    -0.297737524590    -0.004886646868    12.000000000000
         C            1.205808641057     0.550273475410    -0.000354646868    12.000000000000
         C            0.299890641057    -1.685560524590    -0.000285646868    12.000000000000
         C            2.501447641057     0.042245475410     0.010432353132    12.000000000000
         C            1.599130641057    -2.190379524590     0.010167353132    12.000000000000
         C            2.702359641057    -1.337171524590     0.015389353132    12.000000000000
         C           -2.470844858943    -0.370531824590    -0.016191046868    12.000000000000
         C           -3.591003358943     0.620736475410     0.037548353132    12.000000000000
         H           -0.556787358943    -2.345859524590    -0.005181646868     1.007825032230
         H           -1.209063358943     1.293506475410    -0.011926646868     1.007825032230
         H            3.340417641057     0.732242475410     0.014134353132     1.007825032230
         H            1.742889641057    -3.267791524590     0.013628353132     1.007825032230
         H            3.713179641057    -1.735498524590     0.023328353132     1.007825032230
         H           -3.747305358943     0.954985475410     1.067876353132     1.007825032230
         H           -4.485391358943     0.097016475410    -0.299038646868     1.007825032230
         H           -3.425144358943     1.501286475410    -0.589219646868     1.007825032230

  Basis Set: AUG-CC-PVTZ
    Blend: AUG-CC-PVTZ
  Basis Set: (AUG-CC-PVTZ AUX)
    Blend: AUG-CC-PVTZ-JKFIT
	 Reference Energy          =    -896.6053446492385319 [Eh]
	 Singles Energy            =      -0.0000000000000000 [Eh]
	 Same-Spin Energy          =      -0.5336656783255953 [Eh]
	 Opposite-Spin Energy      =      -1.6198440680200907 [Eh]
	 Correlation Energy        =      -2.1535097463456863 [Eh]
	 Total Energy              =    -898.7588543955841942 [Eh]

	 ================> DF-SCS-MP2 Energies <==================
	-----------------------------------------------------------
	 SCS Same-Spin Scale       =       0.3333333333333333 [-]
	 SCS Opposite-Spin Scale   =       1.2000000000000000 [-]
	 SCS Same-Spin Energy      =      -0.1778885594418651 [Eh]
	 SCS Opposite-Spin Energy  =      -1.9438128816241087 [Eh]
	 SCS Correlation Energy    =      -2.1217014410659738 [Eh]
	 SCS Total Energy          =    -898.7270460903044977 [Eh]
	-----------------------------------------------------------

  Dipole Moment: [D]
     X:     0.0247      Y:     1.7144      Z:     0.0902     Total:     1.7170

*** Psi4 exiting successfully. Buy a developer a beer!
