                               Psi4 1.4a3.dev225

  ==> Input File <==

--------------------------------------------------------------------------
#psi4
#
memory 32 gb

molecule  {
0 1
 Cl        1.0239510     2.3134080    -0.0075990
  O       -2.5545530    -1.5411200    -0.0264400
  N       -1.1683820     0.3068610    -0.0163620
  C        0.1096870    -0.2710340    -0.0061280
  C        1.2343910     0.5769770    -0.0015960
  C        0.3284730    -1.6588570    -0.0015270
  C        2.5300300     0.0689490     0.0091910
  C        1.6277130    -2.1636760     0.0089260
  C        2.7467626    -1.2982327     0.0142229
  C       -2.3977350    -0.3210840    -0.0173950
  C       -3.5624210     0.6474400     0.0363070
  H       -0.5282050    -2.3191560    -0.0064230
  H       -1.1804810     1.3202100    -0.0131680
  H        3.3690000     0.7589460     0.0128930
  H        1.7714720    -3.2410880     0.0123870
  H        3.7417620    -1.7087950     0.0220870
  H       -3.7187230     0.9816890     1.0666350
  H       -4.4568090     0.1237200    -0.3002800
  H       -3.3965620     1.5279900    -0.5904610
units angstrom
no_reorient  #important for SAPT in psi4, default
symmetry c1  #important for SAPT in psi4, default
}

set PROPERTIES_ORIGIN ["COM"]
properties('MP2/aug-cc-pvtz', properties = ['dipole'])
--------------------------------------------------------------------------

    Molecular point group: c1
  Charge       = 0
  Multiplicity = 1
  Basis Set: AUG-CC-PVTZ
    Blend: AUG-CC-PVTZ
  Basis Set: (AUG-CC-PVTZ AUX)
    Blend: AUG-CC-PVTZ-JKFIT

    Orbital Energies [Eh]
    ---------------------

    Doubly Occupied:

       1A   -104.856400     2A    -20.535685     3A    -15.613772
       4A    -11.371896     5A    -11.309158     6A    -11.307669
       7A    -11.255955     8A    -11.250526     9A    -11.248469
      10A    -11.244257    11A    -11.240072    12A    -10.580198
      13A     -8.047059    14A     -8.045313    15A     -8.045211
      16A     -1.390777    17A     -1.271452    18A     -1.181594
      19A     -1.123949    20A     -1.045439    21A     -1.009173
      22A     -0.986497    23A     -0.870775    24A     -0.831898
      25A     -0.789632    26A     -0.735887    27A     -0.688327
      28A     -0.677587    29A     -0.636435    30A     -0.633841
      31A     -0.621562    32A     -0.597779    33A     -0.590369
      34A     -0.574796    35A     -0.570700    36A     -0.539144
      37A     -0.528893    38A     -0.513302    39A     -0.479174
      40A     -0.471185    41A     -0.451187    42A     -0.434511
      43A     -0.345043    44A     -0.318106

  @DF-RHF Final Energy:  -896.60641508657454

   => Energetics <=

    Nuclear Repulsion Energy =            656.0734246033167665
    One-Electron Energy =               -2531.6383805159266558
    Two-Electron Energy =                 978.9585408260354598
    Total Energy =                       -896.6064150865745432
  Basis Set: (AUG-CC-PVTZ AUX)
    Blend: AUG-CC-PVTZ-RI
    Molecular point group: c1

    Geometry (in Angstrom), charge = 0, multiplicity = 1:

       Center              X                  Y                   Z               Mass
    ------------   -----------------  -----------------  -----------------  -----------------
         CL           0.991084315242     2.284221149451    -0.006365619444    34.968852682000
         O           -2.587419684758    -1.570306850549    -0.025206619444    15.994914619570
         N           -1.201248684758     0.277674149451    -0.015128619444    14.003074004430
         C            0.076820315242    -0.300220850549    -0.004894619444    12.000000000000
         C            1.201524315242     0.547790149451    -0.000362619444    12.000000000000
         C            0.295606315242    -1.688043850549    -0.000293619444    12.000000000000
         C            2.497163315242     0.039762149451     0.010424380556    12.000000000000
         C            1.594846315242    -2.192862850549     0.010159380556    12.000000000000
         C            2.713895915242    -1.327419550549     0.015456280556    12.000000000000
         C           -2.430601684758    -0.350270850549    -0.016161619444    12.000000000000
         C           -3.595287684758     0.618253149451     0.037540380556    12.000000000000
         H           -0.561071684758    -2.348342850549    -0.005189619444     1.007825032230
         H           -1.213347684758     1.291023149451    -0.011934619444     1.007825032230
         H            3.336133315242     0.729759149451     0.014126380556     1.007825032230
         H            1.738605315242    -3.270274850549     0.013620380556     1.007825032230
         H            3.708895315242    -1.737981850549     0.023320380556     1.007825032230
         H           -3.751589684758     0.952502149451     1.067868380556     1.007825032230
         H           -4.489675684758     0.094533149451    -0.299046619444     1.007825032230
         H           -3.429428684758     1.498803149451    -0.589227619444     1.007825032230

  Basis Set: AUG-CC-PVTZ
    Blend: AUG-CC-PVTZ
  Basis Set: (AUG-CC-PVTZ AUX)
    Blend: AUG-CC-PVTZ-JKFIT
	 Reference Energy          =    -896.6064150865745432 [Eh]
	 Singles Energy            =      -0.0000000000000000 [Eh]
	 Same-Spin Energy          =      -0.5339029139766389 [Eh]
	 Opposite-Spin Energy      =      -1.6205041653520496 [Eh]
	 Correlation Energy        =      -2.1544070793286885 [Eh]
	 Total Energy              =    -898.7608221659032779 [Eh]

	 ================> DF-SCS-MP2 Energies <==================
	-----------------------------------------------------------
	 SCS Same-Spin Scale       =       0.3333333333333333 [-]
	 SCS Opposite-Spin Scale   =       1.2000000000000000 [-]
	 SCS Same-Spin Energy      =      -0.1779676379922130 [Eh]
	 SCS Opposite-Spin Energy  =      -1.9446049984224594 [Eh]
	 SCS Correlation Energy    =      -2.1225726364146724 [Eh]
	 SCS Total Energy          =    -898.7289877229892454 [Eh]
	-----------------------------------------------------------

  Dipole Moment: [D]
     X:     0.5891      Y:     1.8631      Z:     0.0890     Total:     1.9561

*** Psi4 exiting successfully. Buy a developer a beer!
