                               Psi4 1.4a3.dev225

  ==> Input File <==

--------------------------------------------------------------------------
#psi4
#
memory 32 gb

molecule  {
0 1
 Cl        1.0239510     2.3134080    -0.0075990
  O       -2.5545530    -1.5411200    -0.0264400
  N       -1.1683820     0.3068610    -0.0163620
  C        0.1096870    -0.2710340    -0.0061280
  C        1.2343910     0.5769770    -0.0015960
  C        0.3284730    -1.6588570    -0.0015270
  C        2.5300300     0.0689490     0.0091910
  C        1.6277130    -2.1636760     0.0089260
  C        2.8100452    -1.2492917     0.0145224
  C       -2.3977350    -0.3210840    -0.0173950
  C       -3.5624210     0.6474400     0.0363070
  H       -0.5282050    -2.3191560    -0.0064230
  H       -1.1804810     1.3202100    -0.0131680
  H        3.3690000     0.7589460     0.0128930
  H        1.7714720    -3.2410880     0.0123870
  H        3.7417620    -1.7087950     0.0220870
  H       -3.7187230     0.9816890     1.0666350
  H       -4.4568090     0.1237200    -0.3002800
  H       -3.3965620     1.5279900    -0.5904610
units angstrom
no_reorient  #important for SAPT in psi4, default
symmetry c1  #important for SAPT in psi4, default
}

set PROPERTIES_ORIGIN ["COM"]
properties('MP2/aug-cc-pvtz', properties = ['dipole'])
--------------------------------------------------------------------------

    Molecular point group: c1
  Charge       = 0
  Multiplicity = 1
  Basis Set: AUG-CC-PVTZ
    Blend: AUG-CC-PVTZ
  Basis Set: (AUG-CC-PVTZ AUX)
    Blend: AUG-CC-PVTZ-JKFIT

    Orbital Energies [Eh]
    ---------------------

    Doubly Occupied:

       1A   -104.856022     2A    -20.536317     3A    -15.614680
       4A    -11.372711     5A    -11.310776     6A    -11.305871
       7A    -11.258307     8A    -11.251924     9A    -11.248959
      10A    -11.244642    11A    -11.240518    12A    -10.579754
      13A     -8.046617    14A     -8.044878    15A     -8.044768
      16A     -1.391518    17A     -1.272009    18A     -1.180658
      19A     -1.120028    20A     -1.048486    21A     -1.010541
      22A     -0.982025    23A     -0.868812    24A     -0.835853
      25A     -0.788786    26A     -0.735555    27A     -0.688476
      28A     -0.683422    29A     -0.637759    30A     -0.634375
      31A     -0.620549    32A     -0.600497    33A     -0.588459
      34A     -0.574785    35A     -0.571269    36A     -0.543988
      37A     -0.529011    38A     -0.503468    39A     -0.477448
      40A     -0.471593    41A     -0.450287    42A     -0.434351
      43A     -0.348706    44A     -0.314288

  @DF-RHF Final Energy:  -896.59544412722403

   => Energetics <=

    Nuclear Repulsion Energy =            655.3638033695987133
    One-Electron Energy =               -2530.1910013097603951
    Two-Electron Energy =                 978.2317538129375407
    Total Energy =                       -896.5954441272240274
  Basis Set: (AUG-CC-PVTZ AUX)
    Blend: AUG-CC-PVTZ-RI
    Molecular point group: c1

    Geometry (in Angstrom), charge = 0, multiplicity = 1:

       Center              X                  Y                   Z               Mass
    ------------   -----------------  -----------------  -----------------  -----------------
         CL           0.986591658856     2.280746654153    -0.006386882012    34.968852682000
         O           -2.591912341144    -1.573781345847    -0.025227882012    15.994914619570
         N           -1.205741341144     0.274199654153    -0.015149882012    14.003074004430
         C            0.072327658856    -0.303695345847    -0.004915882012    12.000000000000
         C            1.197031658856     0.544315654153    -0.000383882012    12.000000000000
         C            0.291113658856    -1.691518345847    -0.000314882012    12.000000000000
         C            2.492670658856     0.036287654153     0.010403117988    12.000000000000
         C            1.590353658856    -2.196337345847     0.010138117988    12.000000000000
         C            2.772685858856    -1.281953045847     0.015734517988    12.000000000000
         C           -2.435094341144    -0.353745345847    -0.016182882012    12.000000000000
         C           -3.599780341144     0.614778654153     0.037519117988    12.000000000000
         H           -0.565564341144    -2.351817345847    -0.005210882012     1.007825032230
         H           -1.217840341144     1.287548654153    -0.011955882012     1.007825032230
         H            3.331640658856     0.726284654153     0.014105117988     1.007825032230
         H            1.734112658856    -3.273749345847     0.013599117988     1.007825032230
         H            3.704402658856    -1.741456345847     0.023299117988     1.007825032230
         H           -3.756082341144     0.949027654153     1.067847117988     1.007825032230
         H           -4.494168341144     0.091058654153    -0.299067882012     1.007825032230
         H           -3.433921341144     1.495328654153    -0.589248882012     1.007825032230

  Basis Set: AUG-CC-PVTZ
    Blend: AUG-CC-PVTZ
  Basis Set: (AUG-CC-PVTZ AUX)
    Blend: AUG-CC-PVTZ-JKFIT
	 Reference Energy          =    -896.5954441272240274 [Eh]
	 Singles Energy            =      -0.0000000000000000 [Eh]
	 Same-Spin Energy          =      -0.5335836960630386 [Eh]
	 Opposite-Spin Energy      =      -1.6210969520757927 [Eh]
	 Correlation Energy        =      -2.1546806481388314 [Eh]
	 Total Energy              =    -898.7501247753629059 [Eh]

	 ================> DF-SCS-MP2 Energies <==================
	-----------------------------------------------------------
	 SCS Same-Spin Scale       =       0.3333333333333333 [-]
	 SCS Opposite-Spin Scale   =       1.2000000000000000 [-]
	 SCS Same-Spin Energy      =      -0.1778612320210128 [Eh]
	 SCS Opposite-Spin Energy  =      -1.9453163424909512 [Eh]
	 SCS Correlation Energy    =      -2.1231775745119639 [Eh]
	 SCS Total Energy          =    -898.7186217017359695 [Eh]
	-----------------------------------------------------------

  Dipole Moment: [D]
     X:     0.5742      Y:     1.8586      Z:     0.0891     Total:     1.9473

*** Psi4 exiting successfully. Buy a developer a beer!
