                               Psi4 1.4a3.dev225

  ==> Input File <==

--------------------------------------------------------------------------
#psi4
#
memory 32 gb

molecule  {
0 1
 Cl        1.0239510     2.3134080    -0.0075990
  O       -2.5545530    -1.5411200    -0.0264400
  N       -1.1683820     0.3068610    -0.0163620
  C        0.1096870    -0.2710340    -0.0061280
  C        1.1944677     0.5468754    -0.0017569
  C        0.3284730    -1.6588570    -0.0015270
  C        2.5300300     0.0689490     0.0091910
  C        1.6277130    -2.1636760     0.0089260
  C        2.7309420    -1.3104680     0.0141480
  C       -2.3977350    -0.3210840    -0.0173950
  C       -3.5624210     0.6474400     0.0363070
  H       -0.5282050    -2.3191560    -0.0064230
  H       -1.1804810     1.3202100    -0.0131680
  H        3.3690000     0.7589460     0.0128930
  H        1.7714720    -3.2410880     0.0123870
  H        3.7417620    -1.7087950     0.0220870
  H       -3.7187230     0.9816890     1.0666350
  H       -4.4568090     0.1237200    -0.3002800
  H       -3.3965620     1.5279900    -0.5904610
units angstrom
no_reorient  #important for SAPT in psi4, default
symmetry c1  #important for SAPT in psi4, default
}

set PROPERTIES_ORIGIN ["COM"]
properties('MP2/aug-cc-pvtz', properties = ['dipole'])
--------------------------------------------------------------------------

    Molecular point group: c1
  Charge       = 0
  Multiplicity = 1
  Basis Set: AUG-CC-PVTZ
    Blend: AUG-CC-PVTZ
  Basis Set: (AUG-CC-PVTZ AUX)
    Blend: AUG-CC-PVTZ-JKFIT

    Orbital Energies [Eh]
    ---------------------

    Doubly Occupied:

       1A   -104.853831     2A    -20.535270     3A    -15.612790
       4A    -11.371653     5A    -11.307813     6A    -11.303666
       7A    -11.260702     8A    -11.248845     9A    -11.248190
      10A    -11.245713    11A    -11.241922    12A    -10.577346
      13A     -8.044148    14A     -8.042470    15A     -8.042371
      16A     -1.390590    17A     -1.273241    18A     -1.179371
      19A     -1.122592    20A     -1.047451    21A     -1.006791
      22A     -0.991948    23A     -0.873363    24A     -0.831300
      25A     -0.791872    26A     -0.735379    27A     -0.689127
      28A     -0.676564    29A     -0.637748    30A     -0.634228
      31A     -0.624507    32A     -0.597167    33A     -0.586364
      34A     -0.576496    35A     -0.570799    36A     -0.538085
      37A     -0.527250    38A     -0.514040    39A     -0.478279
      40A     -0.468563    41A     -0.451544    42A     -0.434719
      43A     -0.342448    44A     -0.325572

  @DF-RHF Final Energy:  -896.60487636752759

   => Energetics <=

    Nuclear Repulsion Energy =            656.5951526444138153
    One-Electron Energy =               -2532.6918024937417613
    Two-Electron Energy =                 979.4917734818004647
    Total Energy =                       -896.6048763675275950
  Basis Set: (AUG-CC-PVTZ AUX)
    Blend: AUG-CC-PVTZ-RI
    Molecular point group: c1

    Geometry (in Angstrom), charge = 0, multiplicity = 1:

       Center              X                  Y                   Z               Mass
    ------------   -----------------  -----------------  -----------------  -----------------
         CL           0.995041772557     2.287226796251    -0.006348879165    34.968852682000
         O           -2.583462227443    -1.567301203749    -0.025189879165    15.994914619570
         N           -1.197291227443     0.280679796251    -0.015111879165    14.003074004430
         C            0.080777772557    -0.297215203749    -0.004877879165    12.000000000000
         C            1.165558472557     0.520694196251    -0.000506779165    12.000000000000
         C            0.299563772557    -1.685038203749    -0.000276879165    12.000000000000
         C            2.501120772557     0.042767796251     0.010441120835    12.000000000000
         C            1.598803772557    -2.189857203749     0.010176120835    12.000000000000
         C            2.702032772557    -1.336649203749     0.015398120835    12.000000000000
         C           -2.426644227443    -0.347265203749    -0.016144879165    12.000000000000
         C           -3.591330227443     0.621258796251     0.037557120835    12.000000000000
         H           -0.557114227443    -2.345337203749    -0.005172879165     1.007825032230
         H           -1.209390227443     1.294028796251    -0.011917879165     1.007825032230
         H            3.340090772557     0.732764796251     0.014143120835     1.007825032230
         H            1.742562772557    -3.267269203749     0.013637120835     1.007825032230
         H            3.712852772557    -1.734976203749     0.023337120835     1.007825032230
         H           -3.747632227443     0.955507796251     1.067885120835     1.007825032230
         H           -4.485718227443     0.097538796251    -0.299029879165     1.007825032230
         H           -3.425471227443     1.501808796251    -0.589210879165     1.007825032230

  Basis Set: AUG-CC-PVTZ
    Blend: AUG-CC-PVTZ
  Basis Set: (AUG-CC-PVTZ AUX)
    Blend: AUG-CC-PVTZ-JKFIT
	 Reference Energy          =    -896.6048763675275950 [Eh]
	 Singles Energy            =      -0.0000000000000000 [Eh]
	 Same-Spin Energy          =      -0.5335451457286798 [Eh]
	 Opposite-Spin Energy      =      -1.6201908758504036 [Eh]
	 Correlation Energy        =      -2.1537360215790833 [Eh]
	 Total Energy              =    -898.7586123891067018 [Eh]

	 ================> DF-SCS-MP2 Energies <==================
	-----------------------------------------------------------
	 SCS Same-Spin Scale       =       0.3333333333333333 [-]
	 SCS Opposite-Spin Scale   =       1.2000000000000000 [-]
	 SCS Same-Spin Energy      =      -0.1778483819095599 [Eh]
	 SCS Opposite-Spin Energy  =      -1.9442290510204843 [Eh]
	 SCS Correlation Energy    =      -2.1220774329300442 [Eh]
	 SCS Total Energy          =    -898.7269538004576361 [Eh]
	-----------------------------------------------------------

  Dipole Moment: [D]
     X:     0.6407      Y:     1.7309      Z:     0.0898     Total:     1.8479

*** Psi4 exiting successfully. Buy a developer a beer!
