                               Psi4 1.4a3.dev225

  ==> Input File <==

--------------------------------------------------------------------------
#psi4
#
memory 32 gb

molecule  {
0 1
 Cl        1.0239510     2.3134080    -0.0075990
  O       -2.5545530    -1.5411200    -0.0264400
  N       -1.1683820     0.3068610    -0.0163620
  C        0.1096870    -0.2710340    -0.0061280
  C        1.2343910     0.5769770    -0.0015960
  C        0.3284730    -1.6588570    -0.0015270
  C        2.3869447     0.0403884     0.0082994
  C        1.6277130    -2.1636760     0.0089260
  C        2.7309420    -1.3104680     0.0141480
  C       -2.3977350    -0.3210840    -0.0173950
  C       -3.5624210     0.6474400     0.0363070
  H       -0.5282050    -2.3191560    -0.0064230
  H       -1.1804810     1.3202100    -0.0131680
  H        3.3690000     0.7589460     0.0128930
  H        1.7714720    -3.2410880     0.0123870
  H        3.7417620    -1.7087950     0.0220870
  H       -3.7187230     0.9816890     1.0666350
  H       -4.4568090     0.1237200    -0.3002800
  H       -3.3965620     1.5279900    -0.5904610
units angstrom
no_reorient  #important for SAPT in psi4, default
symmetry c1  #important for SAPT in psi4, default
}

set PROPERTIES_ORIGIN ["COM"]
properties('MP2/aug-cc-pvtz', properties = ['dipole'])
--------------------------------------------------------------------------

    Molecular point group: c1
  Charge       = 0
  Multiplicity = 1
  Basis Set: AUG-CC-PVTZ
    Blend: AUG-CC-PVTZ
  Basis Set: (AUG-CC-PVTZ AUX)
    Blend: AUG-CC-PVTZ-JKFIT

    Orbital Energies [Eh]
    ---------------------

    Doubly Occupied:

       1A   -104.858732     2A    -20.535976     3A    -15.614096
       4A    -11.371597     5A    -11.308833     6A    -11.296166
       7A    -11.252612     8A    -11.248515     9A    -11.247860
      10A    -11.242519    11A    -11.235628    12A    -10.582484
      13A     -8.049346    14A     -8.047558    15A     -8.047456
      16A     -1.390742    17A     -1.273510    18A     -1.195344
      19A     -1.128664    20A     -1.043535    21A     -1.018693
      22A     -0.991119    23A     -0.877162    24A     -0.830880
      25A     -0.783715    26A     -0.738781    27A     -0.685412
      28A     -0.679762    29A     -0.643694    30A     -0.634369
      31A     -0.608953    32A     -0.599058    33A     -0.584640
      34A     -0.581171    35A     -0.570413    36A     -0.543787
      37A     -0.533421    38A     -0.487280    39A     -0.481547
      40A     -0.475686    41A     -0.453260    42A     -0.433359
      43A     -0.357675    44A     -0.316013

  @DF-RHF Final Energy:  -896.57930421669425

   => Energetics <=

    Nuclear Repulsion Energy =            659.3447263628258952
    One-Electron Energy =               -2538.0860169201514509
    Two-Electron Energy =                 982.1619863406313016
    Total Energy =                       -896.5793042166942541
  Basis Set: (AUG-CC-PVTZ AUX)
    Blend: AUG-CC-PVTZ-RI
    Molecular point group: c1

    Geometry (in Angstrom), charge = 0, multiplicity = 1:

       Center              X                  Y                   Z               Mass
    ------------   -----------------  -----------------  -----------------  -----------------
         CL           1.002365609094     2.287117395191    -0.006297004179    34.968852682000
         O           -2.576138390906    -1.567410604809    -0.025138004179    15.994914619570
         N           -1.189967390906     0.280570395191    -0.015060004179    14.003074004430
         C            0.088101609094    -0.297324604809    -0.004826004179    12.000000000000
         C            1.212805609094     0.550686395191    -0.000294004179    12.000000000000
         C            0.306887609094    -1.685147604809    -0.000225004179    12.000000000000
         C            2.365359309094     0.014097795191     0.009601395821    12.000000000000
         C            1.606127609094    -2.189966604809     0.010227995821    12.000000000000
         C            2.709356609094    -1.336758604809     0.015449995821    12.000000000000
         C           -2.419320390906    -0.347374604809    -0.016093004179    12.000000000000
         C           -3.584006390906     0.621149395191     0.037608995821    12.000000000000
         H           -0.549790390906    -2.345446604809    -0.005121004179     1.007825032230
         H           -1.202066390906     1.293919395191    -0.011866004179     1.007825032230
         H            3.347414609094     0.732655395191     0.014194995821     1.007825032230
         H            1.749886609094    -3.267378604809     0.013688995821     1.007825032230
         H            3.720176609094    -1.735085604809     0.023388995821     1.007825032230
         H           -3.740308390906     0.955398395191     1.067936995821     1.007825032230
         H           -4.478394390906     0.097429395191    -0.298978004179     1.007825032230
         H           -3.418147390906     1.501699395191    -0.589159004179     1.007825032230

  Basis Set: AUG-CC-PVTZ
    Blend: AUG-CC-PVTZ
  Basis Set: (AUG-CC-PVTZ AUX)
    Blend: AUG-CC-PVTZ-JKFIT
	 Reference Energy          =    -896.5793042166942541 [Eh]
	 Singles Energy            =      -0.0000000000000000 [Eh]
	 Same-Spin Energy          =      -0.5343003394929708 [Eh]
	 Opposite-Spin Energy      =      -1.6210714666804686 [Eh]
	 Correlation Energy        =      -2.1553718061734397 [Eh]
	 Total Energy              =    -898.7346760228676885 [Eh]

	 ================> DF-SCS-MP2 Energies <==================
	-----------------------------------------------------------
	 SCS Same-Spin Scale       =       0.3333333333333333 [-]
	 SCS Opposite-Spin Scale   =       1.2000000000000000 [-]
	 SCS Same-Spin Energy      =      -0.1781001131643236 [Eh]
	 SCS Opposite-Spin Energy  =      -1.9452857600165623 [Eh]
	 SCS Correlation Energy    =      -2.1233858731808857 [Eh]
	 SCS Total Energy          =    -898.7026900898750910 [Eh]
	-----------------------------------------------------------

  Dipole Moment: [D]
     X:     0.5612      Y:     1.8468      Z:     0.0885     Total:     1.9322

*** Psi4 exiting successfully. Buy a developer a beer!
