                               Psi4 1.4a3.dev225

  ==> Input File <==

--------------------------------------------------------------------------
#psi4
#
memory 32 gb

molecule  {
0 1
 Cl        1.0239510     2.3134080    -0.0075990
  O       -2.5545530    -1.5411200    -0.0264400
  N       -1.1683820     0.3068610    -0.0163620
  C        0.1096870    -0.2710340    -0.0061280
  C        1.2343910     0.5769770    -0.0015960
  C        0.3284730    -1.6588570    -0.0015270
  C        2.5300300     0.0689490     0.0091910
  C        1.6277130    -2.1636760     0.0089260
  C        2.7309420    -1.3104680     0.0141480
  C       -2.3977350    -0.3210840    -0.0173950
  C       -3.5624210     0.6474400     0.0363070
  H       -0.5282050    -2.3191560    -0.0064230
  H       -1.1804810     1.3202100    -0.0131680
  H        3.3690000     0.7589460     0.0128930
  H        1.7714720    -3.2410880     0.0123870
  H        3.7417620    -1.7087950     0.0220870
  H       -3.7097633     1.0534037     1.0418975
  H       -4.4568090     0.1237200    -0.3002800
  H       -3.3965620     1.5279900    -0.5904610
units angstrom
no_reorient  #important for SAPT in psi4, default
symmetry c1  #important for SAPT in psi4, default
}

set PROPERTIES_ORIGIN ["COM"]
properties('MP2/aug-cc-pvtz', properties = ['dipole'])
--------------------------------------------------------------------------

    Molecular point group: c1
  Charge       = 0
  Multiplicity = 1
  Basis Set: AUG-CC-PVTZ
    Blend: AUG-CC-PVTZ
  Basis Set: (AUG-CC-PVTZ AUX)
    Blend: AUG-CC-PVTZ-JKFIT

    Orbital Energies [Eh]
    ---------------------

    Doubly Occupied:

       1A   -104.856534     2A    -20.536074     3A    -15.613604
       4A    -11.372286     5A    -11.309061     6A    -11.307928
       7A    -11.257052     8A    -11.248343     9A    -11.248311
      10A    -11.244087    11A    -11.239970    12A    -10.580349
      13A     -8.047210    14A     -8.045463    15A     -8.045362
      16A     -1.390922    17A     -1.271435    18A     -1.181929
      19A     -1.125206    20A     -1.044832    21A     -1.008902
      22A     -0.987531    23A     -0.871634    24A     -0.830700
      25A     -0.790227    26A     -0.736075    27A     -0.690363
      28A     -0.676366    29A     -0.637036    30A     -0.631438
      31A     -0.621843    32A     -0.598684    33A     -0.591115
      34A     -0.574188    35A     -0.569530    36A     -0.538553
      37A     -0.527808    38A     -0.514017    39A     -0.479778
      40A     -0.470985    41A     -0.451667    42A     -0.435409
      43A     -0.344655    44A     -0.318855

  @DF-RHF Final Energy:  -896.60632989938767

   => Energetics <=

    Nuclear Repulsion Energy =            656.2297317880670562
    One-Electron Energy =               -2531.9454882839299898
    Two-Electron Energy =                 979.1094265964752594
    Total Energy =                       -896.6063298993876742
  Basis Set: (AUG-CC-PVTZ AUX)
    Blend: AUG-CC-PVTZ-RI
    Molecular point group: c1

    Geometry (in Angstrom), charge = 0, multiplicity = 1:

       Center              X                  Y                   Z               Mass
    ------------   -----------------  -----------------  -----------------  -----------------
         CL           0.992154054267     2.284662183448    -0.006212806588    34.968852682000
         O           -2.586349945733    -1.569865816552    -0.025053806588    15.994914619570
         N           -1.200178945733     0.278115183448    -0.014975806588    14.003074004430
         C            0.077890054267    -0.299779816552    -0.004741806588    12.000000000000
         C            1.202594054267     0.548231183448    -0.000209806588    12.000000000000
         C            0.296676054267    -1.687602816552    -0.000140806588    12.000000000000
         C            2.498233054267     0.040203183448     0.010577193412    12.000000000000
         C            1.595916054267    -2.192421816552     0.010312193412    12.000000000000
         C            2.699145054267    -1.339213816552     0.015534193412    12.000000000000
         C           -2.429531945733    -0.349829816552    -0.016008806588    12.000000000000
         C           -3.594217945733     0.618694183448     0.037693193412    12.000000000000
         H           -0.560001945733    -2.347901816552    -0.005036806588     1.007825032230
         H           -1.212277945733     1.291464183448    -0.011781806588     1.007825032230
         H            3.337203054267     0.730200183448     0.014279193412     1.007825032230
         H            1.739675054267    -3.269833816552     0.013773193412     1.007825032230
         H            3.709965054267    -1.737540816552     0.023473193412     1.007825032230
         H           -3.741560245733     1.024657883448     1.043283693412     1.007825032230
         H           -4.488605945733     0.094974183448    -0.298893806588     1.007825032230
         H           -3.428358945733     1.499244183448    -0.589074806588     1.007825032230

  Basis Set: AUG-CC-PVTZ
    Blend: AUG-CC-PVTZ
  Basis Set: (AUG-CC-PVTZ AUX)
    Blend: AUG-CC-PVTZ-JKFIT
	 Reference Energy          =    -896.6063298993876742 [Eh]
	 Singles Energy            =      -0.0000000000000000 [Eh]
	 Same-Spin Energy          =      -0.5339836990660234 [Eh]
	 Opposite-Spin Energy      =      -1.6204961808426108 [Eh]
	 Correlation Energy        =      -2.1544798799086342 [Eh]
	 Total Energy              =    -898.7608097792963235 [Eh]

	 ================> DF-SCS-MP2 Energies <==================
	-----------------------------------------------------------
	 SCS Same-Spin Scale       =       0.3333333333333333 [-]
	 SCS Opposite-Spin Scale   =       1.2000000000000000 [-]
	 SCS Same-Spin Energy      =      -0.1779945663553411 [Eh]
	 SCS Opposite-Spin Energy  =      -1.9445954170111328 [Eh]
	 SCS Correlation Energy    =      -2.1225899833664741 [Eh]
	 SCS Total Energy          =    -898.7289198827540986 [Eh]
	-----------------------------------------------------------

  Dipole Moment: [D]
     X:     0.6009      Y:     1.8902      Z:     0.0842     Total:     1.9852

*** Psi4 exiting successfully. Buy a developer a beer!
