                               Psi4 1.4a3.dev225

  ==> Input File <==

--------------------------------------------------------------------------
#psi4
#
memory 32 gb

molecule  {
0 1
 Cl        1.0239510     2.3134080    -0.0075990
  O       -2.5545530    -1.5411200    -0.0264400
  N       -1.1683820     0.3068610    -0.0163620
  C        0.1096870    -0.2710340    -0.0061280
  C        1.2343910     0.5769770    -0.0015960
  C        0.3284730    -1.6588570    -0.0015270
  C        2.5300300     0.0689490     0.0091910
  C        1.6277130    -2.1636760     0.0089260
  C        2.7309420    -1.3104680     0.0141480
  C       -2.3977350    -0.3210840    -0.0173950
  C       -3.5624210     0.6474400     0.0363070
  H       -0.5123644    -2.3069466    -0.0063325
  H       -1.1804810     1.3202100    -0.0131680
  H        3.3690000     0.7589460     0.0128930
  H        1.7714720    -3.2410880     0.0123870
  H        3.7417620    -1.7087950     0.0220870
  H       -3.7187230     0.9816890     1.0666350
  H       -4.4568090     0.1237200    -0.3002800
  H       -3.3965620     1.5279900    -0.5904610
units angstrom
no_reorient  #important for SAPT in psi4, default
symmetry c1  #important for SAPT in psi4, default
}

set PROPERTIES_ORIGIN ["COM"]
properties('MP2/aug-cc-pvtz', properties = ['dipole'])
--------------------------------------------------------------------------

    Molecular point group: c1
  Charge       = 0
  Multiplicity = 1
  Basis Set: AUG-CC-PVTZ
    Blend: AUG-CC-PVTZ
  Basis Set: (AUG-CC-PVTZ AUX)
    Blend: AUG-CC-PVTZ-JKFIT

    Orbital Energies [Eh]
    ---------------------

    Doubly Occupied:

       1A   -104.856480     2A    -20.535520     3A    -15.613555
       4A    -11.371626     5A    -11.308998     6A    -11.307866
       7A    -11.257088     8A    -11.248322     9A    -11.248309
      10A    -11.244073    11A    -11.238058    12A    -10.580295
      13A     -8.047156    14A     -8.045409    15A     -8.045308
      16A     -1.390515    17A     -1.271338    18A     -1.181898
      19A     -1.125343    20A     -1.045052    21A     -1.009426
      22A     -0.987572    23A     -0.872217    24A     -0.830957
      25A     -0.790437    26A     -0.735992    27A     -0.688423
      28A     -0.677730    29A     -0.636313    30A     -0.633687
      31A     -0.623347    32A     -0.597502    33A     -0.591426
      34A     -0.574816    35A     -0.570544    36A     -0.538797
      37A     -0.528851    38A     -0.514559    39A     -0.479732
      40A     -0.470983    41A     -0.451508    42A     -0.434963
      43A     -0.344706    44A     -0.318859

  @DF-RHF Final Energy:  -896.60712562872402

   => Energetics <=

    Nuclear Repulsion Energy =            656.3550939602118888
    One-Electron Energy =               -2532.1933274059156247
    Two-Electron Energy =                 979.2311078169797156
    Total Energy =                       -896.6071256287240203
  Basis Set: (AUG-CC-PVTZ AUX)
    Blend: AUG-CC-PVTZ-RI
    Molecular point group: c1

    Geometry (in Angstrom), charge = 0, multiplicity = 1:

       Center              X                  Y                   Z               Mass
    ------------   -----------------  -----------------  -----------------  -----------------
         CL           0.992113027430     2.285016979218    -0.006360841626    34.968852682000
         O           -2.586390972570    -1.569511020782    -0.025201841626    15.994914619570
         N           -1.200219972570     0.278469979218    -0.015123841626    14.003074004430
         C            0.077849027430    -0.299425020782    -0.004889841626    12.000000000000
         C            1.202553027430     0.548585979218    -0.000357841626    12.000000000000
         C            0.296635027430    -1.687248020782    -0.000288841626    12.000000000000
         C            2.498192027430     0.040557979218     0.010429158374    12.000000000000
         C            1.595875027430    -2.192067020782     0.010164158374    12.000000000000
         C            2.699104027430    -1.338859020782     0.015386158374    12.000000000000
         C           -2.429572972570    -0.349475020782    -0.016156841626    12.000000000000
         C           -3.594258972570     0.619048979218     0.037545158374    12.000000000000
         H           -0.544202372570    -2.335337620782    -0.005094341626     1.007825032230
         H           -1.212318972570     1.291818979218    -0.011929841626     1.007825032230
         H            3.337162027430     0.730554979218     0.014131158374     1.007825032230
         H            1.739634027430    -3.269479020782     0.013625158374     1.007825032230
         H            3.709924027430    -1.737186020782     0.023325158374     1.007825032230
         H           -3.750560972570     0.953297979218     1.067873158374     1.007825032230
         H           -4.488646972570     0.095328979218    -0.299041841626     1.007825032230
         H           -3.428399972570     1.499598979218    -0.589222841626     1.007825032230

  Basis Set: AUG-CC-PVTZ
    Blend: AUG-CC-PVTZ
  Basis Set: (AUG-CC-PVTZ AUX)
    Blend: AUG-CC-PVTZ-JKFIT
	 Reference Energy          =    -896.6071256287240203 [Eh]
	 Singles Energy            =      -0.0000000000000000 [Eh]
	 Same-Spin Energy          =      -0.5338668439475441 [Eh]
	 Opposite-Spin Energy      =      -1.6202911051790028 [Eh]
	 Correlation Energy        =      -2.1541579491265468 [Eh]
	 Total Energy              =    -898.7612835778505769 [Eh]

	 ================> DF-SCS-MP2 Energies <==================
	-----------------------------------------------------------
	 SCS Same-Spin Scale       =       0.3333333333333333 [-]
	 SCS Opposite-Spin Scale   =       1.2000000000000000 [-]
	 SCS Same-Spin Energy      =      -0.1779556146491814 [Eh]
	 SCS Opposite-Spin Energy  =      -1.9443493262148033 [Eh]
	 SCS Correlation Energy    =      -2.1223049408639847 [Eh]
	 SCS Total Energy          =    -898.7294305695879757 [Eh]
	-----------------------------------------------------------

  Dipole Moment: [D]
     X:     0.6020      Y:     1.8674      Z:     0.0890     Total:     1.9640

*** Psi4 exiting successfully. Buy a developer a beer!
