                               Psi4 1.4a3.dev225

  ==> Input File <==

--------------------------------------------------------------------------
#psi4
#
memory 32 gb

molecule  {
0 1
 Cl        1.0239510     2.3134080    -0.0075990
  O       -2.5545530    -1.5411200    -0.0264400
  N       -1.1683820     0.3068610    -0.0163620
  C        0.1096870    -0.2710340    -0.0061280
  C        1.2343910     0.5769770    -0.0015960
  C        0.3284730    -1.6588570    -0.0015270
  C        2.5059869     0.0652320     0.0090364
  C        1.6277130    -2.1636760     0.0089260
  C        2.7309420    -1.3104680     0.0141480
  C       -2.3977350    -0.3210840    -0.0173950
  C       -3.5624210     0.6474400     0.0363070
  H       -0.5282050    -2.3191560    -0.0064230
  H       -1.1804810     1.3202100    -0.0131680
  H        3.3690000     0.7589460     0.0128930
  H        1.7714720    -3.2410880     0.0123870
  H        3.7417620    -1.7087950     0.0220870
  H       -3.7187230     0.9816890     1.0666350
  H       -4.4568090     0.1237200    -0.3002800
  H       -3.3965620     1.5279900    -0.5904610
units angstrom
no_reorient  #important for SAPT in psi4, default
symmetry c1  #important for SAPT in psi4, default
}

set PROPERTIES_ORIGIN ["COM"]
properties('MP2/aug-cc-pvtz', properties = ['dipole'])
--------------------------------------------------------------------------

    Molecular point group: c1
  Charge       = 0
  Multiplicity = 1
  Basis Set: AUG-CC-PVTZ
    Blend: AUG-CC-PVTZ
  Basis Set: (AUG-CC-PVTZ AUX)
    Blend: AUG-CC-PVTZ-JKFIT

    Orbital Energies [Eh]
    ---------------------

    Doubly Occupied:

       1A   -104.856827     2A    -20.535584     3A    -15.613627
       4A    -11.371659     5A    -11.308615     6A    -11.306325
       7A    -11.256195     8A    -11.248362     9A    -11.248125
      10A    -11.243587    11A    -11.239146    12A    -10.580632
      13A     -8.047494    14A     -8.045741    15A     -8.045639
      16A     -1.390594    17A     -1.271586    18A     -1.183856
      19A     -1.125648    20A     -1.044616    21A     -1.009783
      22A     -0.988486    23A     -0.872079    24A     -0.830880
      25A     -0.788754    26A     -0.736198    27A     -0.687916
      28A     -0.676843    29A     -0.637428    30A     -0.633786
      31A     -0.618381    32A     -0.596182    33A     -0.591876
      34A     -0.575643    35A     -0.570475    36A     -0.539093
      37A     -0.529596    38A     -0.511069    39A     -0.479967
      40A     -0.471959    41A     -0.451743    42A     -0.434382
      43A     -0.346551    44A     -0.318383

  @DF-RHF Final Energy:  -896.60639734621168

   => Energetics <=

    Nuclear Repulsion Energy =            656.7625353044912799
    One-Electron Energy =               -2533.0152476389198455
    Two-Electron Energy =                 979.6463149882167727
    Total Energy =                       -896.6063973462116792
  Basis Set: (AUG-CC-PVTZ AUX)
    Blend: AUG-CC-PVTZ-RI
    Molecular point group: c1

    Geometry (in Angstrom), charge = 0, multiplicity = 1:

       Center              X                  Y                   Z               Mass
    ------------   -----------------  -----------------  -----------------  -----------------
         CL           0.993914380795     2.285353659849    -0.006349326424    34.968852682000
         O           -2.584589619205    -1.569174340151    -0.025190326424    15.994914619570
         N           -1.198418619205     0.278806659849    -0.015112326424    14.003074004430
         C            0.079650380795    -0.299088340151    -0.004878326424    12.000000000000
         C            1.204354380795     0.548922659849    -0.000346326424    12.000000000000
         C            0.298436380795    -1.686911340151    -0.000277326424    12.000000000000
         C            2.475950280795     0.037177659849     0.010286073576    12.000000000000
         C            1.597676380795    -2.191730340151     0.010175673576    12.000000000000
         C            2.700905380795    -1.338522340151     0.015397673576    12.000000000000
         C           -2.427771619205    -0.349138340151    -0.016145326424    12.000000000000
         C           -3.592457619205     0.619385659849     0.037556673576    12.000000000000
         H           -0.558241619205    -2.347210340151    -0.005173326424     1.007825032230
         H           -1.210517619205     1.292155659849    -0.011918326424     1.007825032230
         H            3.338963380795     0.730891659849     0.014142673576     1.007825032230
         H            1.741435380795    -3.269142340151     0.013636673576     1.007825032230
         H            3.711725380795    -1.736849340151     0.023336673576     1.007825032230
         H           -3.748759619205     0.953634659849     1.067884673576     1.007825032230
         H           -4.486845619205     0.095665659849    -0.299030326424     1.007825032230
         H           -3.426598619205     1.499935659849    -0.589211326424     1.007825032230

  Basis Set: AUG-CC-PVTZ
    Blend: AUG-CC-PVTZ
  Basis Set: (AUG-CC-PVTZ AUX)
    Blend: AUG-CC-PVTZ-JKFIT
	 Reference Energy          =    -896.6063973462116792 [Eh]
	 Singles Energy            =      -0.0000000000000000 [Eh]
	 Same-Spin Energy          =      -0.5339693432508525 [Eh]
	 Opposite-Spin Energy      =      -1.6203572876013999 [Eh]
	 Correlation Energy        =      -2.1543266308522524 [Eh]
	 Total Energy              =    -898.7607239770638898 [Eh]

	 ================> DF-SCS-MP2 Energies <==================
	-----------------------------------------------------------
	 SCS Same-Spin Scale       =       0.3333333333333333 [-]
	 SCS Opposite-Spin Scale   =       1.2000000000000000 [-]
	 SCS Same-Spin Energy      =      -0.1779897810836175 [Eh]
	 SCS Opposite-Spin Energy  =      -1.9444287451216797 [Eh]
	 SCS Correlation Energy    =      -2.1224185262052973 [Eh]
	 SCS Total Energy          =    -898.7288158724169307 [Eh]
	-----------------------------------------------------------

  Dipole Moment: [D]
     X:     0.5894      Y:     1.8660      Z:     0.0889     Total:     1.9589

*** Psi4 exiting successfully. Buy a developer a beer!
