                               Psi4 1.4a3.dev225

  ==> Input File <==

--------------------------------------------------------------------------
#psi4
#
memory 32 gb

molecule  {
0 1
 Cl        1.0239510     2.3134080    -0.0075990
  O       -2.5545530    -1.5411200    -0.0264400
  N       -1.1683820     0.3068610    -0.0163620
  C        0.1096870    -0.2710340    -0.0061280
  C        1.2343910     0.5769770    -0.0015960
  C        0.3284730    -1.6588570    -0.0015270
  C        2.5300300     0.0689490     0.0091910
  C        1.6277130    -2.1636760     0.0089260
  C        2.7309420    -1.3104680     0.0141480
  C       -2.3977350    -0.3210840    -0.0173950
  C       -3.5624210     0.6474400     0.0363070
  H       -0.5282050    -2.3191560    -0.0064230
  H       -1.1804810     1.3202100    -0.0131680
  H        3.3303830     0.7271860     0.0127226
  H        1.7714720    -3.2410880     0.0123870
  H        3.7417620    -1.7087950     0.0220870
  H       -3.7187230     0.9816890     1.0666350
  H       -4.4568090     0.1237200    -0.3002800
  H       -3.3965620     1.5279900    -0.5904610
units angstrom
no_reorient  #important for SAPT in psi4, default
symmetry c1  #important for SAPT in psi4, default
}

set PROPERTIES_ORIGIN ["COM"]
properties('MP2/aug-cc-pvtz', properties = ['dipole'])
--------------------------------------------------------------------------

    Molecular point group: c1
  Charge       = 0
  Multiplicity = 1
  Basis Set: AUG-CC-PVTZ
    Blend: AUG-CC-PVTZ
  Basis Set: (AUG-CC-PVTZ AUX)
    Blend: AUG-CC-PVTZ-JKFIT

    Orbital Energies [Eh]
    ---------------------

    Doubly Occupied:

       1A   -104.856573     2A    -20.535468     3A    -15.613460
       4A    -11.371624     5A    -11.308739     6A    -11.307603
       7A    -11.251357     8A    -11.248304     9A    -11.248027
      10A    -11.243757    11A    -11.239861    12A    -10.580389
      13A     -8.047251    14A     -8.045505    15A     -8.045404
      16A     -1.390527    17A     -1.271233    18A     -1.182182
      19A     -1.125125    20A     -1.045485    21A     -1.010218
      22A     -0.987431    23A     -0.872716    24A     -0.831220
      25A     -0.792357    26A     -0.736785    27A     -0.690159
      28A     -0.676261    29A     -0.636149    30A     -0.633653
      31A     -0.626628    32A     -0.598321    33A     -0.591554
      34A     -0.574718    35A     -0.570395    36A     -0.539653
      37A     -0.528831    38A     -0.514950    39A     -0.479704
      40A     -0.470926    41A     -0.451416    42A     -0.434471
      43A     -0.344512    44A     -0.318692

  @DF-RHF Final Energy:  -896.60619529872974

   => Energetics <=

    Nuclear Repulsion Energy =            656.5378895678283016
    One-Electron Energy =               -2532.5489829958755763
    Two-Electron Energy =                 979.4048981293176439
    Total Energy =                       -896.6061952987297445
  Basis Set: (AUG-CC-PVTZ AUX)
    Blend: AUG-CC-PVTZ-RI
    Molecular point group: c1

    Geometry (in Angstrom), charge = 0, multiplicity = 1:

       Center              X                  Y                   Z               Mass
    ------------   -----------------  -----------------  -----------------  -----------------
         CL           0.992437726678     2.285279143381    -0.006359286030    34.968852682000
         O           -2.586066273322    -1.569248856619    -0.025200286030    15.994914619570
         N           -1.199895273322     0.278732143381    -0.015122286030    14.003074004430
         C            0.078173726678    -0.299162856619    -0.004888286030    12.000000000000
         C            1.202877726678     0.548848143381    -0.000356286030    12.000000000000
         C            0.296959726678    -1.686985856619    -0.000287286030    12.000000000000
         C            2.498516726678     0.040820143381     0.010430713970    12.000000000000
         C            1.596199726678    -2.191804856619     0.010165713970    12.000000000000
         C            2.699428726678    -1.338596856619     0.015387713970    12.000000000000
         C           -2.429248273322    -0.349212856619    -0.016155286030    12.000000000000
         C           -3.593934273322     0.619311143381     0.037546713970    12.000000000000
         H           -0.559718273322    -2.347284856619    -0.005183286030     1.007825032230
         H           -1.211994273322     1.292081143381    -0.011928286030     1.007825032230
         H            3.298869726678     0.699057143381     0.013962313970     1.007825032230
         H            1.739958726678    -3.269216856619     0.013626713970     1.007825032230
         H            3.710248726678    -1.736923856619     0.023326713970     1.007825032230
         H           -3.750236273322     0.953560143381     1.067874713970     1.007825032230
         H           -4.488322273322     0.095591143381    -0.299040286030     1.007825032230
         H           -3.428075273322     1.499861143381    -0.589221286030     1.007825032230

  Basis Set: AUG-CC-PVTZ
    Blend: AUG-CC-PVTZ
  Basis Set: (AUG-CC-PVTZ AUX)
    Blend: AUG-CC-PVTZ-JKFIT
	 Reference Energy          =    -896.6061952987297445 [Eh]
	 Singles Energy            =      -0.0000000000000000 [Eh]
	 Same-Spin Energy          =      -0.5338468528481574 [Eh]
	 Opposite-Spin Energy      =      -1.6201552360025167 [Eh]
	 Correlation Energy        =      -2.1540020888506741 [Eh]
	 Total Energy              =    -898.7601973875804333 [Eh]

	 ================> DF-SCS-MP2 Energies <==================
	-----------------------------------------------------------
	 SCS Same-Spin Scale       =       0.3333333333333333 [-]
	 SCS Opposite-Spin Scale   =       1.2000000000000000 [-]
	 SCS Same-Spin Energy      =      -0.1779489509493858 [Eh]
	 SCS Opposite-Spin Energy  =      -1.9441862832030199 [Eh]
	 SCS Correlation Energy    =      -2.1221352341524056 [Eh]
	 SCS Total Energy          =    -898.7283305328821825 [Eh]
	-----------------------------------------------------------

  Dipole Moment: [D]
     X:     0.5945      Y:     1.8679      Z:     0.0889     Total:     1.9623

*** Psi4 exiting successfully. Buy a developer a beer!
