                               Psi4 1.4a3.dev225

  ==> Input File <==

--------------------------------------------------------------------------
#psi4
#
memory 32 gb

molecule  {
0 1
 Cl        1.0239510     2.3134080    -0.0075990
  O       -2.5545530    -1.5411200    -0.0264400
  N       -1.1683820     0.3068610    -0.0163620
  C        0.1096870    -0.2710340    -0.0061280
  C        1.2343910     0.5769770    -0.0015960
  C        0.3284730    -1.6588570    -0.0015270
  C        2.5300300     0.0689490     0.0091910
  C        1.6277130    -2.1636760     0.0089260
  C        2.7309420    -1.3104680     0.0141480
  C       -2.3977350    -0.3210840    -0.0173950
  C       -3.5624210     0.6474400     0.0363070
  H       -0.5282050    -2.3191560    -0.0064230
  H       -1.1804810     1.3202100    -0.0131680
  H        3.3690000     0.7589460     0.0128930
  H        1.7741171    -3.2609122     0.0124507
  H        3.7417620    -1.7087950     0.0220870
  H       -3.7187230     0.9816890     1.0666350
  H       -4.4568090     0.1237200    -0.3002800
  H       -3.3965620     1.5279900    -0.5904610
units angstrom
no_reorient  #important for SAPT in psi4, default
symmetry c1  #important for SAPT in psi4, default
}

set PROPERTIES_ORIGIN ["COM"]
properties('MP2/aug-cc-pvtz', properties = ['dipole'])
--------------------------------------------------------------------------

    Molecular point group: c1
  Charge       = 0
  Multiplicity = 1
  Basis Set: AUG-CC-PVTZ
    Blend: AUG-CC-PVTZ
  Basis Set: (AUG-CC-PVTZ AUX)
    Blend: AUG-CC-PVTZ-JKFIT

    Orbital Energies [Eh]
    ---------------------

    Doubly Occupied:

       1A   -104.856536     2A    -20.535575     3A    -15.613628
       4A    -11.371740     5A    -11.309114     6A    -11.307978
       7A    -11.257145     8A    -11.250533     9A    -11.248382
      10A    -11.244270    11A    -11.240105    12A    -10.580350
      13A     -8.047211    14A     -8.045464    15A     -8.045364
      16A     -1.390638    17A     -1.271395    18A     -1.181934
      19A     -1.125072    20A     -1.044951    21A     -1.008590
      22A     -0.987337    23A     -0.871540    24A     -0.829858
      25A     -0.789873    26A     -0.734617    27A     -0.688377
      28A     -0.676306    29A     -0.636376    30A     -0.633759
      31A     -0.620964    32A     -0.597152    33A     -0.589699
      34A     -0.574886    35A     -0.570481    36A     -0.538422
      37A     -0.528932    38A     -0.512685    39A     -0.479803
      40A     -0.470974    41A     -0.451612    42A     -0.434522
      43A     -0.344709    44A     -0.318941

  @DF-RHF Final Energy:  -896.60630144245079

   => Energetics <=

    Nuclear Repulsion Energy =            656.1548924531959983
    One-Electron Energy =               -2531.8067828873254257
    Two-Electron Energy =                 979.0455889916786418
    Total Energy =                       -896.6063014424507855
  Basis Set: (AUG-CC-PVTZ AUX)
    Blend: AUG-CC-PVTZ-RI
    Molecular point group: c1

    Geometry (in Angstrom), charge = 0, multiplicity = 1:

       Center              X                  Y                   Z               Mass
    ------------   -----------------  -----------------  -----------------  -----------------
         CL           0.992191704583     2.285207977092    -0.006360681833    34.968852682000
         O           -2.586312295417    -1.569320022908    -0.025201681833    15.994914619570
         N           -1.200141295417     0.278660977092    -0.015123681833    14.003074004430
         C            0.077927704583    -0.299234022908    -0.004889681833    12.000000000000
         C            1.202631704583     0.548776977092    -0.000357681833    12.000000000000
         C            0.296713704583    -1.687057022908    -0.000288681833    12.000000000000
         C            2.498270704583     0.040748977092     0.010429318167    12.000000000000
         C            1.595953704583    -2.191876022908     0.010164318167    12.000000000000
         C            2.699182704583    -1.338668022908     0.015386318167    12.000000000000
         C           -2.429494295417    -0.349284022908    -0.016156681833    12.000000000000
         C           -3.594180295417     0.619239977092     0.037545318167    12.000000000000
         H           -0.559964295417    -2.347356022908    -0.005184681833     1.007825032230
         H           -1.212240295417     1.292009977092    -0.011929681833     1.007825032230
         H            3.337240704583     0.730745977092     0.014131318167     1.007825032230
         H            1.742357804583    -3.289112222908     0.013689018167     1.007825032230
         H            3.710002704583    -1.736995022908     0.023325318167     1.007825032230
         H           -3.750482295417     0.953488977092     1.067873318167     1.007825032230
         H           -4.488568295417     0.095519977092    -0.299041681833     1.007825032230
         H           -3.428321295417     1.499789977092    -0.589222681833     1.007825032230

  Basis Set: AUG-CC-PVTZ
    Blend: AUG-CC-PVTZ
  Basis Set: (AUG-CC-PVTZ AUX)
    Blend: AUG-CC-PVTZ-JKFIT
	 Reference Energy          =    -896.6063014424507855 [Eh]
	 Singles Energy            =      -0.0000000000000000 [Eh]
	 Same-Spin Energy          =      -0.5339943289181590 [Eh]
	 Opposite-Spin Energy      =      -1.6206118886777092 [Eh]
	 Correlation Energy        =      -2.1546062175958682 [Eh]
	 Total Energy              =    -898.7609076600466551 [Eh]

	 ================> DF-SCS-MP2 Energies <==================
	-----------------------------------------------------------
	 SCS Same-Spin Scale       =       0.3333333333333333 [-]
	 SCS Opposite-Spin Scale   =       1.2000000000000000 [-]
	 SCS Same-Spin Energy      =      -0.1779981096393863 [Eh]
	 SCS Opposite-Spin Energy  =      -1.9447342664132510 [Eh]
	 SCS Correlation Energy    =      -2.1227323760526371 [Eh]
	 SCS Total Energy          =    -898.7290338185034670 [Eh]
	-----------------------------------------------------------

  Dipole Moment: [D]
     X:     0.5892      Y:     1.8718      Z:     0.0889     Total:     1.9643

*** Psi4 exiting successfully. Buy a developer a beer!
