                               Psi4 1.4a3.dev225

  ==> Input File <==

--------------------------------------------------------------------------
#psi4
#
memory 32 gb

molecule  {
0 1
 Cl        1.0239510     2.3134080    -0.0075990
  O       -2.5545530    -1.5411200    -0.0264400
  N       -1.1683820     0.3068610    -0.0163620
  C        0.1096870    -0.2710340    -0.0061280
  C        1.1545444     0.5167738    -0.0019177
  C        0.3284730    -1.6588570    -0.0015270
  C        2.5300300     0.0689490     0.0091910
  C        1.6277130    -2.1636760     0.0089260
  C        2.7309420    -1.3104680     0.0141480
  C       -2.3977350    -0.3210840    -0.0173950
  C       -3.5624210     0.6474400     0.0363070
  H       -0.5282050    -2.3191560    -0.0064230
  H       -1.1804810     1.3202100    -0.0131680
  H        3.3690000     0.7589460     0.0128930
  H        1.7714720    -3.2410880     0.0123870
  H        3.7417620    -1.7087950     0.0220870
  H       -3.7187230     0.9816890     1.0666350
  H       -4.4568090     0.1237200    -0.3002800
  H       -3.3965620     1.5279900    -0.5904610
units angstrom
no_reorient  #important for SAPT in psi4, default
symmetry c1  #important for SAPT in psi4, default
}

set PROPERTIES_ORIGIN ["COM"]
properties('MP2/aug-cc-pvtz', properties = ['dipole'])
--------------------------------------------------------------------------

    Molecular point group: c1
  Charge       = 0
  Multiplicity = 1
  Basis Set: AUG-CC-PVTZ
    Blend: AUG-CC-PVTZ
  Basis Set: (AUG-CC-PVTZ AUX)
    Blend: AUG-CC-PVTZ-JKFIT

    Orbital Energies [Eh]
    ---------------------

    Doubly Occupied:

       1A   -104.851065     2A    -20.534997     3A    -15.612018
       4A    -11.371606     5A    -11.306659     6A    -11.298259
       7A    -11.264310     8A    -11.249538     9A    -11.248035
      10A    -11.247349    11A    -11.243951    12A    -10.574315
      13A     -8.041060    14A     -8.039444    15A     -8.039347
      16A     -1.390592    17A     -1.275668    18A     -1.178181
      19A     -1.119291    20A     -1.051037    21A     -1.004846
      22A     -0.996256    23A     -0.875691    24A     -0.831510
      25A     -0.793375    26A     -0.734638    27A     -0.689927
      28A     -0.677160    29A     -0.639422    30A     -0.634910
      31A     -0.626499    32A     -0.597214    33A     -0.582030
      34A     -0.578777    35A     -0.571104    36A     -0.538430
      37A     -0.526066    38A     -0.512368    39A     -0.476477
      40A     -0.465357    41A     -0.451642    42A     -0.434813
      43A     -0.341343    44A     -0.332230

  @DF-RHF Final Energy:  -896.59636046277546

   => Energetics <=

    Nuclear Repulsion Energy =            656.9709661740644151
    One-Electron Energy =               -2533.4370407998840165
    Two-Electron Energy =                 979.8697141630441365
    Total Energy =                       -896.5963604627754648
  Basis Set: (AUG-CC-PVTZ AUX)
    Blend: AUG-CC-PVTZ-RI
    Molecular point group: c1

    Geometry (in Angstrom), charge = 0, multiplicity = 1:

       Center              X                  Y                   Z               Mass
    ------------   -----------------  -----------------  -----------------  -----------------
         CL           0.997876069325     2.289363815676    -0.006337463402    34.968852682000
         O           -2.580627930675    -1.565164184324    -0.025178463402    15.994914619570
         N           -1.194456930675     0.282816815676    -0.015100463402    14.003074004430
         C            0.083612069325    -0.295078184324    -0.004866463402    12.000000000000
         C            1.128469469325     0.492729615676    -0.000656163402    12.000000000000
         C            0.302398069325    -1.682901184324    -0.000265463402    12.000000000000
         C            2.503955069325     0.044904815676     0.010452536598    12.000000000000
         C            1.601638069325    -2.187720184324     0.010187536598    12.000000000000
         C            2.704867069325    -1.334512184324     0.015409536598    12.000000000000
         C           -2.423809930675    -0.345128184324    -0.016133463402    12.000000000000
         C           -3.588495930675     0.623395815676     0.037568536598    12.000000000000
         H           -0.554279930675    -2.343200184324    -0.005161463402     1.007825032230
         H           -1.206555930675     1.296165815676    -0.011906463402     1.007825032230
         H            3.342925069325     0.734901815676     0.014154536598     1.007825032230
         H            1.745397069325    -3.265132184324     0.013648536598     1.007825032230
         H            3.715687069325    -1.732839184324     0.023348536598     1.007825032230
         H           -3.744797930675     0.957644815676     1.067896536598     1.007825032230
         H           -4.482883930675     0.099675815676    -0.299018463402     1.007825032230
         H           -3.422636930675     1.503945815676    -0.589199463402     1.007825032230

  Basis Set: AUG-CC-PVTZ
    Blend: AUG-CC-PVTZ
  Basis Set: (AUG-CC-PVTZ AUX)
    Blend: AUG-CC-PVTZ-JKFIT
	 Reference Energy          =    -896.5963604627754648 [Eh]
	 Singles Energy            =      -0.0000000000000000 [Eh]
	 Same-Spin Energy          =      -0.5329907358540826 [Eh]
	 Opposite-Spin Energy      =      -1.6200845876174812 [Eh]
	 Correlation Energy        =      -2.1530753234715636 [Eh]
	 Total Energy              =    -898.7494357862469769 [Eh]

	 ================> DF-SCS-MP2 Energies <==================
	-----------------------------------------------------------
	 SCS Same-Spin Scale       =       0.3333333333333333 [-]
	 SCS Opposite-Spin Scale   =       1.2000000000000000 [-]
	 SCS Same-Spin Energy      =      -0.1776635786180275 [Eh]
	 SCS Opposite-Spin Energy  =      -1.9441015051409773 [Eh]
	 SCS Correlation Energy    =      -2.1217650837590050 [Eh]
	 SCS Total Energy          =    -898.7181255465344520 [Eh]
	-----------------------------------------------------------

  Dipole Moment: [D]
     X:     0.6929      Y:     1.5929      Z:     0.0906     Total:     1.7395

*** Psi4 exiting successfully. Buy a developer a beer!
