                               Psi4 1.4a3.dev225

  ==> Input File <==

--------------------------------------------------------------------------
#psi4
#
memory 32 gb

molecule  {
0 1
 Cl        1.0239510     2.3134080    -0.0075990
  O       -2.5545530    -1.5411200    -0.0264400
  N       -1.1683820     0.3068610    -0.0163620
  C        0.1096870    -0.2710340    -0.0061280
  C        1.2343910     0.5769770    -0.0015960
  C        0.3284730    -1.6588570    -0.0015270
  C        2.5300300     0.0689490     0.0091910
  C        1.6277130    -2.1636760     0.0089260
  C        2.7309420    -1.3104680     0.0141480
  C       -2.3977350    -0.3210840    -0.0173950
  C       -3.6008411     0.6793892     0.0380785
  H       -0.5282050    -2.3191560    -0.0064230
  H       -1.1804810     1.3202100    -0.0131680
  H        3.3690000     0.7589460     0.0128930
  H        1.7714720    -3.2410880     0.0123870
  H        3.7417620    -1.7087950     0.0220870
  H       -3.7187230     0.9816890     1.0666350
  H       -4.4568090     0.1237200    -0.3002800
  H       -3.3965620     1.5279900    -0.5904610
units angstrom
no_reorient  #important for SAPT in psi4, default
symmetry c1  #important for SAPT in psi4, default
}

set PROPERTIES_ORIGIN ["COM"]
properties('MP2/aug-cc-pvtz', properties = ['dipole'])
--------------------------------------------------------------------------

    Molecular point group: c1
  Charge       = 0
  Multiplicity = 1
  Basis Set: AUG-CC-PVTZ
    Blend: AUG-CC-PVTZ
  Basis Set: (AUG-CC-PVTZ AUX)
    Blend: AUG-CC-PVTZ-JKFIT

    Orbital Energies [Eh]
    ---------------------

    Doubly Occupied:

       1A   -104.856606     2A    -20.536192     3A    -15.614031
       4A    -11.373274     5A    -11.309175     6A    -11.308043
       7A    -11.257136     8A    -11.248399     9A    -11.247238
      10A    -11.244204    11A    -11.240094    12A    -10.580421
      13A     -8.047282    14A     -8.045534    15A     -8.045434
      16A     -1.389657    17A     -1.271139    18A     -1.181690
      19A     -1.125254    20A     -1.041423    21A     -1.008156
      22A     -0.986926    23A     -0.871974    24A     -0.830893
      25A     -0.789536    26A     -0.735821    27A     -0.684421
      28A     -0.676234    29A     -0.635121    30A     -0.634044
      31A     -0.621798    32A     -0.594233    33A     -0.590829
      34A     -0.578714    35A     -0.575693    36A     -0.538915
      37A     -0.532446    38A     -0.513732    39A     -0.480080
      40A     -0.471062    41A     -0.451729    42A     -0.430238
      43A     -0.344747    44A     -0.319040

  @DF-RHF Final Energy:  -896.60505003611183

   => Energetics <=

    Nuclear Repulsion Energy =            655.3429908614037913
    One-Electron Energy =               -2530.1788673426071909
    Two-Electron Energy =                 978.2308264450914521
    Total Energy =                       -896.6050500361118338
  Basis Set: (AUG-CC-PVTZ AUX)
    Blend: AUG-CC-PVTZ-RI
    Molecular point group: c1

    Geometry (in Angstrom), charge = 0, multiplicity = 1:

       Center              X                  Y                   Z               Mass
    ------------   -----------------  -----------------  -----------------  -----------------
         CL           0.994935055053     2.282821589719    -0.006486067100    34.968852682000
         O           -2.583568944947    -1.571706410281    -0.025327067100    15.994914619570
         N           -1.197397944947     0.276274589719    -0.015249067100    14.003074004430
         C            0.080671055053    -0.301620410281    -0.005015067100    12.000000000000
         C            1.205375055053     0.546390589719    -0.000483067100    12.000000000000
         C            0.299457055053    -1.689443410281    -0.000414067100    12.000000000000
         C            2.501014055053     0.038362589719     0.010303932900    12.000000000000
         C            1.598697055053    -2.194262410281     0.010038932900    12.000000000000
         C            2.701926055053    -1.341054410281     0.015260932900    12.000000000000
         C           -2.426750944947    -0.351670410281    -0.016282067100    12.000000000000
         C           -3.629857044947     0.648802789719     0.039191432900    12.000000000000
         H           -0.557220944947    -2.349742410281    -0.005310067100     1.007825032230
         H           -1.209496944947     1.289623589719    -0.012055067100     1.007825032230
         H            3.339984055053     0.728359589719     0.014005932900     1.007825032230
         H            1.742456055053    -3.271674410281     0.013499932900     1.007825032230
         H            3.712746055053    -1.739381410281     0.023199932900     1.007825032230
         H           -3.747738944947     0.951102589719     1.067747932900     1.007825032230
         H           -4.485824944947     0.093133589719    -0.299167067100     1.007825032230
         H           -3.425577944947     1.497403589719    -0.589348067100     1.007825032230

  Basis Set: AUG-CC-PVTZ
    Blend: AUG-CC-PVTZ
  Basis Set: (AUG-CC-PVTZ AUX)
    Blend: AUG-CC-PVTZ-JKFIT
	 Reference Energy          =    -896.6050500361118338 [Eh]
	 Singles Energy            =      -0.0000000000000000 [Eh]
	 Same-Spin Energy          =      -0.5337676141285876 [Eh]
	 Opposite-Spin Energy      =      -1.6204562964061420 [Eh]
	 Correlation Energy        =      -2.1542239105347294 [Eh]
	 Total Energy              =    -898.7592739466465446 [Eh]

	 ================> DF-SCS-MP2 Energies <==================
	-----------------------------------------------------------
	 SCS Same-Spin Scale       =       0.3333333333333333 [-]
	 SCS Opposite-Spin Scale   =       1.2000000000000000 [-]
	 SCS Same-Spin Energy      =      -0.1779225380428625 [Eh]
	 SCS Opposite-Spin Energy  =      -1.9445475556873704 [Eh]
	 SCS Correlation Energy    =      -2.1224700937302328 [Eh]
	 SCS Total Energy          =    -898.7275201298421052 [Eh]
	-----------------------------------------------------------

  Dipole Moment: [D]
     X:     0.6634      Y:     1.8204      Z:     0.0836     Total:     1.9393

*** Psi4 exiting successfully. Buy a developer a beer!
