                               Psi4 1.4a3.dev225

  ==> Input File <==

--------------------------------------------------------------------------
#psi4
#
memory 32 gb

molecule  {
0 1
 Cl        1.0239510     2.3134080    -0.0075990
  O       -2.5545530    -1.5411200    -0.0264400
  N       -1.1683820     0.3068610    -0.0163620
  C        0.1096870    -0.2710340    -0.0061280
  C        1.2343910     0.5769770    -0.0015960
  C        0.3284730    -1.6588570    -0.0015270
  C        2.5300300     0.0689490     0.0091910
  C        1.6597630    -2.0718132     0.0089742
  C        2.7309420    -1.3104680     0.0141480
  C       -2.3977350    -0.3210840    -0.0173950
  C       -3.5624210     0.6474400     0.0363070
  H       -0.5282050    -2.3191560    -0.0064230
  H       -1.1804810     1.3202100    -0.0131680
  H        3.3690000     0.7589460     0.0128930
  H        1.7714720    -3.2410880     0.0123870
  H        3.7417620    -1.7087950     0.0220870
  H       -3.7187230     0.9816890     1.0666350
  H       -4.4568090     0.1237200    -0.3002800
  H       -3.3965620     1.5279900    -0.5904610
units angstrom
no_reorient  #important for SAPT in psi4, default
symmetry c1  #important for SAPT in psi4, default
}

set PROPERTIES_ORIGIN ["COM"]
properties('MP2/aug-cc-pvtz', properties = ['dipole'])
--------------------------------------------------------------------------

    Molecular point group: c1
  Charge       = 0
  Multiplicity = 1
  Basis Set: AUG-CC-PVTZ
    Blend: AUG-CC-PVTZ
  Basis Set: (AUG-CC-PVTZ AUX)
    Blend: AUG-CC-PVTZ-JKFIT

    Orbital Energies [Eh]
    ---------------------

    Doubly Occupied:

       1A   -104.856301     2A    -20.536343     3A    -15.613285
       4A    -11.372102     5A    -11.308442     6A    -11.307317
       7A    -11.258002     8A    -11.248586     9A    -11.245648
      10A    -11.239437    11A    -11.234708    12A    -10.580108
      13A     -8.046973    14A     -8.045223    15A     -8.045118
      16A     -1.391147    17A     -1.271765    18A     -1.185785
      19A     -1.132547    20A     -1.048834    21A     -1.006571
      22A     -0.991639    23A     -0.876719    24A     -0.826612
      25A     -0.790634    26A     -0.729867    27A     -0.690843
      28A     -0.681445    29A     -0.639628    30A     -0.634011
      31A     -0.619583    32A     -0.596846    33A     -0.581017
      34A     -0.576143    35A     -0.572511    36A     -0.548140
      37A     -0.530117    38A     -0.494718    39A     -0.483583
      40A     -0.470180    41A     -0.455761    42A     -0.436180
      43A     -0.343431    44A     -0.324666

  @DF-RHF Final Energy:  -896.59485466925230

   => Energetics <=

    Nuclear Repulsion Energy =            657.9239902226109962
    One-Electron Energy =               -2535.3006574162641300
    Two-Electron Energy =                 980.7818125244009480
    Total Energy =                       -896.5948546692522996
  Basis Set: (AUG-CC-PVTZ AUX)
    Blend: AUG-CC-PVTZ-RI
    Molecular point group: c1

    Geometry (in Angstrom), charge = 0, multiplicity = 1:

       Center              X                  Y                   Z               Mass
    ------------   -----------------  -----------------  -----------------  -----------------
         CL           0.989932132532     2.278568110601    -0.006363723916    34.968852682000
         O           -2.588571867468    -1.575959889399    -0.025204723916    15.994914619570
         N           -1.202400867468     0.272021110601    -0.015126723916    14.003074004430
         C            0.075668132532    -0.305873889399    -0.004892723916    12.000000000000
         C            1.200372132532     0.542137110601    -0.000360723916    12.000000000000
         C            0.294454132532    -1.693696889399    -0.000291723916    12.000000000000
         C            2.496011132532     0.034109110601     0.010426276084    12.000000000000
         C            1.625744132532    -2.106653089399     0.010209476084    12.000000000000
         C            2.696923132532    -1.345307889399     0.015383276084    12.000000000000
         C           -2.431753867468    -0.355923889399    -0.016159723916    12.000000000000
         C           -3.596439867468     0.612600110601     0.037542276084    12.000000000000
         H           -0.562223867468    -2.353995889399    -0.005187723916     1.007825032230
         H           -1.214499867468     1.285370110601    -0.011932723916     1.007825032230
         H            3.334981132532     0.724106110601     0.014128276084     1.007825032230
         H            1.737453132532    -3.275927889399     0.013622276084     1.007825032230
         H            3.707743132532    -1.743634889399     0.023322276084     1.007825032230
         H           -3.752741867468     0.946849110601     1.067870276084     1.007825032230
         H           -4.490827867468     0.088880110601    -0.299044723916     1.007825032230
         H           -3.430580867468     1.493150110601    -0.589225723916     1.007825032230

  Basis Set: AUG-CC-PVTZ
    Blend: AUG-CC-PVTZ
  Basis Set: (AUG-CC-PVTZ AUX)
    Blend: AUG-CC-PVTZ-JKFIT
	 Reference Energy          =    -896.5948546692522996 [Eh]
	 Singles Energy            =      -0.0000000000000000 [Eh]
	 Same-Spin Energy          =      -0.5341266227575330 [Eh]
	 Opposite-Spin Energy      =      -1.6205937989673900 [Eh]
	 Correlation Energy        =      -2.1547204217249227 [Eh]
	 Total Energy              =    -898.7495750909772596 [Eh]

	 ================> DF-SCS-MP2 Energies <==================
	-----------------------------------------------------------
	 SCS Same-Spin Scale       =       0.3333333333333333 [-]
	 SCS Opposite-Spin Scale   =       1.2000000000000000 [-]
	 SCS Same-Spin Energy      =      -0.1780422075858443 [Eh]
	 SCS Opposite-Spin Energy  =      -1.9447125587608678 [Eh]
	 SCS Correlation Energy    =      -2.1227547663467119 [Eh]
	 SCS Total Energy          =    -898.7176094355990017 [Eh]
	-----------------------------------------------------------

  Dipole Moment: [D]
     X:     0.5716      Y:     1.9405      Z:     0.0888     Total:     2.0248

*** Psi4 exiting successfully. Buy a developer a beer!
