                               Psi4 1.4a3.dev225

  ==> Input File <==

--------------------------------------------------------------------------
#psi4
#
memory 32 gb

molecule  {
0 1
 Cl        1.0239510     2.3134080    -0.0075990
  O       -2.5545530    -1.5411200    -0.0264400
  N       -1.1683820     0.3068610    -0.0163620
  C        0.1096870    -0.2710340    -0.0061280
  C        1.2343910     0.5769770    -0.0015960
  C        0.3284730    -1.6588570    -0.0015270
  C        2.5300300     0.0689490     0.0091910
  C        1.5893333    -2.2530794     0.0088269
  C        2.7309420    -1.3104680     0.0141480
  C       -2.3977350    -0.3210840    -0.0173950
  C       -3.5624210     0.6474400     0.0363070
  H       -0.5282050    -2.3191560    -0.0064230
  H       -1.1804810     1.3202100    -0.0131680
  H        3.3690000     0.7589460     0.0128930
  H        1.7714720    -3.2410880     0.0123870
  H        3.7417620    -1.7087950     0.0220870
  H       -3.7187230     0.9816890     1.0666350
  H       -4.4568090     0.1237200    -0.3002800
  H       -3.3965620     1.5279900    -0.5904610
units angstrom
no_reorient  #important for SAPT in psi4, default
symmetry c1  #important for SAPT in psi4, default
}

set PROPERTIES_ORIGIN ["COM"]
properties('MP2/aug-cc-pvtz', properties = ['dipole'])
--------------------------------------------------------------------------

    Molecular point group: c1
  Charge       = 0
  Multiplicity = 1
  Basis Set: AUG-CC-PVTZ
    Blend: AUG-CC-PVTZ
  Basis Set: (AUG-CC-PVTZ AUX)
    Blend: AUG-CC-PVTZ-JKFIT

    Orbital Energies [Eh]
    ---------------------

    Doubly Occupied:

       1A   -104.857009     2A    -20.534861     3A    -15.614036
       4A    -11.371441     5A    -11.310022     6A    -11.308875
       7A    -11.256514     8A    -11.253012     9A    -11.251271
      10A    -11.248228    11A    -11.241811    12A    -10.580822
      13A     -8.047679    14A     -8.045933    15A     -8.045838
      16A     -1.390186    17A     -1.271239    18A     -1.179838
      19A     -1.119130    20A     -1.042166    21A     -1.011802
      22A     -0.984299    23A     -0.867155    24A     -0.837020
      25A     -0.788423    26A     -0.744397    27A     -0.686557
      28A     -0.671130    29A     -0.636262    30A     -0.633578
      31A     -0.628413    32A     -0.601268    33A     -0.596018
      34A     -0.574152    35A     -0.569344    36A     -0.538061
      37A     -0.528164    38A     -0.510879    39A     -0.477472
      40A     -0.470898    41A     -0.447544    42A     -0.432310
      43A     -0.347348    44A     -0.312959

  @DF-RHF Final Energy:  -896.59337760170956

   => Energetics <=

    Nuclear Repulsion Energy =            654.7639978177662670
    One-Electron Energy =               -2528.9840295016356322
    Two-Electron Energy =                 977.6266540821598028
    Total Energy =                       -896.5933776017095624
  Basis Set: (AUG-CC-PVTZ AUX)
    Blend: AUG-CC-PVTZ-RI
    Molecular point group: c1

    Geometry (in Angstrom), charge = 0, multiplicity = 1:

       Center              X                  Y                   Z               Mass
    ------------   -----------------  -----------------  -----------------  -----------------
         CL           0.994932186914     2.291436841515    -0.006353266566    34.968852682000
         O           -2.583571813086    -1.563091158485    -0.025194266566    15.994914619570
         N           -1.197400813086     0.284889841515    -0.015116266566    14.003074004430
         C            0.080668186914    -0.293005158485    -0.004882266566    12.000000000000
         C            1.205372186914     0.555005841515    -0.000350266566    12.000000000000
         C            0.299454186914    -1.680828158485    -0.000281266566    12.000000000000
         C            2.501011186914     0.046977841515     0.010436733434    12.000000000000
         C            1.560314486914    -2.275050558485     0.010072633434    12.000000000000
         C            2.701923186914    -1.332439158485     0.015393733434    12.000000000000
         C           -2.426753813086    -0.343055158485    -0.016149266566    12.000000000000
         C           -3.591439813086     0.625468841515     0.037552733434    12.000000000000
         H           -0.557223813086    -2.341127158485    -0.005177266566     1.007825032230
         H           -1.209499813086     1.298238841515    -0.011922266566     1.007825032230
         H            3.339981186914     0.736974841515     0.014138733434     1.007825032230
         H            1.742453186914    -3.263059158485     0.013632733434     1.007825032230
         H            3.712743186914    -1.730766158485     0.023332733434     1.007825032230
         H           -3.747741813086     0.959717841515     1.067880733434     1.007825032230
         H           -4.485827813086     0.101748841515    -0.299034266566     1.007825032230
         H           -3.425580813086     1.506018841515    -0.589215266566     1.007825032230

  Basis Set: AUG-CC-PVTZ
    Blend: AUG-CC-PVTZ
  Basis Set: (AUG-CC-PVTZ AUX)
    Blend: AUG-CC-PVTZ-JKFIT
	 Reference Energy          =    -896.5933776017095624 [Eh]
	 Singles Energy            =      -0.0000000000000000 [Eh]
	 Same-Spin Energy          =      -0.5340633822369738 [Eh]
	 Opposite-Spin Energy      =      -1.6217539784061126 [Eh]
	 Correlation Energy        =      -2.1558173606430864 [Eh]
	 Total Energy              =    -898.7491949623527034 [Eh]

	 ================> DF-SCS-MP2 Energies <==================
	-----------------------------------------------------------
	 SCS Same-Spin Scale       =       0.3333333333333333 [-]
	 SCS Opposite-Spin Scale   =       1.2000000000000000 [-]
	 SCS Same-Spin Energy      =      -0.1780211274123246 [Eh]
	 SCS Opposite-Spin Energy  =      -1.9461047740873350 [Eh]
	 SCS Correlation Energy    =      -2.1241259014996596 [Eh]
	 SCS Total Energy          =    -898.7175035032091728 [Eh]
	-----------------------------------------------------------

  Dipole Moment: [D]
     X:     0.5952      Y:     1.8379      Z:     0.0889     Total:     1.9339

*** Psi4 exiting successfully. Buy a developer a beer!
