                               Psi4 1.4a3.dev225

  ==> Input File <==

--------------------------------------------------------------------------
#psi4
#
memory 32 gb

molecule  {
0 1
 Cl        1.0239510     2.3134080    -0.0075990
  O       -2.5545530    -1.5411200    -0.0264400
  N       -1.1683820     0.3068610    -0.0163620
  C        0.1096870    -0.2710340    -0.0061280
  C        1.2343910     0.5769770    -0.0015960
  C        0.3284730    -1.6588570    -0.0015270
  C        2.5300300     0.0689490     0.0091910
  C        1.6277130    -2.1636760     0.0089260
  C        2.7280594    -1.2906769     0.0140769
  C       -2.3977350    -0.3210840    -0.0173950
  C       -3.5624210     0.6474400     0.0363070
  H       -0.5282050    -2.3191560    -0.0064230
  H       -1.1804810     1.3202100    -0.0131680
  H        3.3690000     0.7589460     0.0128930
  H        1.7714720    -3.2410880     0.0123870
  H        3.7417620    -1.7087950     0.0220870
  H       -3.7187230     0.9816890     1.0666350
  H       -4.4568090     0.1237200    -0.3002800
  H       -3.3965620     1.5279900    -0.5904610
units angstrom
no_reorient  #important for SAPT in psi4, default
symmetry c1  #important for SAPT in psi4, default
}

set PROPERTIES_ORIGIN ["COM"]
properties('MP2/aug-cc-pvtz', properties = ['dipole'])
--------------------------------------------------------------------------

    Molecular point group: c1
  Charge       = 0
  Multiplicity = 1
  Basis Set: AUG-CC-PVTZ
    Blend: AUG-CC-PVTZ
  Basis Set: (AUG-CC-PVTZ AUX)
    Blend: AUG-CC-PVTZ-JKFIT

    Orbital Energies [Eh]
    ---------------------

    Doubly Occupied:

       1A   -104.856359     2A    -20.535482     3A    -15.613507
       4A    -11.371715     5A    -11.308810     6A    -11.307616
       7A    -11.254706     8A    -11.249316     9A    -11.248347
      10A    -11.243758    11A    -11.240125    12A    -10.580169
      13A     -8.047030    14A     -8.045285    15A     -8.045185
      16A     -1.390593    17A     -1.271316    18A     -1.182464
      19A     -1.125367    20A     -1.045886    21A     -1.010065
      22A     -0.986563    23A     -0.870265    24A     -0.831856
      25A     -0.789503    26A     -0.736393    27A     -0.688544
      28A     -0.674633    29A     -0.637453    30A     -0.633732
      31A     -0.622157    32A     -0.598090    33A     -0.590891
      34A     -0.575023    35A     -0.570202    36A     -0.534555
      37A     -0.529079    38A     -0.515806    39A     -0.479690
      40A     -0.470788    41A     -0.452065    42A     -0.434296
      43A     -0.345400    44A     -0.318709

  @DF-RHF Final Energy:  -896.60653640129794

   => Energetics <=

    Nuclear Repulsion Energy =            656.5086438532831608
    One-Electron Energy =               -2532.5127687087992854
    Two-Electron Energy =                 979.3975884542182939
    Total Energy =                       -896.6065364012979444
  Basis Set: (AUG-CC-PVTZ AUX)
    Blend: AUG-CC-PVTZ-RI
    Molecular point group: c1

    Geometry (in Angstrom), charge = 0, multiplicity = 1:

       Center              X                  Y                   Z               Mass
    ------------   -----------------  -----------------  -----------------  -----------------
         CL           0.992412121794     2.283684736391    -0.006355254386    34.968852682000
         O           -2.586091878206    -1.570843263609    -0.025196254386    15.994914619570
         N           -1.199920878206     0.277137736391    -0.015118254386    14.003074004430
         C            0.078148121794    -0.300757263609    -0.004884254386    12.000000000000
         C            1.202852121794     0.547253736391    -0.000352254386    12.000000000000
         C            0.296934121794    -1.688580263609    -0.000283254386    12.000000000000
         C            2.498491121794     0.039225736391     0.010434745614    12.000000000000
         C            1.596174121794    -2.193399263609     0.010169745614    12.000000000000
         C            2.696520521794    -1.320400163609     0.015320645614    12.000000000000
         C           -2.429273878206    -0.350807263609    -0.016151254386    12.000000000000
         C           -3.593959878206     0.617716736391     0.037550745614    12.000000000000
         H           -0.559743878206    -2.348879263609    -0.005179254386     1.007825032230
         H           -1.212019878206     1.290486736391    -0.011924254386     1.007825032230
         H            3.337461121794     0.729222736391     0.014136745614     1.007825032230
         H            1.739933121794    -3.270811263609     0.013630745614     1.007825032230
         H            3.710223121794    -1.738518263609     0.023330745614     1.007825032230
         H           -3.750261878206     0.951965736391     1.067878745614     1.007825032230
         H           -4.488347878206     0.093996736391    -0.299036254386     1.007825032230
         H           -3.428100878206     1.498266736391    -0.589217254386     1.007825032230

  Basis Set: AUG-CC-PVTZ
    Blend: AUG-CC-PVTZ
  Basis Set: (AUG-CC-PVTZ AUX)
    Blend: AUG-CC-PVTZ-JKFIT
	 Reference Energy          =    -896.6065364012979444 [Eh]
	 Singles Energy            =      -0.0000000000000000 [Eh]
	 Same-Spin Energy          =      -0.5339529685588288 [Eh]
	 Opposite-Spin Energy      =      -1.6204217423057847 [Eh]
	 Correlation Energy        =      -2.1543747108646136 [Eh]
	 Total Energy              =    -898.7609111121626029 [Eh]

	 ================> DF-SCS-MP2 Energies <==================
	-----------------------------------------------------------
	 SCS Same-Spin Scale       =       0.3333333333333333 [-]
	 SCS Opposite-Spin Scale   =       1.2000000000000000 [-]
	 SCS Same-Spin Energy      =      -0.1779843228529429 [Eh]
	 SCS Opposite-Spin Energy  =      -1.9445060907669416 [Eh]
	 SCS Correlation Energy    =      -2.1224904136198846 [Eh]
	 SCS Total Energy          =    -898.7290268149178019 [Eh]
	-----------------------------------------------------------

  Dipole Moment: [D]
     X:     0.5915      Y:     1.8605      Z:     0.0889     Total:     1.9543

*** Psi4 exiting successfully. Buy a developer a beer!
