                               Psi4 1.4a3.dev225

  ==> Input File <==

--------------------------------------------------------------------------
#psi4
#
memory 32 gb

molecule  {
0 1
 Cl        1.0239510     2.3134080    -0.0075990
  O       -2.5545530    -1.5411200    -0.0264400
  N       -1.1683820     0.3068610    -0.0163620
  C        0.1096870    -0.2710340    -0.0061280
  C        1.2343910     0.5769770    -0.0015960
  C        0.3284730    -1.6588570    -0.0015270
  C        2.5300300     0.0689490     0.0091910
  C        1.6277130    -2.1636760     0.0089260
  C        2.7309420    -1.3104680     0.0141480
  C       -2.3977350    -0.3210840    -0.0173950
  C       -3.5777891     0.6602197     0.0370156
  H       -0.5282050    -2.3191560    -0.0064230
  H       -1.1804810     1.3202100    -0.0131680
  H        3.3690000     0.7589460     0.0128930
  H        1.7714720    -3.2410880     0.0123870
  H        3.7417620    -1.7087950     0.0220870
  H       -3.7187230     0.9816890     1.0666350
  H       -4.4568090     0.1237200    -0.3002800
  H       -3.3965620     1.5279900    -0.5904610
units angstrom
no_reorient  #important for SAPT in psi4, default
symmetry c1  #important for SAPT in psi4, default
}

set PROPERTIES_ORIGIN ["COM"]
properties('MP2/aug-cc-pvtz', properties = ['dipole'])
--------------------------------------------------------------------------

    Molecular point group: c1
  Charge       = 0
  Multiplicity = 1
  Basis Set: AUG-CC-PVTZ
    Blend: AUG-CC-PVTZ
  Basis Set: (AUG-CC-PVTZ AUX)
    Blend: AUG-CC-PVTZ-JKFIT

    Orbital Energies [Eh]
    ---------------------

    Doubly Occupied:

       1A   -104.856538     2A    -20.535805     3A    -15.613760
       4A    -11.372387     5A    -11.309088     6A    -11.307955
       7A    -11.257068     8A    -11.248329     9A    -11.247819
      10A    -11.244127    11A    -11.240001    12A    -10.580352
      13A     -8.047213    14A     -8.045466    15A     -8.045365
      16A     -1.390205    17A     -1.271254    18A     -1.181801
      19A     -1.125205    20A     -1.043392    21A     -1.008598
      22A     -0.987305    23A     -0.871711    24A     -0.830743
      25A     -0.789749    26A     -0.735920    27A     -0.686738
      28A     -0.676290    29A     -0.635788    30A     -0.633782
      31A     -0.621783    32A     -0.595702    33A     -0.590921
      34A     -0.576339    35A     -0.573023    36A     -0.538637
      37A     -0.530430    38A     -0.513865    39A     -0.479883
      40A     -0.470988    41A     -0.451621    42A     -0.432905
      43A     -0.344674    44A     -0.318935

  @DF-RHF Final Energy:  -896.60671120501047

   => Energetics <=

    Nuclear Repulsion Energy =            655.8903751335438983
    One-Electron Energy =               -2531.2752493614007108
    Two-Electron Energy =                 978.7781630228464564
    Total Energy =                       -896.6067112050104697
  Basis Set: (AUG-CC-PVTZ AUX)
    Blend: AUG-CC-PVTZ-RI
    Molecular point group: c1

    Geometry (in Angstrom), charge = 0, multiplicity = 1:

       Center              X                  Y                   Z               Mass
    ------------   -----------------  -----------------  -----------------  -----------------
         CL           0.993298511754     2.284182500563    -0.006410608056    34.968852682000
         O           -2.585205488246    -1.570345499437    -0.025251608056    15.994914619570
         N           -1.199034488246     0.277635500563    -0.015173608056    14.003074004430
         C            0.079034511754    -0.300259499437    -0.004939608056    12.000000000000
         C            1.203738511754     0.547751500563    -0.000407608056    12.000000000000
         C            0.297820511754    -1.688082499437    -0.000338608056    12.000000000000
         C            2.499377511754     0.039723500563     0.010379391944    12.000000000000
         C            1.597060511754    -2.192901499437     0.010114391944    12.000000000000
         C            2.700289511754    -1.339693499437     0.015336391944    12.000000000000
         C           -2.428387488246    -0.350309499437    -0.016206608056    12.000000000000
         C           -3.608441588246     0.630994200563     0.038203991944    12.000000000000
         H           -0.558857488246    -2.348381499437    -0.005234608056     1.007825032230
         H           -1.211133488246     1.290984500563    -0.011979608056     1.007825032230
         H            3.338347511754     0.729720500563     0.014081391944     1.007825032230
         H            1.740819511754    -3.270313499437     0.013575391944     1.007825032230
         H            3.711109511754    -1.738020499437     0.023275391944     1.007825032230
         H           -3.749375488246     0.952463500563     1.067823391944     1.007825032230
         H           -4.487461488246     0.094494500563    -0.299091608056     1.007825032230
         H           -3.427214488246     1.498764500563    -0.589272608056     1.007825032230

  Basis Set: AUG-CC-PVTZ
    Blend: AUG-CC-PVTZ
  Basis Set: (AUG-CC-PVTZ AUX)
    Blend: AUG-CC-PVTZ-JKFIT
	 Reference Energy          =    -896.6067112050104697 [Eh]
	 Singles Energy            =      -0.0000000000000000 [Eh]
	 Same-Spin Energy          =      -0.5338574226367957 [Eh]
	 Opposite-Spin Energy      =      -1.6204165050086181 [Eh]
	 Correlation Energy        =      -2.1542739276454137 [Eh]
	 Total Energy              =    -898.7609851326558328 [Eh]

	 ================> DF-SCS-MP2 Energies <==================
	-----------------------------------------------------------
	 SCS Same-Spin Scale       =       0.3333333333333333 [-]
	 SCS Opposite-Spin Scale   =       1.2000000000000000 [-]
	 SCS Same-Spin Energy      =      -0.1779524742122652 [Eh]
	 SCS Opposite-Spin Energy  =      -1.9444998060103416 [Eh]
	 SCS Correlation Energy    =      -2.1224522802226069 [Eh]
	 SCS Total Energy          =    -898.7291634852331299 [Eh]
	-----------------------------------------------------------

  Dipole Moment: [D]
     X:     0.6206      Y:     1.8473      Z:     0.0867     Total:     1.9507

*** Psi4 exiting successfully. Buy a developer a beer!
