                               Psi4 1.4a3.dev225

  ==> Input File <==

--------------------------------------------------------------------------
#psi4
#
memory 32 gb

molecule  {
0 1
 Cl        1.0239510     2.3134080    -0.0075990
  O       -2.5545530    -1.5411200    -0.0264400
  N       -1.1683820     0.3068610    -0.0163620
  C        0.1096870    -0.2710340    -0.0061280
  C        1.2343910     0.5769770    -0.0015960
  C        0.3284730    -1.6588570    -0.0015270
  C        2.5300300     0.0689490     0.0091910
  C        1.6277130    -2.1636760     0.0089260
  C        2.7309420    -1.3104680     0.0141480
  C       -2.3977350    -0.3210840    -0.0173950
  C       -3.5624210     0.6474400     0.0363070
  H       -0.5282050    -2.3191560    -0.0064230
  H       -1.1804810     1.3202100    -0.0131680
  H        3.3690000     0.7589460     0.0128930
  H        1.7688269    -3.2212638     0.0123233
  H        3.7417620    -1.7087950     0.0220870
  H       -3.7187230     0.9816890     1.0666350
  H       -4.4568090     0.1237200    -0.3002800
  H       -3.3965620     1.5279900    -0.5904610
units angstrom
no_reorient  #important for SAPT in psi4, default
symmetry c1  #important for SAPT in psi4, default
}

set PROPERTIES_ORIGIN ["COM"]
properties('MP2/aug-cc-pvtz', properties = ['dipole'])
--------------------------------------------------------------------------

    Molecular point group: c1
  Charge       = 0
  Multiplicity = 1
  Basis Set: AUG-CC-PVTZ
    Blend: AUG-CC-PVTZ
  Basis Set: (AUG-CC-PVTZ AUX)
    Blend: AUG-CC-PVTZ-JKFIT

    Orbital Energies [Eh]
    ---------------------

    Doubly Occupied:

       1A   -104.856439     2A    -20.535496     3A    -15.613495
       4A    -11.371656     5A    -11.308931     6A    -11.307798
       7A    -11.256892     8A    -11.248321     9A    -11.246051
      10A    -11.243818    11A    -11.239756    12A    -10.580254
      13A     -8.047115    14A     -8.045367    15A     -8.045267
      16A     -1.390556    17A     -1.271263    18A     -1.181831
      19A     -1.125284    20A     -1.044826    21A     -1.009265
      22A     -0.987834    23A     -0.871492    24A     -0.831478
      25A     -0.789917    26A     -0.737429    27A     -0.688542
      28A     -0.676349    29A     -0.636240    30A     -0.633673
      31A     -0.622719    32A     -0.597338    33A     -0.592151
      34A     -0.574752    35A     -0.570398    36A     -0.538363
      37A     -0.528831    38A     -0.515084    39A     -0.479656
      40A     -0.470891    41A     -0.451465    42A     -0.434448
      43A     -0.344535    44A     -0.318767

  @DF-RHF Final Energy:  -896.60707503295453

   => Energetics <=

    Nuclear Repulsion Energy =            656.3693052435880873
    One-Electron Energy =               -2532.2286913892780831
    Two-Electron Energy =                 979.2523111127354696
    Total Energy =                       -896.6070750329545263
  Basis Set: (AUG-CC-PVTZ AUX)
    Blend: AUG-CC-PVTZ-RI
    Molecular point group: c1

    Geometry (in Angstrom), charge = 0, multiplicity = 1:

       Center              X                  Y                   Z               Mass
    ------------   -----------------  -----------------  -----------------  -----------------
         CL           0.992223246993     2.284971576559    -0.006359922221    34.968852682000
         O           -2.586280753007    -1.569556423441    -0.025200922221    15.994914619570
         N           -1.200109753007     0.278424576559    -0.015122922221    14.003074004430
         C            0.077959246993    -0.299470423441    -0.004888922221    12.000000000000
         C            1.202663246993     0.548540576559    -0.000356922221    12.000000000000
         C            0.296745246993    -1.687293423441    -0.000287922221    12.000000000000
         C            2.498302246993     0.040512576559     0.010430077779    12.000000000000
         C            1.595985246993    -2.192112423441     0.010165077779    12.000000000000
         C            2.699214246993    -1.338904423441     0.015387077779    12.000000000000
         C           -2.429462753007    -0.349520423441    -0.016155922221    12.000000000000
         C           -3.594148753007     0.619003576559     0.037546077779    12.000000000000
         H           -0.559932753007    -2.347592423441    -0.005183922221     1.007825032230
         H           -1.212208753007     1.291773576559    -0.011928922221     1.007825032230
         H            3.337272246993     0.730509576559     0.014132077779     1.007825032230
         H            1.737099146993    -3.249700223441     0.013562377779     1.007825032230
         H            3.710034246993    -1.737231423441     0.023326077779     1.007825032230
         H           -3.750450753007     0.953252576559     1.067874077779     1.007825032230
         H           -4.488536753007     0.095283576559    -0.299040922221     1.007825032230
         H           -3.428289753007     1.499553576559    -0.589221922221     1.007825032230

  Basis Set: AUG-CC-PVTZ
    Blend: AUG-CC-PVTZ
  Basis Set: (AUG-CC-PVTZ AUX)
    Blend: AUG-CC-PVTZ-JKFIT
	 Reference Energy          =    -896.6070750329545263 [Eh]
	 Singles Energy            =      -0.0000000000000000 [Eh]
	 Same-Spin Energy          =      -0.5339235275640866 [Eh]
	 Opposite-Spin Energy      =      -1.6203261592482039 [Eh]
	 Correlation Energy        =      -2.1542496868122907 [Eh]
	 Total Energy              =    -898.7613247197667761 [Eh]

	 ================> DF-SCS-MP2 Energies <==================
	-----------------------------------------------------------
	 SCS Same-Spin Scale       =       0.3333333333333333 [-]
	 SCS Opposite-Spin Scale   =       1.2000000000000000 [-]
	 SCS Same-Spin Energy      =      -0.1779745091880288 [Eh]
	 SCS Opposite-Spin Energy  =      -1.9443913910978445 [Eh]
	 SCS Correlation Energy    =      -2.1223659002858732 [Eh]
	 SCS Total Energy          =    -898.7294409332404257 [Eh]
	-----------------------------------------------------------

  Dipole Moment: [D]
     X:     0.5940      Y:     1.8593      Z:     0.0889     Total:     1.9539

*** Psi4 exiting successfully. Buy a developer a beer!
