                               Psi4 1.4a3.dev225

  ==> Input File <==

--------------------------------------------------------------------------
#psi4
#
memory 32 gb

molecule  {
0 1
 Cl        1.0239510     2.3134080    -0.0075990
  O       -2.5545530    -1.5411200    -0.0264400
  N       -1.1683820     0.3068610    -0.0163620
  C        0.1096870    -0.2710340    -0.0061280
  C        1.2343910     0.5769770    -0.0015960
  C        0.3284730    -1.6588570    -0.0015270
  C        2.5300300     0.0689490     0.0091910
  C        1.6277130    -2.1636760     0.0089260
  C        2.7309420    -1.3104680     0.0141480
  C       -2.3977350    -0.3210840    -0.0173950
  C       -3.5624210     0.6474400     0.0363070
  H       -0.5282050    -2.3191560    -0.0064230
  H       -1.1804810     1.3202100    -0.0131680
  H        3.3690000     0.7589460     0.0128930
  H        1.7714720    -3.2410880     0.0123870
  H        3.7417620    -1.7087950     0.0220870
  H       -3.7229199     0.9451988     1.0771280
  H       -4.4568090     0.1237200    -0.3002800
  H       -3.3965620     1.5279900    -0.5904610
units angstrom
no_reorient  #important for SAPT in psi4, default
symmetry c1  #important for SAPT in psi4, default
}

set PROPERTIES_ORIGIN ["COM"]
properties('MP2/aug-cc-pvtz', properties = ['dipole'])
--------------------------------------------------------------------------

    Molecular point group: c1
  Charge       = 0
  Multiplicity = 1
  Basis Set: AUG-CC-PVTZ
    Blend: AUG-CC-PVTZ
  Basis Set: (AUG-CC-PVTZ AUX)
    Blend: AUG-CC-PVTZ-JKFIT

    Orbital Energies [Eh]
    ---------------------

    Doubly Occupied:

       1A   -104.856461     2A    -20.535248     3A    -15.613535
       4A    -11.371421     5A    -11.308996     6A    -11.307863
       7A    -11.256996     8A    -11.248375     9A    -11.248255
      10A    -11.244055    11A    -11.239906    12A    -10.580275
      13A     -8.047136    14A     -8.045389    15A     -8.045289
      16A     -1.390431    17A     -1.271271    18A     -1.181853
      19A     -1.125146    20A     -1.044942    21A     -1.008918
      22A     -0.987637    23A     -0.871457    24A     -0.830594
      25A     -0.789731    26A     -0.735945    27A     -0.687601
      28A     -0.676309    29A     -0.635982    30A     -0.634923
      31A     -0.621757    32A     -0.596572    33A     -0.590914
      34A     -0.576034    35A     -0.569852    36A     -0.538322
      37A     -0.529115    38A     -0.513885    39A     -0.479690
      40A     -0.470905    41A     -0.451469    42A     -0.433995
      43A     -0.344598    44A     -0.318847

  @DF-RHF Final Energy:  -896.60686575275895

   => Energetics <=

    Nuclear Repulsion Energy =            656.2787937530541740
    One-Electron Energy =               -2532.0555319039285678
    Two-Electron Energy =                 979.1698723981153307
    Total Energy =                       -896.6068657527589494
  Basis Set: (AUG-CC-PVTZ AUX)
    Blend: AUG-CC-PVTZ-RI
    Molecular point group: c1

    Geometry (in Angstrom), charge = 0, multiplicity = 1:

       Center              X                  Y                   Z               Mass
    ------------   -----------------  -----------------  -----------------  -----------------
         CL           0.992232499482     2.285307346834    -0.006422865732    34.968852682000
         O           -2.586271500518    -1.569220653166    -0.025263865732    15.994914619570
         N           -1.200100500518     0.278760346834    -0.015185865732    14.003074004430
         C            0.077968499482    -0.299134653166    -0.004951865732    12.000000000000
         C            1.202672499482     0.548876346834    -0.000419865732    12.000000000000
         C            0.296754499482    -1.686957653166    -0.000350865732    12.000000000000
         C            2.498311499482     0.040848346834     0.010367134268    12.000000000000
         C            1.595994499482    -2.191776653166     0.010102134268    12.000000000000
         C            2.699223499482    -1.338568653166     0.015324134268    12.000000000000
         C           -2.429453500518    -0.349184653166    -0.016218865732    12.000000000000
         C           -3.594139500518     0.619339346834     0.037483134268    12.000000000000
         H           -0.559923500518    -2.347256653166    -0.005246865732     1.007825032230
         H           -1.212199500518     1.292109346834    -0.011991865732     1.007825032230
         H            3.337281499482     0.730845346834     0.014069134268     1.007825032230
         H            1.739753499482    -3.269188653166     0.013563134268     1.007825032230
         H            3.710043499482    -1.736895653166     0.023263134268     1.007825032230
         H           -3.754638400518     0.917098146834     1.078304134268     1.007825032230
         H           -4.488527500518     0.095619346834    -0.299103865732     1.007825032230
         H           -3.428280500518     1.499889346834    -0.589284865732     1.007825032230

  Basis Set: AUG-CC-PVTZ
    Blend: AUG-CC-PVTZ
  Basis Set: (AUG-CC-PVTZ AUX)
    Blend: AUG-CC-PVTZ-JKFIT
	 Reference Energy          =    -896.6068657527589494 [Eh]
	 Singles Energy            =      -0.0000000000000000 [Eh]
	 Same-Spin Energy          =      -0.5339636652159596 [Eh]
	 Opposite-Spin Energy      =      -1.6204613405255845 [Eh]
	 Correlation Energy        =      -2.1544250057415439 [Eh]
	 Total Energy              =    -898.7612907585005360 [Eh]

	 ================> DF-SCS-MP2 Energies <==================
	-----------------------------------------------------------
	 SCS Same-Spin Scale       =       0.3333333333333333 [-]
	 SCS Opposite-Spin Scale   =       1.2000000000000000 [-]
	 SCS Same-Spin Energy      =      -0.1779878884053199 [Eh]
	 SCS Opposite-Spin Energy  =      -1.9445536086307014 [Eh]
	 SCS Correlation Energy    =      -2.1225414970360212 [Eh]
	 SCS Total Energy          =    -898.7294072497949173 [Eh]
	-----------------------------------------------------------

  Dipole Moment: [D]
     X:     0.5866      Y:     1.8534      Z:     0.0901     Total:     1.9461

*** Psi4 exiting successfully. Buy a developer a beer!
