                               Psi4 1.4a3.dev225

  ==> Input File <==

--------------------------------------------------------------------------
#psi4
#
memory 32 gb

molecule  {
0 1
 Cl        1.0239510     2.3134080    -0.0075990
  O       -2.5545530    -1.5411200    -0.0264400
  N       -1.1683820     0.3068610    -0.0163620
  C       -0.0725447    -0.1886357    -0.0075872
  C        1.2343910     0.5769770    -0.0015960
  C        0.3284730    -1.6588570    -0.0015270
  C        2.5300300     0.0689490     0.0091910
  C        1.6277130    -2.1636760     0.0089260
  C        2.7309420    -1.3104680     0.0141480
  C       -2.3977350    -0.3210840    -0.0173950
  C       -3.5624210     0.6474400     0.0363070
  H       -0.5282050    -2.3191560    -0.0064230
  H       -1.1804810     1.3202100    -0.0131680
  H        3.3690000     0.7589460     0.0128930
  H        1.7714720    -3.2410880     0.0123870
  H        3.7417620    -1.7087950     0.0220870
  H       -3.7187230     0.9816890     1.0666350
  H       -4.4568090     0.1237200    -0.3002800
  H       -3.3965620     1.5279900    -0.5904610
units angstrom
no_reorient  #important for SAPT in psi4, default
symmetry c1  #important for SAPT in psi4, default
}

set PROPERTIES_ORIGIN ["COM"]
properties('MP2/aug-cc-pvtz', properties = ['dipole'])
--------------------------------------------------------------------------

    Molecular point group: c1
  Charge       = 0
  Multiplicity = 1
  Basis Set: AUG-CC-PVTZ
    Blend: AUG-CC-PVTZ
  Basis Set: (AUG-CC-PVTZ AUX)
    Blend: AUG-CC-PVTZ-JKFIT

    Orbital Energies [Eh]
    ---------------------

    Doubly Occupied:

       1A   -104.845194     2A    -20.559058     3A    -15.634573
       4A    -11.390598     5A    -11.321914     6A    -11.305436
       7A    -11.261657     8A    -11.251918     9A    -11.242895
      10A    -11.240563    11A    -11.229549    12A    -10.569425
      13A     -8.036262    14A     -8.034642    15A     -8.034496
      16A     -1.422675    17A     -1.343070    18A     -1.169591
      19A     -1.108406    20A     -1.061797    21A     -0.997745
      22A     -0.972863    23A     -0.900183    24A     -0.841269
      25A     -0.789266    26A     -0.760375    27A     -0.705982
      28A     -0.673606    29A     -0.664574    30A     -0.628804
      31A     -0.614450    32A     -0.599309    33A     -0.593585
      34A     -0.585292    35A     -0.578306    36A     -0.534462
      37A     -0.528671    38A     -0.491175    39A     -0.489810
      40A     -0.464527    41A     -0.458624    42A     -0.441302
      43A     -0.336646    44A     -0.284808

  @DF-RHF Final Energy:  -896.54050503727308

   => Energetics <=

    Nuclear Repulsion Energy =            656.8093881732901309
    One-Electron Energy =               -2532.7010801187011566
    Two-Electron Energy =                 979.3511869081378336
    Total Energy =                       -896.5405050372730784
  Basis Set: (AUG-CC-PVTZ AUX)
    Blend: AUG-CC-PVTZ-RI
    Molecular point group: c1

    Geometry (in Angstrom), charge = 0, multiplicity = 1:

       Center              X                  Y                   Z               Mass
    ------------   -----------------  -----------------  -----------------  -----------------
         CL           1.005144750974     2.279240029049    -0.006256708240    34.968852682000
         O           -2.573359249026    -1.575287970951    -0.025097708240    15.994914619570
         N           -1.187188249026     0.272693029049    -0.015019708240    14.003074004430
         C           -0.091350949026    -0.222803670951    -0.006244908240    12.000000000000
         C            1.215584750974     0.542809029049    -0.000253708240    12.000000000000
         C            0.309666750974    -1.693024970951    -0.000184708240    12.000000000000
         C            2.511223750974     0.034781029049     0.010533291760    12.000000000000
         C            1.608906750974    -2.197843970951     0.010268291760    12.000000000000
         C            2.712135750974    -1.344635970951     0.015490291760    12.000000000000
         C           -2.416541249026    -0.355251970951    -0.016052708240    12.000000000000
         C           -3.581227249026     0.613272029049     0.037649291760    12.000000000000
         H           -0.547011249026    -2.353323970951    -0.005080708240     1.007825032230
         H           -1.199287249026     1.286042029049    -0.011825708240     1.007825032230
         H            3.350193750974     0.724778029049     0.014235291760     1.007825032230
         H            1.752665750974    -3.275255970951     0.013729291760     1.007825032230
         H            3.722955750974    -1.742962970951     0.023429291760     1.007825032230
         H           -3.737529249026     0.947521029049     1.067977291760     1.007825032230
         H           -4.475615249026     0.089552029049    -0.298937708240     1.007825032230
         H           -3.415368249026     1.493822029049    -0.589118708240     1.007825032230

  Basis Set: AUG-CC-PVTZ
    Blend: AUG-CC-PVTZ
  Basis Set: (AUG-CC-PVTZ AUX)
    Blend: AUG-CC-PVTZ-JKFIT
	 Reference Energy          =    -896.5405050372730784 [Eh]
	 Singles Energy            =      -0.0000000000000000 [Eh]
	 Same-Spin Energy          =      -0.5375693713361691 [Eh]
	 Opposite-Spin Energy      =      -1.6256580435298078 [Eh]
	 Correlation Energy        =      -2.1632274148659771 [Eh]
	 Total Energy              =    -898.7037324521390929 [Eh]

	 ================> DF-SCS-MP2 Energies <==================
	-----------------------------------------------------------
	 SCS Same-Spin Scale       =       0.3333333333333333 [-]
	 SCS Opposite-Spin Scale   =       1.2000000000000000 [-]
	 SCS Same-Spin Energy      =      -0.1791897904453897 [Eh]
	 SCS Opposite-Spin Energy  =      -1.9507896522357693 [Eh]
	 SCS Correlation Energy    =      -2.1299794426811589 [Eh]
	 SCS Total Energy          =    -898.6704844799542116 [Eh]
	-----------------------------------------------------------

  Dipole Moment: [D]
     X:    -0.7430      Y:     2.0271      Z:     0.0829     Total:     2.1606

*** Psi4 exiting successfully. Buy a developer a beer!
