                               Psi4 1.4a3.dev225

  ==> Input File <==

--------------------------------------------------------------------------
#psi4
#
memory 32 gb

molecule  {
0 1
 Cl        1.0239510     2.3134080    -0.0075990
  O       -2.5545530    -1.5411200    -0.0264400
  N       -1.1683820     0.3068610    -0.0163620
  C        0.1096870    -0.2710340    -0.0061280
  C        1.2343910     0.5769770    -0.0015960
  C        0.3284730    -1.6588570    -0.0015270
  C        2.5300300     0.0689490     0.0091910
  C        1.6277130    -2.1636760     0.0089260
  C        2.7165292    -1.2115127     0.0137924
  C       -2.3977350    -0.3210840    -0.0173950
  C       -3.5624210     0.6474400     0.0363070
  H       -0.5282050    -2.3191560    -0.0064230
  H       -1.1804810     1.3202100    -0.0131680
  H        3.3690000     0.7589460     0.0128930
  H        1.7714720    -3.2410880     0.0123870
  H        3.7417620    -1.7087950     0.0220870
  H       -3.7187230     0.9816890     1.0666350
  H       -4.4568090     0.1237200    -0.3002800
  H       -3.3965620     1.5279900    -0.5904610
units angstrom
no_reorient  #important for SAPT in psi4, default
symmetry c1  #important for SAPT in psi4, default
}

set PROPERTIES_ORIGIN ["COM"]
properties('MP2/aug-cc-pvtz', properties = ['dipole'])
--------------------------------------------------------------------------

    Molecular point group: c1
  Charge       = 0
  Multiplicity = 1
  Basis Set: AUG-CC-PVTZ
    Blend: AUG-CC-PVTZ
  Basis Set: (AUG-CC-PVTZ AUX)
    Blend: AUG-CC-PVTZ-JKFIT

    Orbital Energies [Eh]
    ---------------------

    Doubly Occupied:

       1A   -104.855809     2A    -20.535328     3A    -15.613394
       4A    -11.371846     5A    -11.308445     6A    -11.306167
       7A    -11.253530     8A    -11.248376     9A    -11.244539
      10A    -11.241594    11A    -11.240878    12A    -10.579599
      13A     -8.046456    14A     -8.044722    15A     -8.044624
      16A     -1.390637    17A     -1.271377    18A     -1.185648
      19A     -1.126755    20A     -1.051983    21A     -1.013932
      22A     -0.982216    23A     -0.864996    24A     -0.837292
      25A     -0.787598    26A     -0.737988    27A     -0.689111
      28A     -0.668628    29A     -0.642553    30A     -0.633840
      31A     -0.623431    32A     -0.601422    33A     -0.590273
      34A     -0.576081    35A     -0.569541    36A     -0.530161
      37A     -0.527584    38A     -0.511399    39A     -0.479823
      40A     -0.469334    41A     -0.454954    42A     -0.433285
      43A     -0.351221    44A     -0.316673

  @DF-RHF Final Energy:  -896.59345727416803

   => Energetics <=

    Nuclear Repulsion Energy =            657.5619186146086577
    One-Electron Energy =               -2534.6006692666269373
    Two-Electron Energy =                 980.4452933778502484
    Total Energy =                       -896.5934572741680313
  Basis Set: (AUG-CC-PVTZ AUX)
    Blend: AUG-CC-PVTZ-RI
    Molecular point group: c1

    Geometry (in Angstrom), charge = 0, multiplicity = 1:

       Center              X                  Y                   Z               Mass
    ------------   -----------------  -----------------  -----------------  -----------------
         CL           0.993230691616     2.278064588852    -0.006335056721    34.968852682000
         O           -2.585273308384    -1.576463411148    -0.025176056721    15.994914619570
         N           -1.199102308384     0.271517588852    -0.015098056721    14.003074004430
         C            0.078966691616    -0.306377411148    -0.004864056721    12.000000000000
         C            1.203670691616     0.541633588852    -0.000332056721    12.000000000000
         C            0.297752691616    -1.694200411148    -0.000263056721    12.000000000000
         C            2.499309691616     0.033605588852     0.010454943279    12.000000000000
         C            1.596992691616    -2.199019411148     0.010189943279    12.000000000000
         C            2.685808891616    -1.246856111148     0.015056343279    12.000000000000
         C           -2.428455308384    -0.356427411148    -0.016131056721    12.000000000000
         C           -3.593141308384     0.612096588852     0.037570943279    12.000000000000
         H           -0.558925308384    -2.354499411148    -0.005159056721     1.007825032230
         H           -1.211201308384     1.284866588852    -0.011904056721     1.007825032230
         H            3.338279691616     0.723602588852     0.014156943279     1.007825032230
         H            1.740751691616    -3.276431411148     0.013650943279     1.007825032230
         H            3.711041691616    -1.744138411148     0.023350943279     1.007825032230
         H           -3.749443308384     0.946345588852     1.067898943279     1.007825032230
         H           -4.487529308384     0.088376588852    -0.299016056721     1.007825032230
         H           -3.427282308384     1.492646588852    -0.589197056721     1.007825032230

  Basis Set: AUG-CC-PVTZ
    Blend: AUG-CC-PVTZ
  Basis Set: (AUG-CC-PVTZ AUX)
    Blend: AUG-CC-PVTZ-JKFIT
	 Reference Energy          =    -896.5934572741680313 [Eh]
	 Singles Energy            =      -0.0000000000000000 [Eh]
	 Same-Spin Energy          =      -0.5337935219712200 [Eh]
	 Opposite-Spin Energy      =      -1.6207118350972638 [Eh]
	 Correlation Energy        =      -2.1545053570684836 [Eh]
	 Total Energy              =    -898.7479626312365326 [Eh]

	 ================> DF-SCS-MP2 Energies <==================
	-----------------------------------------------------------
	 SCS Same-Spin Scale       =       0.3333333333333333 [-]
	 SCS Opposite-Spin Scale   =       1.2000000000000000 [-]
	 SCS Same-Spin Energy      =      -0.1779311739904066 [Eh]
	 SCS Opposite-Spin Energy  =      -1.9448542021167166 [Eh]
	 SCS Correlation Energy    =      -2.1227853761071231 [Eh]
	 SCS Total Energy          =    -898.7162426502751487 [Eh]
	-----------------------------------------------------------

  Dipole Moment: [D]
     X:     0.5846      Y:     1.8435      Z:     0.0889     Total:     1.9360

*** Psi4 exiting successfully. Buy a developer a beer!
