                               Psi4 1.4a3.dev225

  ==> Input File <==

--------------------------------------------------------------------------
#psi4
#
memory 32 gb

molecule  {
0 1
 Cl        1.0239510     2.3134080    -0.0075990
  O       -2.5545530    -1.5411200    -0.0264400
  N       -1.1683820     0.3068610    -0.0163620
  C        0.1096870    -0.2710340    -0.0061280
  C        1.2503603     0.5890176    -0.0015317
  C        0.3284730    -1.6588570    -0.0015270
  C        2.5300300     0.0689490     0.0091910
  C        1.6277130    -2.1636760     0.0089260
  C        2.7309420    -1.3104680     0.0141480
  C       -2.3977350    -0.3210840    -0.0173950
  C       -3.5624210     0.6474400     0.0363070
  H       -0.5282050    -2.3191560    -0.0064230
  H       -1.1804810     1.3202100    -0.0131680
  H        3.3690000     0.7589460     0.0128930
  H        1.7714720    -3.2410880     0.0123870
  H        3.7417620    -1.7087950     0.0220870
  H       -3.7187230     0.9816890     1.0666350
  H       -4.4568090     0.1237200    -0.3002800
  H       -3.3965620     1.5279900    -0.5904610
units angstrom
no_reorient  #important for SAPT in psi4, default
symmetry c1  #important for SAPT in psi4, default
}

set PROPERTIES_ORIGIN ["COM"]
properties('MP2/aug-cc-pvtz', properties = ['dipole'])
--------------------------------------------------------------------------

    Molecular point group: c1
  Charge       = 0
  Multiplicity = 1
  Basis Set: AUG-CC-PVTZ
    Blend: AUG-CC-PVTZ
  Basis Set: (AUG-CC-PVTZ AUX)
    Blend: AUG-CC-PVTZ-JKFIT

    Orbital Energies [Eh]
    ---------------------

    Doubly Occupied:

       1A   -104.857529     2A    -20.535631     3A    -15.613853
       4A    -11.371708     5A    -11.310268     6A    -11.308486
       7A    -11.255531     8A    -11.248412     9A    -11.248076
      10A    -11.243416    11A    -11.239140    12A    -10.581471
      13A     -8.048356    14A     -8.046578    15A     -8.046478
      16A     -1.390594    17A     -1.270672    18A     -1.183216
      19A     -1.125999    20A     -1.044118    21A     -1.009783
      22A     -0.985878    23A     -0.870919    24A     -0.830242
      25A     -0.788964    26A     -0.736179    27A     -0.688214
      28A     -0.676359    29A     -0.635881    30A     -0.633540
      31A     -0.620476    32A     -0.597323    33A     -0.592778
      34A     -0.574299    35A     -0.570272    36A     -0.538619
      37A     -0.529644    38A     -0.513540    39A     -0.480208
      40A     -0.471581    41A     -0.451552    42A     -0.434334
      43A     -0.345605    44A     -0.316321

  @DF-RHF Final Energy:  -896.60620260423400

   => Energetics <=

    Nuclear Repulsion Energy =            656.1371030532602617
    One-Electron Energy =               -2531.7625247330579441
    Two-Electron Energy =                 979.0192190755636830
    Total Energy =                       -896.6062026042339994
  Basis Set: (AUG-CC-PVTZ AUX)
    Blend: AUG-CC-PVTZ-RI
    Molecular point group: c1

    Geometry (in Angstrom), charge = 0, multiplicity = 1:

       Center              X                  Y                   Z               Mass
    ------------   -----------------  -----------------  -----------------  -----------------
         CL           0.991073758501     2.284234971896    -0.006364866912    34.968852682000
         O           -2.587430241499    -1.570293028104    -0.025205866912    15.994914619570
         N           -1.201259241499     0.277687971896    -0.015127866912    14.003074004430
         C            0.076809758501    -0.300207028104    -0.004893866912    12.000000000000
         C            1.217483058501     0.559844571896    -0.000297566912    12.000000000000
         C            0.295595758501    -1.688030028104    -0.000292866912    12.000000000000
         C            2.497152758501     0.039775971896     0.010425133088    12.000000000000
         C            1.594835758501    -2.192849028104     0.010160133088    12.000000000000
         C            2.698064758501    -1.339641028104     0.015382133088    12.000000000000
         C           -2.430612241499    -0.350257028104    -0.016160866912    12.000000000000
         C           -3.595298241499     0.618266971896     0.037541133088    12.000000000000
         H           -0.561082241499    -2.348329028104    -0.005188866912     1.007825032230
         H           -1.213358241499     1.291036971896    -0.011933866912     1.007825032230
         H            3.336122758501     0.729772971896     0.014127133088     1.007825032230
         H            1.738594758501    -3.270261028104     0.013621133088     1.007825032230
         H            3.708884758501    -1.737968028104     0.023321133088     1.007825032230
         H           -3.751600241499     0.952515971896     1.067869133088     1.007825032230
         H           -4.489686241499     0.094546971896    -0.299045866912     1.007825032230
         H           -3.429439241499     1.498816971896    -0.589226866912     1.007825032230

  Basis Set: AUG-CC-PVTZ
    Blend: AUG-CC-PVTZ
  Basis Set: (AUG-CC-PVTZ AUX)
    Blend: AUG-CC-PVTZ-JKFIT
	 Reference Energy          =    -896.6062026042339994 [Eh]
	 Singles Energy            =      -0.0000000000000000 [Eh]
	 Same-Spin Energy          =      -0.5340817448934577 [Eh]
	 Opposite-Spin Energy      =      -1.6206154650384346 [Eh]
	 Correlation Energy        =      -2.1546972099318924 [Eh]
	 Total Energy              =    -898.7608998141658958 [Eh]

	 ================> DF-SCS-MP2 Energies <==================
	-----------------------------------------------------------
	 SCS Same-Spin Scale       =       0.3333333333333333 [-]
	 SCS Opposite-Spin Scale   =       1.2000000000000000 [-]
	 SCS Same-Spin Energy      =      -0.1780272482978192 [Eh]
	 SCS Opposite-Spin Energy  =      -1.9447385580461214 [Eh]
	 SCS Correlation Energy    =      -2.1227658063439407 [Eh]
	 SCS Total Energy          =    -898.7289684105779770 [Eh]
	-----------------------------------------------------------

  Dipole Moment: [D]
     X:     0.5733      Y:     1.9180      Z:     0.0886     Total:     2.0038

*** Psi4 exiting successfully. Buy a developer a beer!
