                               Psi4 1.4a3.dev225

  ==> Input File <==

--------------------------------------------------------------------------
#psi4
#
memory 32 gb

molecule  {
0 1
 Cl        1.0239510     2.3134080    -0.0075990
  O       -2.5545530    -1.5411200    -0.0264400
  N       -1.1683820     0.3068610    -0.0163620
  C        0.1096870    -0.2710340    -0.0061280
  C        1.2343910     0.5769770    -0.0015960
  C        0.3284730    -1.6588570    -0.0015270
  C        2.5541343     0.0722458     0.0093471
  C        1.6277130    -2.1636760     0.0089260
  C        2.7309420    -1.3104680     0.0141480
  C       -2.3977350    -0.3210840    -0.0173950
  C       -3.5624210     0.6474400     0.0363070
  H       -0.5282050    -2.3191560    -0.0064230
  H       -1.1804810     1.3202100    -0.0131680
  H        3.3690000     0.7589460     0.0128930
  H        1.7714720    -3.2410880     0.0123870
  H        3.7417620    -1.7087950     0.0220870
  H       -3.7187230     0.9816890     1.0666350
  H       -4.4568090     0.1237200    -0.3002800
  H       -3.3965620     1.5279900    -0.5904610
units angstrom
no_reorient  #important for SAPT in psi4, default
symmetry c1  #important for SAPT in psi4, default
}

set PROPERTIES_ORIGIN ["COM"]
properties('MP2/aug-cc-pvtz', properties = ['dipole'])
--------------------------------------------------------------------------

    Molecular point group: c1
  Charge       = 0
  Multiplicity = 1
  Basis Set: AUG-CC-PVTZ
    Blend: AUG-CC-PVTZ
  Basis Set: (AUG-CC-PVTZ AUX)
    Blend: AUG-CC-PVTZ-JKFIT

    Orbital Energies [Eh]
    ---------------------

    Doubly Occupied:

       1A   -104.856156     2A    -20.535492     3A    -15.613499
       4A    -11.371739     5A    -11.310501     6A    -11.308313
       7A    -11.257859     8A    -11.248452     9A    -11.248343
      10A    -11.244636    11A    -11.240734    12A    -10.579979
      13A     -8.046839    14A     -8.045096    15A     -8.044997
      16A     -1.390604    17A     -1.271097    18A     -1.180007
      19A     -1.124725    20A     -1.045172    21A     -1.008295
      22A     -0.986584    23A     -0.871163    24A     -0.830265
      25A     -0.791081    26A     -0.735907    27A     -0.688990
      28A     -0.675829    29A     -0.635382    30A     -0.633641
      31A     -0.625466    32A     -0.598164    33A     -0.589913
      34A     -0.574067    35A     -0.570393    36A     -0.537949
      37A     -0.528182    38A     -0.516001    39A     -0.479508
      40A     -0.469778    41A     -0.451361    42A     -0.434565
      43A     -0.342834    44A     -0.319273

  @DF-RHF Final Energy:  -896.60590820487323

   => Energetics <=

    Nuclear Repulsion Energy =            655.7649106675744406
    One-Electron Energy =               -2531.0239680618515195
    Two-Electron Energy =                 978.6531491894038481
    Total Energy =                       -896.6059082048732307
  Basis Set: (AUG-CC-PVTZ AUX)
    Blend: AUG-CC-PVTZ-RI
    Molecular point group: c1

    Geometry (in Angstrom), charge = 0, multiplicity = 1:

       Center              X                  Y                   Z               Mass
    ------------   -----------------  -----------------  -----------------  -----------------
         CL           0.990496225977     2.284855725292    -0.006371384120    34.968852682000
         O           -2.588007774023    -1.569672274708    -0.025212384120    15.994914619570
         N           -1.201836774023     0.278308725292    -0.015134384120    14.003074004430
         C            0.076232225977    -0.299586274708    -0.004900384120    12.000000000000
         C            1.200936225977     0.548424725292    -0.000368384120    12.000000000000
         C            0.295018225977    -1.687409274708    -0.000299384120    12.000000000000
         C            2.520679525977     0.043693525292     0.010574715880    12.000000000000
         C            1.594258225977    -2.192228274708     0.010153615880    12.000000000000
         C            2.697487225977    -1.339020274708     0.015375615880    12.000000000000
         C           -2.431189774023    -0.349636274708    -0.016167384120    12.000000000000
         C           -3.595875774023     0.618887725292     0.037534615880    12.000000000000
         H           -0.561659774023    -2.347708274708    -0.005195384120     1.007825032230
         H           -1.213935774023     1.291657725292    -0.011940384120     1.007825032230
         H            3.335545225977     0.730393725292     0.014120615880     1.007825032230
         H            1.738017225977    -3.269640274708     0.013614615880     1.007825032230
         H            3.708307225977    -1.737347274708     0.023314615880     1.007825032230
         H           -3.752177774023     0.953136725292     1.067862615880     1.007825032230
         H           -4.490263774023     0.095167725292    -0.299052384120     1.007825032230
         H           -3.430016774023     1.499437725292    -0.589233384120     1.007825032230

  Basis Set: AUG-CC-PVTZ
    Blend: AUG-CC-PVTZ
  Basis Set: (AUG-CC-PVTZ AUX)
    Blend: AUG-CC-PVTZ-JKFIT
	 Reference Energy          =    -896.6059082048732307 [Eh]
	 Singles Energy            =      -0.0000000000000000 [Eh]
	 Same-Spin Energy          =      -0.5339606212077037 [Eh]
	 Opposite-Spin Energy      =      -1.6206474154860004 [Eh]
	 Correlation Energy        =      -2.1546080366937042 [Eh]
	 Total Energy              =    -898.7605162415669611 [Eh]

	 ================> DF-SCS-MP2 Energies <==================
	-----------------------------------------------------------
	 SCS Same-Spin Scale       =       0.3333333333333333 [-]
	 SCS Opposite-Spin Scale   =       1.2000000000000000 [-]
	 SCS Same-Spin Energy      =      -0.1779868737359012 [Eh]
	 SCS Opposite-Spin Energy  =      -1.9447768985832004 [Eh]
	 SCS Correlation Energy    =      -2.1227637723191015 [Eh]
	 SCS Total Energy          =    -898.7286719771923345 [Eh]
	-----------------------------------------------------------

  Dipole Moment: [D]
     X:     0.5932      Y:     1.8629      Z:     0.0890     Total:     1.9571

*** Psi4 exiting successfully. Buy a developer a beer!
