                               Psi4 1.4a3.dev225

  ==> Input File <==

--------------------------------------------------------------------------
#psi4
#
memory 32 gb

molecule  {
0 1
 Cl        1.0239510     2.3134080    -0.0075990
  O       -2.5545530    -1.5411200    -0.0264400
  N       -1.1683820     0.3068610    -0.0163620
  C        0.1096870    -0.2710340    -0.0061280
  C        1.2343910     0.5769770    -0.0015960
  C        0.3284730    -1.6588570    -0.0015270
  C        2.5300300     0.0689490     0.0091910
  C        1.6277130    -2.1636760     0.0089260
  C        2.7309420    -1.3104680     0.0141480
  C       -2.3977350    -0.3210840    -0.0173950
  C       -3.5624210     0.6474400     0.0363070
  H       -0.5282050    -2.3191560    -0.0064230
  H       -1.1804810     1.3202100    -0.0131680
  H        3.3690000     0.7589460     0.0128930
  H        1.7714720    -3.2410880     0.0123870
  H        3.7417620    -1.7087950     0.0220870
  H       -3.7269212     0.9083459     1.0863528
  H       -4.4568090     0.1237200    -0.3002800
  H       -3.3965620     1.5279900    -0.5904610
units angstrom
no_reorient  #important for SAPT in psi4, default
symmetry c1  #important for SAPT in psi4, default
}

set PROPERTIES_ORIGIN ["COM"]
properties('MP2/aug-cc-pvtz', properties = ['dipole'])
--------------------------------------------------------------------------

    Molecular point group: c1
  Charge       = 0
  Multiplicity = 1
  Basis Set: AUG-CC-PVTZ
    Blend: AUG-CC-PVTZ
  Basis Set: (AUG-CC-PVTZ AUX)
    Blend: AUG-CC-PVTZ-JKFIT

    Orbital Energies [Eh]
    ---------------------

    Doubly Occupied:

       1A   -104.856437     2A    -20.534953     3A    -15.613509
       4A    -11.371160     5A    -11.308973     6A    -11.307841
       7A    -11.256976     8A    -11.248413     9A    -11.248234
      10A    -11.244041    11A    -11.239881    12A    -10.580252
      13A     -8.047113    14A     -8.045365    15A     -8.045265
      16A     -1.390267    17A     -1.271215    18A     -1.181828
      19A     -1.125125    20A     -1.045018    21A     -1.008942
      22A     -0.987719    23A     -0.871409    24A     -0.830561
      25A     -0.789580    26A     -0.735909    27A     -0.686816
      28A     -0.676295    29A     -0.636378    30A     -0.635482
      31A     -0.621711    32A     -0.595986    33A     -0.590837
      34A     -0.577397    35A     -0.569009    36A     -0.538273
      37A     -0.529162    38A     -0.513834    39A     -0.479646
      40A     -0.470879    41A     -0.451403    42A     -0.433491
      43A     -0.344577    44A     -0.318842

  @DF-RHF Final Energy:  -896.60652371187348

   => Energetics <=

    Nuclear Repulsion Energy =            656.2983016951717445
    One-Electron Energy =               -2532.0976469053257460
    Two-Electron Energy =                 979.1928214982806367
    Total Energy =                       -896.6065237118734785
  Basis Set: (AUG-CC-PVTZ AUX)
    Blend: AUG-CC-PVTZ-RI
    Molecular point group: c1

    Geometry (in Angstrom), charge = 0, multiplicity = 1:

       Center              X                  Y                   Z               Mass
    ------------   -----------------  -----------------  -----------------  -----------------
         CL           0.992256356925     2.285527079413    -0.006477867892    34.968852682000
         O           -2.586247643075    -1.569000920587    -0.025318867892    15.994914619570
         N           -1.200076643075     0.278980079413    -0.015240867892    14.003074004430
         C            0.077992356925    -0.298914920587    -0.005006867892    12.000000000000
         C            1.202696356925     0.549096079413    -0.000474867892    12.000000000000
         C            0.296778356925    -1.686737920587    -0.000405867892    12.000000000000
         C            2.498335356925     0.041068079413     0.010312132108    12.000000000000
         C            1.596018356925    -2.191556920587     0.010047132108    12.000000000000
         C            2.699247356925    -1.338348920587     0.015269132108    12.000000000000
         C           -2.429429643075    -0.348964920587    -0.016273867892    12.000000000000
         C           -3.594115643075     0.619559079413     0.037428132108    12.000000000000
         H           -0.559899643075    -2.347036920587    -0.005301867892     1.007825032230
         H           -1.212175643075     1.292329079413    -0.012046867892     1.007825032230
         H            3.337305356925     0.731065079413     0.014014132108     1.007825032230
         H            1.739777356925    -3.268968920587     0.013508132108     1.007825032230
         H            3.710067356925    -1.736675920587     0.023208132108     1.007825032230
         H           -3.758615843075     0.880464979413     1.087473932108     1.007825032230
         H           -4.488503643075     0.095839079413    -0.299158867892     1.007825032230
         H           -3.428256643075     1.500109079413    -0.589339867892     1.007825032230

  Basis Set: AUG-CC-PVTZ
    Blend: AUG-CC-PVTZ
  Basis Set: (AUG-CC-PVTZ AUX)
    Blend: AUG-CC-PVTZ-JKFIT
	 Reference Energy          =    -896.6065237118734785 [Eh]
	 Singles Energy            =      -0.0000000000000000 [Eh]
	 Same-Spin Energy          =      -0.5339828759897776 [Eh]
	 Opposite-Spin Energy      =      -1.6204762987276840 [Eh]
	 Correlation Energy        =      -2.1544591747174615 [Eh]
	 Total Energy              =    -898.7609828865909094 [Eh]

	 ================> DF-SCS-MP2 Energies <==================
	-----------------------------------------------------------
	 SCS Same-Spin Scale       =       0.3333333333333333 [-]
	 SCS Opposite-Spin Scale   =       1.2000000000000000 [-]
	 SCS Same-Spin Energy      =      -0.1779942919965925 [Eh]
	 SCS Opposite-Spin Energy  =      -1.9445715584732206 [Eh]
	 SCS Correlation Energy    =      -2.1225658504698131 [Eh]
	 SCS Total Energy          =    -898.7290895623433471 [Eh]
	-----------------------------------------------------------

  Dipole Moment: [D]
     X:     0.5813      Y:     1.8421      Z:     0.0906     Total:     1.9337

*** Psi4 exiting successfully. Buy a developer a beer!
