                               Psi4 1.4a3.dev225

  ==> Input File <==

--------------------------------------------------------------------------
#psi4
#
memory 32 gb

molecule  {
0 1
 Cl        1.0239510     2.3134080    -0.0075990
  O       -2.5545530    -1.5411200    -0.0264400
  N       -1.1683820     0.3068610    -0.0163620
  C        0.1096870    -0.2710340    -0.0061280
  C        1.2257218     0.5542869    -0.0016023
  C        0.3284730    -1.6588570    -0.0015270
  C        2.5300300     0.0689490     0.0091910
  C        1.6277130    -2.1636760     0.0089260
  C        2.7309420    -1.3104680     0.0141480
  C       -2.3977350    -0.3210840    -0.0173950
  C       -3.5624210     0.6474400     0.0363070
  H       -0.5282050    -2.3191560    -0.0064230
  H       -1.1804810     1.3202100    -0.0131680
  H        3.3690000     0.7589460     0.0128930
  H        1.7714720    -3.2410880     0.0123870
  H        3.7417620    -1.7087950     0.0220870
  H       -3.7187230     0.9816890     1.0666350
  H       -4.4568090     0.1237200    -0.3002800
  H       -3.3965620     1.5279900    -0.5904610
units angstrom
no_reorient  #important for SAPT in psi4, default
symmetry c1  #important for SAPT in psi4, default
}

set PROPERTIES_ORIGIN ["COM"]
properties('MP2/aug-cc-pvtz', properties = ['dipole'])
--------------------------------------------------------------------------

    Molecular point group: c1
  Charge       = 0
  Multiplicity = 1
  Basis Set: AUG-CC-PVTZ
    Blend: AUG-CC-PVTZ
  Basis Set: (AUG-CC-PVTZ AUX)
    Blend: AUG-CC-PVTZ-JKFIT

    Orbital Energies [Eh]
    ---------------------

    Doubly Occupied:

       1A   -104.854103     2A    -20.535685     3A    -15.613695
       4A    -11.371974     5A    -11.308585     6A    -11.306779
       7A    -11.257806     8A    -11.248609     9A    -11.248443
      10A    -11.244989    11A    -11.240959    12A    -10.577685
      13A     -8.044497    14A     -8.042812    15A     -8.042712
      16A     -1.390831    17A     -1.272104    18A     -1.180624
      19A     -1.122879    20A     -1.046325    21A     -1.009087
      22A     -0.989824    23A     -0.872775    24A     -0.831215
      25A     -0.791507    26A     -0.736312    27A     -0.689194
      28A     -0.676454    29A     -0.637323    30A     -0.634103
      31A     -0.623030    32A     -0.597464    33A     -0.588473
      34A     -0.575549    35A     -0.570750    36A     -0.538513
      37A     -0.528080    38A     -0.512545    39A     -0.478479
      40A     -0.469691    41A     -0.451991    42A     -0.434890
      43A     -0.345281    44A     -0.321691

  @DF-RHF Final Energy:  -896.60700225197502

   => Energetics <=

    Nuclear Repulsion Energy =            656.3623408701527069
    One-Electron Energy =               -2532.2260528450710808
    Two-Electron Energy =                 979.2567097229432420
    Total Energy =                       -896.6070022519750182
  Basis Set: (AUG-CC-PVTZ AUX)
    Blend: AUG-CC-PVTZ-RI
    Molecular point group: c1

    Geometry (in Angstrom), charge = 0, multiplicity = 1:

       Center              X                  Y                   Z               Mass
    ------------   -----------------  -----------------  -----------------  -----------------
         CL           0.992822933066     2.286700627560    -0.006359854768    34.968852682000
         O           -2.585681066934    -1.567827372440    -0.025200854768    15.994914619570
         N           -1.199510066934     0.280153627560    -0.015122854768    14.003074004430
         C            0.078558933066    -0.297741372440    -0.004888854768    12.000000000000
         C            1.194593733066     0.527579527560    -0.000363154768    12.000000000000
         C            0.297344933066    -1.685564372440    -0.000287854768    12.000000000000
         C            2.498901933066     0.042241627560     0.010430145232    12.000000000000
         C            1.596584933066    -2.190383372440     0.010165145232    12.000000000000
         C            2.699813933066    -1.337175372440     0.015387145232    12.000000000000
         C           -2.428863066934    -0.347791372440    -0.016155854768    12.000000000000
         C           -3.593549066934     0.620732627560     0.037546145232    12.000000000000
         H           -0.559333066934    -2.345863372440    -0.005183854768     1.007825032230
         H           -1.211609066934     1.293502627560    -0.011928854768     1.007825032230
         H            3.337871933066     0.732238627560     0.014132145232     1.007825032230
         H            1.740343933066    -3.267795372440     0.013626145232     1.007825032230
         H            3.710633933066    -1.735502372440     0.023326145232     1.007825032230
         H           -3.749851066934     0.954981627560     1.067874145232     1.007825032230
         H           -4.487937066934     0.097012627560    -0.299040854768     1.007825032230
         H           -3.427690066934     1.501282627560    -0.589221854768     1.007825032230

  Basis Set: AUG-CC-PVTZ
    Blend: AUG-CC-PVTZ
  Basis Set: (AUG-CC-PVTZ AUX)
    Blend: AUG-CC-PVTZ-JKFIT
	 Reference Energy          =    -896.6070022519750182 [Eh]
	 Singles Energy            =      -0.0000000000000000 [Eh]
	 Same-Spin Energy          =      -0.5337357565417360 [Eh]
	 Opposite-Spin Energy      =      -1.6201957618229850 [Eh]
	 Correlation Energy        =      -2.1539315183647210 [Eh]
	 Total Energy              =    -898.7609337703397614 [Eh]

	 ================> DF-SCS-MP2 Energies <==================
	-----------------------------------------------------------
	 SCS Same-Spin Scale       =       0.3333333333333333 [-]
	 SCS Opposite-Spin Scale   =       1.2000000000000000 [-]
	 SCS Same-Spin Energy      =      -0.1779119188472453 [Eh]
	 SCS Opposite-Spin Energy  =      -1.9442349141875819 [Eh]
	 SCS Correlation Energy    =      -2.1221468330348272 [Eh]
	 SCS Total Energy          =    -898.7291490850097944 [Eh]
	-----------------------------------------------------------

  Dipole Moment: [D]
     X:     0.6083      Y:     1.7628      Z:     0.0895     Total:     1.8670

*** Psi4 exiting successfully. Buy a developer a beer!
