                               Psi4 1.4a3.dev225

  ==> Input File <==

--------------------------------------------------------------------------
#psi4
#
memory 32 gb

molecule  {
0 1
 Cl        1.0239510     2.3134080    -0.0075990
  O       -2.5545530    -1.5411200    -0.0264400
  N       -1.1683820     0.3068610    -0.0163620
  C        0.1096870    -0.2710340    -0.0061280
  C        1.3940841     0.6973834    -0.0009525
  C        0.3284730    -1.6588570    -0.0015270
  C        2.5300300     0.0689490     0.0091910
  C        1.6277130    -2.1636760     0.0089260
  C        2.7309420    -1.3104680     0.0141480
  C       -2.3977350    -0.3210840    -0.0173950
  C       -3.5624210     0.6474400     0.0363070
  H       -0.5282050    -2.3191560    -0.0064230
  H       -1.1804810     1.3202100    -0.0131680
  H        3.3690000     0.7589460     0.0128930
  H        1.7714720    -3.2410880     0.0123870
  H        3.7417620    -1.7087950     0.0220870
  H       -3.7187230     0.9816890     1.0666350
  H       -4.4568090     0.1237200    -0.3002800
  H       -3.3965620     1.5279900    -0.5904610
units angstrom
no_reorient  #important for SAPT in psi4, default
symmetry c1  #important for SAPT in psi4, default
}

set PROPERTIES_ORIGIN ["COM"]
properties('MP2/aug-cc-pvtz', properties = ['dipole'])
--------------------------------------------------------------------------

    Molecular point group: c1
  Charge       = 0
  Multiplicity = 1
  Basis Set: AUG-CC-PVTZ
    Blend: AUG-CC-PVTZ
  Basis Set: (AUG-CC-PVTZ AUX)
    Blend: AUG-CC-PVTZ-JKFIT

    Orbital Energies [Eh]
    ---------------------

    Doubly Occupied:

       1A   -104.867003     2A    -20.536062     3A    -15.615654
       4A    -11.371445     5A    -11.318742     6A    -11.309452
       7A    -11.248722     8A    -11.247014     9A    -11.243154
      10A    -11.237941    11A    -11.232085    12A    -10.592207
      13A     -8.059317    14A     -8.057225    15A     -8.057123
      16A     -1.390250    17A     -1.266448    18A     -1.201033
      19A     -1.130047    20A     -1.042424    21A     -1.017699
      22A     -0.973628    23A     -0.868733    24A     -0.825527
      25A     -0.778320    26A     -0.736431    27A     -0.686364
      28A     -0.680724    29A     -0.637009    30A     -0.632327
      31A     -0.607550    32A     -0.605971    33A     -0.595434
      34A     -0.573387    35A     -0.567938    36A     -0.540413
      37A     -0.538164    38A     -0.510774    39A     -0.482330
      40A     -0.465364    41A     -0.451978    42A     -0.429730
      43A     -0.355644    44A     -0.298355

  @DF-RHF Final Energy:  -896.56778592584396

   => Energetics <=

    Nuclear Repulsion Energy =            655.1918594731162102
    One-Electron Energy =               -2529.7530118187683001
    Two-Electron Energy =                 977.9933664198081260
    Total Energy =                       -896.5677859258439639
  Basis Set: (AUG-CC-PVTZ AUX)
    Blend: AUG-CC-PVTZ-RI
    Molecular point group: c1

    Geometry (in Angstrom), charge = 0, multiplicity = 1:

       Center              X                  Y                   Z               Mass
    ------------   -----------------  -----------------  -----------------  -----------------
         CL           0.980870295814     2.276541699126    -0.006405986376    34.968852682000
         O           -2.597633704186    -1.577986300874    -0.025246986376    15.994914619570
         N           -1.211462704186     0.269994699126    -0.015168986376    14.003074004430
         C            0.066606295814    -0.307900300874    -0.004934986376    12.000000000000
         C            1.351003395814     0.660517099126     0.000240513624    12.000000000000
         C            0.285392295814    -1.695723300874    -0.000333986376    12.000000000000
         C            2.486949295814     0.032082699126     0.010384013624    12.000000000000
         C            1.584632295814    -2.200542300874     0.010119013624    12.000000000000
         C            2.687861295814    -1.347334300874     0.015341013624    12.000000000000
         C           -2.440815704186    -0.357950300874    -0.016201986376    12.000000000000
         C           -3.605501704186     0.610573699126     0.037500013624    12.000000000000
         H           -0.571285704186    -2.356022300874    -0.005229986376     1.007825032230
         H           -1.223561704186     1.283343699126    -0.011974986376     1.007825032230
         H            3.325919295814     0.722079699126     0.014086013624     1.007825032230
         H            1.728391295814    -3.277954300874     0.013580013624     1.007825032230
         H            3.698681295814    -1.745661300874     0.023280013624     1.007825032230
         H           -3.761803704186     0.944822699126     1.067828013624     1.007825032230
         H           -4.499889704186     0.086853699126    -0.299086986376     1.007825032230
         H           -3.439642704186     1.491123699126    -0.589267986376     1.007825032230

  Basis Set: AUG-CC-PVTZ
    Blend: AUG-CC-PVTZ
  Basis Set: (AUG-CC-PVTZ AUX)
    Blend: AUG-CC-PVTZ-JKFIT
	 Reference Energy          =    -896.5677859258439639 [Eh]
	 Singles Energy            =      -0.0000000000000000 [Eh]
	 Same-Spin Energy          =      -0.5346217608404707 [Eh]
	 Opposite-Spin Energy      =      -1.6233098328872504 [Eh]
	 Correlation Energy        =      -2.1579315937277213 [Eh]
	 Total Energy              =    -898.7257175195717309 [Eh]

	 ================> DF-SCS-MP2 Energies <==================
	-----------------------------------------------------------
	 SCS Same-Spin Scale       =       0.3333333333333333 [-]
	 SCS Opposite-Spin Scale   =       1.2000000000000000 [-]
	 SCS Same-Spin Energy      =      -0.1782072536134902 [Eh]
	 SCS Opposite-Spin Energy  =      -1.9479717994647003 [Eh]
	 SCS Correlation Energy    =      -2.1261790530781908 [Eh]
	 SCS Total Energy          =    -898.6939649789221676 [Eh]
	-----------------------------------------------------------

  Dipole Moment: [D]
     X:     0.4507      Y:     2.3788      Z:     0.0860     Total:     2.4226

*** Psi4 exiting successfully. Buy a developer a beer!
