                               Psi4 1.4a3.dev225

  ==> Input File <==

--------------------------------------------------------------------------
#psi4
#
memory 32 gb

molecule  {
0 1
 Cl        1.0239510     2.3134080    -0.0075990
  O       -2.5545530    -1.5411200    -0.0264400
  N       -1.1683820     0.3068610    -0.0163620
  C        0.1096870    -0.2710340    -0.0061280
  C        1.2584530     0.3784309    -0.0009096
  C        0.3284730    -1.6588570    -0.0015270
  C        2.5300300     0.0689490     0.0091910
  C        1.6277130    -2.1636760     0.0089260
  C        2.7309420    -1.3104680     0.0141480
  C       -2.3977350    -0.3210840    -0.0173950
  C       -3.5624210     0.6474400     0.0363070
  H       -0.5282050    -2.3191560    -0.0064230
  H       -1.1804810     1.3202100    -0.0131680
  H        3.3690000     0.7589460     0.0128930
  H        1.7714720    -3.2410880     0.0123870
  H        3.7417620    -1.7087950     0.0220870
  H       -3.7187230     0.9816890     1.0666350
  H       -4.4568090     0.1237200    -0.3002800
  H       -3.3965620     1.5279900    -0.5904610
units angstrom
no_reorient  #important for SAPT in psi4, default
symmetry c1  #important for SAPT in psi4, default
}

set PROPERTIES_ORIGIN ["COM"]
properties('MP2/aug-cc-pvtz', properties = ['dipole'])
--------------------------------------------------------------------------

    Molecular point group: c1
  Charge       = 0
  Multiplicity = 1
  Basis Set: AUG-CC-PVTZ
    Blend: AUG-CC-PVTZ
  Basis Set: (AUG-CC-PVTZ AUX)
    Blend: AUG-CC-PVTZ-JKFIT

    Orbital Energies [Eh]
    ---------------------

    Doubly Occupied:

       1A   -104.826608     2A    -20.539072     3A    -15.618988
       4A    -11.376048     5A    -11.314781     6A    -11.308180
       7A    -11.257666     8A    -11.253748     9A    -11.251999
      10A    -11.250381    11A    -11.249325    12A    -10.549647
      13A     -8.016161    14A     -8.014869    15A     -8.014771
      16A     -1.394392    17A     -1.277666    18A     -1.195405
      19A     -1.094297    20A     -1.061759    21A     -1.016357
      22A     -1.000767    23A     -0.883578    24A     -0.836530
      25A     -0.805693    26A     -0.743493    27A     -0.702021
      28A     -0.682887    29A     -0.648930    30A     -0.638192
      31A     -0.629751    32A     -0.600821    33A     -0.584571
      34A     -0.577148    35A     -0.571789    36A     -0.546438
      37A     -0.531296    38A     -0.477777    39A     -0.459924
      40A     -0.458754    41A     -0.453005    42A     -0.438002
      43A     -0.362137    44A     -0.333624

  @DF-RHF Final Energy:  -896.57784669840055

   => Energetics <=

    Nuclear Repulsion Energy =            656.7468842747601911
    One-Electron Energy =               -2532.9509600531087017
    Two-Electron Energy =                 979.6262290799478478
    Total Energy =                       -896.5778466984005490
  Basis Set: (AUG-CC-PVTZ AUX)
    Blend: AUG-CC-PVTZ-RI
    Molecular point group: c1

    Geometry (in Angstrom), charge = 0, multiplicity = 1:

       Center              X                  Y                   Z               Mass
    ------------   -----------------  -----------------  -----------------  -----------------
         CL           0.990499229004     2.299185269173    -0.006409031999    34.968852682000
         O           -2.588004770996    -1.555342730827    -0.025250031999    15.994914619570
         N           -1.201833770996     0.292638269173    -0.015172031999    14.003074004430
         C            0.076235229004    -0.285256730827    -0.004938031999    12.000000000000
         C            1.225001229004     0.364208169173     0.000280368001    12.000000000000
         C            0.295021229004    -1.673079730827    -0.000337031999    12.000000000000
         C            2.496578229004     0.054726269173     0.010380968001    12.000000000000
         C            1.594261229004    -2.177898730827     0.010115968001    12.000000000000
         C            2.697490229004    -1.324690730827     0.015337968001    12.000000000000
         C           -2.431186770996    -0.335306730827    -0.016205031999    12.000000000000
         C           -3.595872770996     0.633217269173     0.037496968001    12.000000000000
         H           -0.561656770996    -2.333378730827    -0.005233031999     1.007825032230
         H           -1.213932770996     1.305987269173    -0.011978031999     1.007825032230
         H            3.335548229004     0.744723269173     0.014082968001     1.007825032230
         H            1.738020229004    -3.255310730827     0.013576968001     1.007825032230
         H            3.708310229004    -1.723017730827     0.023276968001     1.007825032230
         H           -3.752174770996     0.967466269173     1.067824968001     1.007825032230
         H           -4.490260770996     0.109497269173    -0.299090031999     1.007825032230
         H           -3.430013770996     1.513767269173    -0.589271031999     1.007825032230

  Basis Set: AUG-CC-PVTZ
    Blend: AUG-CC-PVTZ
  Basis Set: (AUG-CC-PVTZ AUX)
    Blend: AUG-CC-PVTZ-JKFIT
	 Reference Energy          =    -896.5778466984005490 [Eh]
	 Singles Energy            =      -0.0000000000000000 [Eh]
	 Same-Spin Energy          =      -0.5336220677019785 [Eh]
	 Opposite-Spin Energy      =      -1.6197993174477863 [Eh]
	 Correlation Energy        =      -2.1534213851497648 [Eh]
	 Total Energy              =    -898.7312680835502761 [Eh]

	 ================> DF-SCS-MP2 Energies <==================
	-----------------------------------------------------------
	 SCS Same-Spin Scale       =       0.3333333333333333 [-]
	 SCS Opposite-Spin Scale   =       1.2000000000000000 [-]
	 SCS Same-Spin Energy      =      -0.1778740225673262 [Eh]
	 SCS Opposite-Spin Energy  =      -1.9437591809373433 [Eh]
	 SCS Correlation Energy    =      -2.1216332035046697 [Eh]
	 SCS Total Energy          =    -898.6994799019051925 [Eh]
	-----------------------------------------------------------

  Dipole Moment: [D]
     X:     0.6544      Y:     0.8236      Z:     0.0941     Total:     1.0561

*** Psi4 exiting successfully. Buy a developer a beer!
