                               Psi4 1.4a3.dev225

  ==> Input File <==

--------------------------------------------------------------------------
#psi4
#
memory 32 gb

molecule  {
0 1
 Cl        1.0239510     2.3134080    -0.0075990
  O       -2.5545530    -1.5411200    -0.0264400
  N       -1.1683820     0.3068610    -0.0163620
  C        0.1096870    -0.2710340    -0.0061280
  C        1.2343910     0.5769770    -0.0015960
  C        0.3284730    -1.6588570    -0.0015270
  C        2.5300300     0.0689490     0.0091910
  C        1.6277130    -2.1636760     0.0089260
  C        2.7309420    -1.3104680     0.0141480
  C       -2.3977350    -0.3210840    -0.0173950
  C       -3.5624210     0.6474400     0.0363070
  H       -0.5282050    -2.3191560    -0.0064230
  H       -1.1804810     1.3202100    -0.0131680
  H        3.3690000     0.7589460     0.0128930
  H        1.7714720    -3.2410880     0.0123870
  H        3.7417620    -1.7087950     0.0220870
  H       -3.7187230     0.9816890     1.0666350
  H       -4.4157717     0.1477499    -0.2848364
  H       -3.3965620     1.5279900    -0.5904610
units angstrom
no_reorient  #important for SAPT in psi4, default
symmetry c1  #important for SAPT in psi4, default
}

set PROPERTIES_ORIGIN ["COM"]
properties('MP2/aug-cc-pvtz', properties = ['dipole'])
--------------------------------------------------------------------------

    Molecular point group: c1
  Charge       = 0
  Multiplicity = 1
  Basis Set: AUG-CC-PVTZ
    Blend: AUG-CC-PVTZ
  Basis Set: (AUG-CC-PVTZ AUX)
    Blend: AUG-CC-PVTZ-JKFIT

    Orbital Energies [Eh]
    ---------------------

    Doubly Occupied:

       1A   -104.856393     2A    -20.535633     3A    -15.613291
       4A    -11.371449     5A    -11.308897     6A    -11.307765
       7A    -11.256939     8A    -11.248204     9A    -11.243984
      10A    -11.242721    11A    -11.239843    12A    -10.580207
      13A     -8.047068    14A     -8.045321    15A     -8.045221
      16A     -1.390657    17A     -1.271160    18A     -1.181770
      19A     -1.125084    20A     -1.046233    21A     -1.009730
      22A     -0.989654    23A     -0.872207    24A     -0.830838
      25A     -0.790199    26A     -0.736408    27A     -0.688386
      28A     -0.676584    29A     -0.636195    30A     -0.634150
      31A     -0.622629    32A     -0.597088    33A     -0.590908
      34A     -0.579968    35A     -0.574457    36A     -0.538594
      37A     -0.529081    38A     -0.513846    39A     -0.479683
      40A     -0.470850    41A     -0.451501    42A     -0.434377
      43A     -0.344542    44A     -0.318741

  @DF-RHF Final Energy:  -896.60596266668495

   => Energetics <=

    Nuclear Repulsion Energy =            656.5036455741956161
    One-Electron Energy =               -2532.4823037927235418
    Two-Electron Energy =                 979.3726955518429804
    Total Energy =                       -896.6059626666849454
  Basis Set: (AUG-CC-PVTZ AUX)
    Blend: AUG-CC-PVTZ-RI
    Molecular point group: c1

    Geometry (in Angstrom), charge = 0, multiplicity = 1:

       Center              X                  Y                   Z               Mass
    ------------   -----------------  -----------------  -----------------  -----------------
         CL           0.991962794046     2.284946500397    -0.006452383303    34.968852682000
         O           -2.586541205954    -1.569581499603    -0.025293383303    15.994914619570
         N           -1.200370205954     0.278399500397    -0.015215383303    14.003074004430
         C            0.077698794046    -0.299495499603    -0.004981383303    12.000000000000
         C            1.202402794046     0.548515500397    -0.000449383303    12.000000000000
         C            0.296484794046    -1.687318499603    -0.000380383303    12.000000000000
         C            2.498041794046     0.040487500397     0.010337616697    12.000000000000
         C            1.595724794046    -2.192137499603     0.010072616697    12.000000000000
         C            2.698953794046    -1.338929499603     0.015294616697    12.000000000000
         C           -2.429723205954    -0.349545499603    -0.016248383303    12.000000000000
         C           -3.594409205954     0.618978500397     0.037453616697    12.000000000000
         H           -0.560193205954    -2.347617499603    -0.005276383303     1.007825032230
         H           -1.212469205954     1.291748500397    -0.012021383303     1.007825032230
         H            3.337011794046     0.730484500397     0.014039616697     1.007825032230
         H            1.739483794046    -3.269549499603     0.013533616697     1.007825032230
         H            3.709773794046    -1.737256499603     0.023233616697     1.007825032230
         H           -3.750711205954     0.953227500397     1.067781616697     1.007825032230
         H           -4.447759905954     0.119288400397    -0.283689783303     1.007825032230
         H           -3.428550205954     1.499528500397    -0.589314383303     1.007825032230

  Basis Set: AUG-CC-PVTZ
    Blend: AUG-CC-PVTZ
  Basis Set: (AUG-CC-PVTZ AUX)
    Blend: AUG-CC-PVTZ-JKFIT
	 Reference Energy          =    -896.6059626666849454 [Eh]
	 Singles Energy            =      -0.0000000000000000 [Eh]
	 Same-Spin Energy          =      -0.5339501758297763 [Eh]
	 Opposite-Spin Energy      =      -1.6201695745440403 [Eh]
	 Correlation Energy        =      -2.1541197503738165 [Eh]
	 Total Energy              =    -898.7600824170588112 [Eh]

	 ================> DF-SCS-MP2 Energies <==================
	-----------------------------------------------------------
	 SCS Same-Spin Scale       =       0.3333333333333333 [-]
	 SCS Opposite-Spin Scale   =       1.2000000000000000 [-]
	 SCS Same-Spin Energy      =      -0.1779833919432588 [Eh]
	 SCS Opposite-Spin Energy  =      -1.9442034894528484 [Eh]
	 SCS Correlation Energy    =      -2.1221868813961073 [Eh]
	 SCS Total Energy          =    -898.7281495480810918 [Eh]
	-----------------------------------------------------------

  Dipole Moment: [D]
     X:     0.5803      Y:     1.8689      Z:     0.0878     Total:     1.9589

*** Psi4 exiting successfully. Buy a developer a beer!
