                               Psi4 1.4a3.dev225

  ==> Input File <==

--------------------------------------------------------------------------
#psi4
#
memory 32 gb

molecule  {
0 1
 Cl        1.0239510     2.3134080    -0.0075990
  O       -2.5545530    -1.5411200    -0.0264400
  N       -1.1683820     0.3068610    -0.0163620
  C        0.1096870    -0.2710340    -0.0061280
  C        1.2343910     0.5769770    -0.0015960
  C        0.3284730    -1.6588570    -0.0015270
  C        2.5300300     0.0689490     0.0091910
  C        1.6363255    -2.1409236     0.0089428
  C        2.7309420    -1.3104680     0.0141480
  C       -2.3977350    -0.3210840    -0.0173950
  C       -3.5624210     0.6474400     0.0363070
  H       -0.5282050    -2.3191560    -0.0064230
  H       -1.1804810     1.3202100    -0.0131680
  H        3.3690000     0.7589460     0.0128930
  H        1.7714720    -3.2410880     0.0123870
  H        3.7417620    -1.7087950     0.0220870
  H       -3.7187230     0.9816890     1.0666350
  H       -4.4568090     0.1237200    -0.3002800
  H       -3.3965620     1.5279900    -0.5904610
units angstrom
no_reorient  #important for SAPT in psi4, default
symmetry c1  #important for SAPT in psi4, default
}

set PROPERTIES_ORIGIN ["COM"]
properties('MP2/aug-cc-pvtz', properties = ['dipole'])
--------------------------------------------------------------------------

    Molecular point group: c1
  Charge       = 0
  Multiplicity = 1
  Basis Set: AUG-CC-PVTZ
    Blend: AUG-CC-PVTZ
  Basis Set: (AUG-CC-PVTZ AUX)
    Blend: AUG-CC-PVTZ-JKFIT

    Orbital Energies [Eh]
    ---------------------

    Doubly Occupied:

       1A   -104.856404     2A    -20.535722     3A    -15.613469
       4A    -11.371782     5A    -11.308829     6A    -11.307699
       7A    -11.257209     8A    -11.248397     9A    -11.247543
      10A    -11.241748    11A    -11.239672    12A    -10.580217
      13A     -8.047079    14A     -8.045331    15A     -8.045230
      16A     -1.390718    17A     -1.271398    18A     -1.182642
      19A     -1.126903    20A     -1.045748    21A     -1.008255
      22A     -0.988548    23A     -0.872763    24A     -0.829404
      25A     -0.790152    26A     -0.734227    27A     -0.688998
      28A     -0.677633    29A     -0.637076    30A     -0.633773
      31A     -0.620786    32A     -0.597012    33A     -0.588355
      34A     -0.575075    35A     -0.570849    36A     -0.540577
      37A     -0.529130    38A     -0.510626    39A     -0.480517
      40A     -0.470864    41A     -0.452588    42A     -0.434938
      43A     -0.344145    44A     -0.320346

  @DF-RHF Final Energy:  -896.60634910113015

   => Energetics <=

    Nuclear Repulsion Energy =            656.6614088762154324
    One-Electron Energy =               -2532.8147602045000895
    Two-Electron Energy =                 979.5470022271546213
    Total Energy =                       -896.6063491011301494
  Basis Set: (AUG-CC-PVTZ AUX)
    Blend: AUG-CC-PVTZ-RI
    Molecular point group: c1

    Geometry (in Angstrom), charge = 0, multiplicity = 1:

       Center              X                  Y                   Z               Mass
    ------------   -----------------  -----------------  -----------------  -----------------
         CL           0.991596043845     2.283474503194    -0.006361494719    34.968852682000
         O           -2.586907956155    -1.571053496806    -0.025202494719    15.994914619570
         N           -1.200736956155     0.276927503194    -0.015124494719    14.003074004430
         C            0.077332043845    -0.300967496806    -0.004890494719    12.000000000000
         C            1.202036043845     0.547043503194    -0.000358494719    12.000000000000
         C            0.296118043845    -1.688790496806    -0.000289494719    12.000000000000
         C            2.497675043845     0.039015503194     0.010428505281    12.000000000000
         C            1.603970543845    -2.170857096806     0.010180305281    12.000000000000
         C            2.698587043845    -1.340401496806     0.015385505281    12.000000000000
         C           -2.430089956155    -0.351017496806    -0.016157494719    12.000000000000
         C           -3.594775956155     0.617506503194     0.037544505281    12.000000000000
         H           -0.560559956155    -2.349089496806    -0.005185494719     1.007825032230
         H           -1.212835956155     1.290276503194    -0.011930494719     1.007825032230
         H            3.336645043845     0.729012503194     0.014130505281     1.007825032230
         H            1.739117043845    -3.271021496806     0.013624505281     1.007825032230
         H            3.709407043845    -1.738728496806     0.023324505281     1.007825032230
         H           -3.751077956155     0.951755503194     1.067872505281     1.007825032230
         H           -4.489163956155     0.093786503194    -0.299042494719     1.007825032230
         H           -3.428916956155     1.498056503194    -0.589223494719     1.007825032230

  Basis Set: AUG-CC-PVTZ
    Blend: AUG-CC-PVTZ
  Basis Set: (AUG-CC-PVTZ AUX)
    Blend: AUG-CC-PVTZ-JKFIT
	 Reference Energy          =    -896.6063491011301494 [Eh]
	 Singles Energy            =      -0.0000000000000000 [Eh]
	 Same-Spin Energy          =      -0.5339734124637090 [Eh]
	 Opposite-Spin Energy      =      -1.6203628284191889 [Eh]
	 Correlation Energy        =      -2.1543362408828979 [Eh]
	 Total Energy              =    -898.7606853420130619 [Eh]

	 ================> DF-SCS-MP2 Energies <==================
	-----------------------------------------------------------
	 SCS Same-Spin Scale       =       0.3333333333333333 [-]
	 SCS Opposite-Spin Scale   =       1.2000000000000000 [-]
	 SCS Same-Spin Energy      =      -0.1779911374879030 [Eh]
	 SCS Opposite-Spin Energy  =      -1.9444353941030266 [Eh]
	 SCS Correlation Energy    =      -2.1224265315909294 [Eh]
	 SCS Total Energy          =    -898.7287756327210673 [Eh]
	-----------------------------------------------------------

  Dipole Moment: [D]
     X:     0.5881      Y:     1.8788      Z:     0.0889     Total:     1.9707

*** Psi4 exiting successfully. Buy a developer a beer!
