                               Psi4 1.4a3.dev225

  ==> Input File <==

--------------------------------------------------------------------------
#psi4
#
memory 32 gb

molecule  {
0 1
 Cl        1.0239510     2.3134080    -0.0075990
  O       -2.5545530    -1.5411200    -0.0264400
  N       -1.1683820     0.3068610    -0.0163620
  C        0.1096870    -0.2710340    -0.0061280
  C        1.2404065     0.5273405    -0.0014244
  C        0.3284730    -1.6588570    -0.0015270
  C        2.5300300     0.0689490     0.0091910
  C        1.6277130    -2.1636760     0.0089260
  C        2.7309420    -1.3104680     0.0141480
  C       -2.3977350    -0.3210840    -0.0173950
  C       -3.5624210     0.6474400     0.0363070
  H       -0.5282050    -2.3191560    -0.0064230
  H       -1.1804810     1.3202100    -0.0131680
  H        3.3690000     0.7589460     0.0128930
  H        1.7714720    -3.2410880     0.0123870
  H        3.7417620    -1.7087950     0.0220870
  H       -3.7187230     0.9816890     1.0666350
  H       -4.4568090     0.1237200    -0.3002800
  H       -3.3965620     1.5279900    -0.5904610
units angstrom
no_reorient  #important for SAPT in psi4, default
symmetry c1  #important for SAPT in psi4, default
}

set PROPERTIES_ORIGIN ["COM"]
properties('MP2/aug-cc-pvtz', properties = ['dipole'])
--------------------------------------------------------------------------

    Molecular point group: c1
  Charge       = 0
  Multiplicity = 1
  Basis Set: AUG-CC-PVTZ
    Blend: AUG-CC-PVTZ
  Basis Set: (AUG-CC-PVTZ AUX)
    Blend: AUG-CC-PVTZ-JKFIT

    Orbital Energies [Eh]
    ---------------------

    Doubly Occupied:

       1A   -104.850584     2A    -20.536271     3A    -15.614697
       4A    -11.372661     5A    -11.309091     6A    -11.307398
       7A    -11.256423     8A    -11.248970     9A    -11.248799
      10A    -11.245794    11A    -11.241705    12A    -10.573938
      13A     -8.040689    14A     -8.039084    15A     -8.038984
      16A     -1.391395    17A     -1.272431    18A     -1.181189
      19A     -1.119040    20A     -1.047905    21A     -1.011396
      22A     -0.991196    23A     -0.874322    24A     -0.831840
      25A     -0.793514    26A     -0.737615    27A     -0.690500
      28A     -0.676876    29A     -0.638766    30A     -0.634613
      31A     -0.623744    32A     -0.598110    33A     -0.586329
      34A     -0.576129    35A     -0.571107    36A     -0.539383
      37A     -0.528023    38A     -0.508263    39A     -0.476449
      40A     -0.468186    41A     -0.453126    42A     -0.435561
      43A     -0.348972    44A     -0.322530

  @DF-RHF Final Energy:  -896.60599546286062

   => Energetics <=

    Nuclear Repulsion Energy =            656.3287538191580097
    One-Electron Energy =               -2532.1623039339169736
    Two-Electron Energy =                 979.2275546518983447
    Total Energy =                       -896.6059954628606192
  Basis Set: (AUG-CC-PVTZ AUX)
    Blend: AUG-CC-PVTZ-RI
    Molecular point group: c1

    Geometry (in Angstrom), charge = 0, multiplicity = 1:

       Center              X                  Y                   Z               Mass
    ------------   -----------------  -----------------  -----------------  -----------------
         CL           0.991780414092     2.288613648138    -0.006372484520    34.968852682000
         O           -2.586723585908    -1.565914351862    -0.025213484520    15.994914619570
         N           -1.200552585908     0.282066648138    -0.015135484520    14.003074004430
         C            0.077516414092    -0.295828351862    -0.004901484520    12.000000000000
         C            1.208235914092     0.502546148138    -0.000197884520    12.000000000000
         C            0.296302414092    -1.683651351862    -0.000300484520    12.000000000000
         C            2.497859414092     0.044154648138     0.010417515480    12.000000000000
         C            1.595542414092    -2.188470351862     0.010152515480    12.000000000000
         C            2.698771414092    -1.335262351862     0.015374515480    12.000000000000
         C           -2.429905585908    -0.345878351862    -0.016168484520    12.000000000000
         C           -3.594591585908     0.622645648138     0.037533515480    12.000000000000
         H           -0.560375585908    -2.343950351862    -0.005196484520     1.007825032230
         H           -1.212651585908     1.295415648138    -0.011941484520     1.007825032230
         H            3.336829414092     0.734151648138     0.014119515480     1.007825032230
         H            1.739301414092    -3.265882351862     0.013613515480     1.007825032230
         H            3.709591414092    -1.733589351862     0.023313515480     1.007825032230
         H           -3.750893585908     0.956894648138     1.067861515480     1.007825032230
         H           -4.488979585908     0.098925648138    -0.299053484520     1.007825032230
         H           -3.428732585908     1.503195648138    -0.589234484520     1.007825032230

  Basis Set: AUG-CC-PVTZ
    Blend: AUG-CC-PVTZ
  Basis Set: (AUG-CC-PVTZ AUX)
    Blend: AUG-CC-PVTZ-JKFIT
	 Reference Energy          =    -896.6059954628606192 [Eh]
	 Singles Energy            =      -0.0000000000000000 [Eh]
	 Same-Spin Energy          =      -0.5335844879230166 [Eh]
	 Opposite-Spin Energy      =      -1.6199408678187446 [Eh]
	 Correlation Energy        =      -2.1535253557417611 [Eh]
	 Total Energy              =    -898.7595208186023683 [Eh]

	 ================> DF-SCS-MP2 Energies <==================
	-----------------------------------------------------------
	 SCS Same-Spin Scale       =       0.3333333333333333 [-]
	 SCS Opposite-Spin Scale   =       1.2000000000000000 [-]
	 SCS Same-Spin Energy      =      -0.1778614959743389 [Eh]
	 SCS Opposite-Spin Energy  =      -1.9439290413824935 [Eh]
	 SCS Correlation Energy    =      -2.1217905373568322 [Eh]
	 SCS Total Energy          =    -898.7277860002174066 [Eh]
	-----------------------------------------------------------

  Dipole Moment: [D]
     X:     0.6071      Y:     1.6353      Z:     0.0901     Total:     1.7467

*** Psi4 exiting successfully. Buy a developer a beer!
