                               Psi4 1.4a3.dev225

  ==> Input File <==

--------------------------------------------------------------------------
#psi4
#
memory 32 gb

molecule  {
0 1
 Cl        1.0239510     2.3134080    -0.0075990
  O       -2.5545530    -1.5411200    -0.0264400
  N       -1.1683820     0.3068610    -0.0163620
  C        0.1096870    -0.2710340    -0.0061280
  C        1.2343910     0.5769770    -0.0015960
  C        0.3315875    -1.6786129    -0.0014615
  C        2.5300300     0.0689490     0.0091910
  C        1.6277130    -2.1636760     0.0089260
  C        2.7309420    -1.3104680     0.0141480
  C       -2.3977350    -0.3210840    -0.0173950
  C       -3.5624210     0.6474400     0.0363070
  H       -0.5282050    -2.3191560    -0.0064230
  H       -1.1804810     1.3202100    -0.0131680
  H        3.3690000     0.7589460     0.0128930
  H        1.7714720    -3.2410880     0.0123870
  H        3.7417620    -1.7087950     0.0220870
  H       -3.7187230     0.9816890     1.0666350
  H       -4.4568090     0.1237200    -0.3002800
  H       -3.3965620     1.5279900    -0.5904610
units angstrom
no_reorient  #important for SAPT in psi4, default
symmetry c1  #important for SAPT in psi4, default
}

set PROPERTIES_ORIGIN ["COM"]
properties('MP2/aug-cc-pvtz', properties = ['dipole'])
--------------------------------------------------------------------------

    Molecular point group: c1
  Charge       = 0
  Multiplicity = 1
  Basis Set: AUG-CC-PVTZ
    Blend: AUG-CC-PVTZ
  Basis Set: (AUG-CC-PVTZ AUX)
    Blend: AUG-CC-PVTZ-JKFIT

    Orbital Energies [Eh]
    ---------------------

    Doubly Occupied:

       1A   -104.856349     2A    -20.536030     3A    -15.614244
       4A    -11.372082     5A    -11.310750     6A    -11.307891
       7A    -11.257089     8A    -11.248621     9A    -11.247180
      10A    -11.243940    11A    -11.240677    12A    -10.580165
      13A     -8.047026    14A     -8.045279    15A     -8.045178
      16A     -1.390998    17A     -1.271212    18A     -1.181641
      19A     -1.124991    20A     -1.043861    21A     -1.010175
      22A     -0.986817    23A     -0.872150    24A     -0.829397
      25A     -0.790593    26A     -0.735479    27A     -0.688943
      28A     -0.677829    29A     -0.635475    30A     -0.633861
      31A     -0.621568    32A     -0.597288    33A     -0.591951
      34A     -0.574381    35A     -0.570684    36A     -0.540319
      37A     -0.529006    38A     -0.511762    39A     -0.479494
      40A     -0.471056    41A     -0.452052    42A     -0.435429
      43A     -0.345791    44A     -0.317142

  @DF-RHF Final Energy:  -896.60637351862829

   => Energetics <=

    Nuclear Repulsion Energy =            655.9419289986482227
    One-Electron Energy =               -2531.3689172338090430
    Two-Electron Energy =                 978.8206147165326456
    Total Energy =                       -896.6063735186282884
  Basis Set: (AUG-CC-PVTZ AUX)
    Blend: AUG-CC-PVTZ-RI
    Molecular point group: c1

    Geometry (in Angstrom), charge = 0, multiplicity = 1:

       Center              X                  Y                   Z               Mass
    ------------   -----------------  -----------------  -----------------  -----------------
         CL           0.991986366379     2.286492318287    -0.006364952105    34.968852682000
         O           -2.586517633621    -1.568035681713    -0.025205952105    15.994914619570
         N           -1.200346633621     0.279945318287    -0.015127952105    14.003074004430
         C            0.077722366379    -0.297949681713    -0.004893952105    12.000000000000
         C            1.202426366379     0.550061318287    -0.000361952105    12.000000000000
         C            0.299622866379    -1.705528581713    -0.000227452105    12.000000000000
         C            2.498065366379     0.042033318287     0.010425047895    12.000000000000
         C            1.595748366379    -2.190591681713     0.010160047895    12.000000000000
         C            2.698977366379    -1.337383681713     0.015382047895    12.000000000000
         C           -2.429699633621    -0.347999681713    -0.016160952105    12.000000000000
         C           -3.594385633621     0.620524318287     0.037541047895    12.000000000000
         H           -0.560169633621    -2.346071681713    -0.005188952105     1.007825032230
         H           -1.212445633621     1.293294318287    -0.011933952105     1.007825032230
         H            3.337035366379     0.732030318287     0.014127047895     1.007825032230
         H            1.739507366379    -3.268003681713     0.013621047895     1.007825032230
         H            3.709797366379    -1.735710681713     0.023321047895     1.007825032230
         H           -3.750687633621     0.954773318287     1.067869047895     1.007825032230
         H           -4.488773633621     0.096804318287    -0.299045952105     1.007825032230
         H           -3.428526633621     1.501074318287    -0.589226952105     1.007825032230

  Basis Set: AUG-CC-PVTZ
    Blend: AUG-CC-PVTZ
  Basis Set: (AUG-CC-PVTZ AUX)
    Blend: AUG-CC-PVTZ-JKFIT
	 Reference Energy          =    -896.6063735186282884 [Eh]
	 Singles Energy            =      -0.0000000000000000 [Eh]
	 Same-Spin Energy          =      -0.5339295543260821 [Eh]
	 Opposite-Spin Energy      =      -1.6204783709231603 [Eh]
	 Correlation Energy        =      -2.1544079252492425 [Eh]
	 Total Energy              =    -898.7607814438774767 [Eh]

	 ================> DF-SCS-MP2 Energies <==================
	-----------------------------------------------------------
	 SCS Same-Spin Scale       =       0.3333333333333333 [-]
	 SCS Opposite-Spin Scale   =       1.2000000000000000 [-]
	 SCS Same-Spin Energy      =      -0.1779765181086940 [Eh]
	 SCS Opposite-Spin Energy  =      -1.9445740451077922 [Eh]
	 SCS Correlation Energy    =      -2.1225505632164863 [Eh]
	 SCS Total Energy          =    -898.7289240818447524 [Eh]
	-----------------------------------------------------------

  Dipole Moment: [D]
     X:     0.5745      Y:     1.8697      Z:     0.0889     Total:     1.9580

*** Psi4 exiting successfully. Buy a developer a beer!
