                               Psi4 1.4a3.dev225

  ==> Input File <==

--------------------------------------------------------------------------
#psi4
#
memory 32 gb

molecule  {
0 1
 Cl        1.0239510     2.3134080    -0.0075990
  O       -2.5545530    -1.5411200    -0.0264400
  N       -1.1683820     0.3068610    -0.0163620
  C        0.1096870    -0.2710340    -0.0061280
  C        1.2343910     0.5769770    -0.0015960
  C        0.3284730    -1.6588570    -0.0015270
  C        2.5300300     0.0689490     0.0091910
  C        1.5445759    -2.0436826     0.0080399
  C        2.7309420    -1.3104680     0.0141480
  C       -2.3977350    -0.3210840    -0.0173950
  C       -3.5624210     0.6474400     0.0363070
  H       -0.5282050    -2.3191560    -0.0064230
  H       -1.1804810     1.3202100    -0.0131680
  H        3.3690000     0.7589460     0.0128930
  H        1.7714720    -3.2410880     0.0123870
  H        3.7417620    -1.7087950     0.0220870
  H       -3.7187230     0.9816890     1.0666350
  H       -4.4568090     0.1237200    -0.3002800
  H       -3.3965620     1.5279900    -0.5904610
units angstrom
no_reorient  #important for SAPT in psi4, default
symmetry c1  #important for SAPT in psi4, default
}

set PROPERTIES_ORIGIN ["COM"]
properties('MP2/aug-cc-pvtz', properties = ['dipole'])
--------------------------------------------------------------------------

    Molecular point group: c1
  Charge       = 0
  Multiplicity = 1
  Basis Set: AUG-CC-PVTZ
    Blend: AUG-CC-PVTZ
  Basis Set: (AUG-CC-PVTZ AUX)
    Blend: AUG-CC-PVTZ-JKFIT

    Orbital Energies [Eh]
    ---------------------

    Doubly Occupied:

       1A   -104.855308     2A    -20.537322     3A    -15.615226
       4A    -11.373522     5A    -11.310815     6A    -11.304353
       7A    -11.256896     8A    -11.249509     9A    -11.245110
      10A    -11.243354    11A    -11.226839    12A    -10.579103
      13A     -8.045970    14A     -8.044231    15A     -8.044117
      16A     -1.392452    17A     -1.273701    18A     -1.187052
      19A     -1.136170    20A     -1.048125    21A     -1.020381
      22A     -0.984371    23A     -0.875138    24A     -0.827731
      25A     -0.794337    26A     -0.727366    27A     -0.691750
      28A     -0.682733    29A     -0.641764    30A     -0.635361
      31A     -0.617748    32A     -0.598242    33A     -0.582750
      34A     -0.578207    35A     -0.572077    36A     -0.554878
      37A     -0.530371    38A     -0.486017    39A     -0.478062
      40A     -0.470153    41A     -0.454734    42A     -0.435817
      43A     -0.358926    44A     -0.315686

  @DF-RHF Final Energy:  -896.57929197669330

   => Energetics <=

    Nuclear Repulsion Energy =            659.3229794597144746
    One-Electron Energy =               -2538.0369917804705437
    Two-Electron Energy =                 982.1347203440626572
    Total Energy =                       -896.5792919766932982
  Basis Set: (AUG-CC-PVTZ AUX)
    Blend: AUG-CC-PVTZ-RI
    Molecular point group: c1

    Geometry (in Angstrom), charge = 0, multiplicity = 1:

       Center              X                  Y                   Z               Mass
    ------------   -----------------  -----------------  -----------------  -----------------
         CL           0.998109673599     2.276571019462    -0.006297394643    34.968852682000
         O           -2.580394326401    -1.577956980538    -0.025138394643    15.994914619570
         N           -1.194223326401     0.270024019462    -0.015060394643    14.003074004430
         C            0.083845673599    -0.307870980538    -0.004826394643    12.000000000000
         C            1.208549673599     0.540140019462    -0.000294394643    12.000000000000
         C            0.302631673599    -1.695693980538    -0.000225394643    12.000000000000
         C            2.504188673599     0.032112019462     0.010492605357    12.000000000000
         C            1.518734573599    -2.080519580538     0.009341505357    12.000000000000
         C            2.705100673599    -1.347304980538     0.015449605357    12.000000000000
         C           -2.423576326401    -0.357920980538    -0.016093394643    12.000000000000
         C           -3.588262326401     0.610603019462     0.037608605357    12.000000000000
         H           -0.554046326401    -2.355992980538    -0.005121394643     1.007825032230
         H           -1.206322326401     1.283373019462    -0.011866394643     1.007825032230
         H            3.343158673599     0.722109019462     0.014194605357     1.007825032230
         H            1.745630673599    -3.277924980538     0.013688605357     1.007825032230
         H            3.715920673599    -1.745631980538     0.023388605357     1.007825032230
         H           -3.744564326401     0.944852019462     1.067936605357     1.007825032230
         H           -4.482650326401     0.086883019462    -0.298978394643     1.007825032230
         H           -3.422403326401     1.491153019462    -0.589159394643     1.007825032230

  Basis Set: AUG-CC-PVTZ
    Blend: AUG-CC-PVTZ
  Basis Set: (AUG-CC-PVTZ AUX)
    Blend: AUG-CC-PVTZ-JKFIT
	 Reference Energy          =    -896.5792919766932982 [Eh]
	 Singles Energy            =      -0.0000000000000000 [Eh]
	 Same-Spin Energy          =      -0.5342398703107656 [Eh]
	 Opposite-Spin Energy      =      -1.6211371387534397 [Eh]
	 Correlation Energy        =      -2.1553770090642050 [Eh]
	 Total Energy              =    -898.7346689857574802 [Eh]

	 ================> DF-SCS-MP2 Energies <==================
	-----------------------------------------------------------
	 SCS Same-Spin Scale       =       0.3333333333333333 [-]
	 SCS Opposite-Spin Scale   =       1.2000000000000000 [-]
	 SCS Same-Spin Energy      =      -0.1780799567702552 [Eh]
	 SCS Opposite-Spin Energy  =      -1.9453645665041275 [Eh]
	 SCS Correlation Energy    =      -2.1234445232743826 [Eh]
	 SCS Total Energy          =    -898.7027364999677275 [Eh]
	-----------------------------------------------------------

  Dipole Moment: [D]
     X:     0.5589      Y:     1.9707      Z:     0.0890     Total:     2.0504

*** Psi4 exiting successfully. Buy a developer a beer!
