                               Psi4 1.4a3.dev225

  ==> Input File <==

--------------------------------------------------------------------------
#psi4
#
memory 32 gb

molecule  {
0 1
 Cl        1.0239510     2.3134080    -0.0075990
  O       -2.5545530    -1.5411200    -0.0264400
  N       -1.1683820     0.3068610    -0.0163620
  C        0.1096870    -0.2710340    -0.0061280
  C        1.2343910     0.5769770    -0.0015960
  C        0.3284730    -1.6588570    -0.0015270
  C        2.5300300     0.0689490     0.0091910
  C        1.6277130    -2.1636760     0.0089260
  C        2.7309420    -1.3104680     0.0141480
  C       -2.3977350    -0.3210840    -0.0173950
  C       -3.5624210     0.6474400     0.0363070
  H       -0.5282050    -2.3191560    -0.0064230
  H       -1.1804810     1.3202100    -0.0131680
  H        3.3690000     0.7589460     0.0128930
  H        1.7979234    -3.4393301     0.0130238
  H        3.7417620    -1.7087950     0.0220870
  H       -3.7187230     0.9816890     1.0666350
  H       -4.4568090     0.1237200    -0.3002800
  H       -3.3965620     1.5279900    -0.5904610
units angstrom
no_reorient  #important for SAPT in psi4, default
symmetry c1  #important for SAPT in psi4, default
}

set PROPERTIES_ORIGIN ["COM"]
properties('MP2/aug-cc-pvtz', properties = ['dipole'])
--------------------------------------------------------------------------

    Molecular point group: c1
  Charge       = 0
  Multiplicity = 1
  Basis Set: AUG-CC-PVTZ
    Blend: AUG-CC-PVTZ
  Basis Set: (AUG-CC-PVTZ AUX)
    Blend: AUG-CC-PVTZ-JKFIT

    Orbital Energies [Eh]
    ---------------------

    Doubly Occupied:

       1A   -104.857226     2A    -20.536067     3A    -15.614419
       4A    -11.372254     5A    -11.310350     6A    -11.309055
       7A    -11.269503     8A    -11.258601     9A    -11.248761
      10A    -11.246336    11A    -11.242100    12A    -10.581036
      13A     -8.047897    14A     -8.046147    15A     -8.046047
      16A     -1.391146    17A     -1.272206    18A     -1.182775
      19A     -1.125108    20A     -1.045823    21A     -1.007363
      22A     -0.985972    23A     -0.872248    24A     -0.825728
      25A     -0.790151    26A     -0.725799    27A     -0.687992
      28A     -0.676347    29A     -0.637381    30A     -0.634302
      31A     -0.617059    32A     -0.597353    33A     -0.576697
      34A     -0.575708    35A     -0.570933    36A     -0.539218
      37A     -0.529573    38A     -0.496679    39A     -0.480758
      40A     -0.471434    41A     -0.452530    42A     -0.434965
      43A     -0.345903    44A     -0.320018

  @DF-RHF Final Energy:  -896.58470450168420

   => Energetics <=

    Nuclear Repulsion Energy =            655.2954705021465998
    One-Electron Energy =               -2530.0504165740280769
    Two-Electron Energy =                 978.1702415701972768
    Total Energy =                       -896.5847045016842003
  Basis Set: (AUG-CC-PVTZ AUX)
    Blend: AUG-CC-PVTZ-RI
    Molecular point group: c1

    Geometry (in Angstrom), charge = 0, multiplicity = 1:

       Center              X                  Y                   Z               Mass
    ------------   -----------------  -----------------  -----------------  -----------------
         CL           0.992049761352     2.286271780085    -0.006364098898    34.968852682000
         O           -2.586454238648    -1.568256219915    -0.025205098898    15.994914619570
         N           -1.200283238648     0.279724780085    -0.015127098898    14.003074004430
         C            0.077785761352    -0.298170219915    -0.004893098898    12.000000000000
         C            1.202489761352     0.549840780085    -0.000361098898    12.000000000000
         C            0.296571761352    -1.685993219915    -0.000292098898    12.000000000000
         C            2.498128761352     0.041812780085     0.010425901102    12.000000000000
         C            1.595811761352    -2.190812219915     0.010160901102    12.000000000000
         C            2.699040761352    -1.337604219915     0.015382901102    12.000000000000
         C           -2.429636238648    -0.348220219915    -0.016160098898    12.000000000000
         C           -3.594322238648     0.620303780085     0.037541901102    12.000000000000
         H           -0.560106238648    -2.346292219915    -0.005188098898     1.007825032230
         H           -1.212382238648     1.293073780085    -0.011933098898     1.007825032230
         H            3.337098761352     0.731809780085     0.014127901102     1.007825032230
         H            1.766022161352    -3.466466319915     0.014258701102     1.007825032230
         H            3.709860761352    -1.735931219915     0.023321901102     1.007825032230
         H           -3.750624238648     0.954552780085     1.067869901102     1.007825032230
         H           -4.488710238648     0.096583780085    -0.299045098898     1.007825032230
         H           -3.428463238648     1.500853780085    -0.589226098898     1.007825032230

  Basis Set: AUG-CC-PVTZ
    Blend: AUG-CC-PVTZ
  Basis Set: (AUG-CC-PVTZ AUX)
    Blend: AUG-CC-PVTZ-JKFIT
	 Reference Energy          =    -896.5847045016842003 [Eh]
	 Singles Energy            =      -0.0000000000000000 [Eh]
	 Same-Spin Energy          =      -0.5344310718373493 [Eh]
	 Opposite-Spin Energy      =      -1.6226685910717618 [Eh]
	 Correlation Energy        =      -2.1570996629091113 [Eh]
	 Total Energy              =    -898.7418041645933044 [Eh]

	 ================> DF-SCS-MP2 Energies <==================
	-----------------------------------------------------------
	 SCS Same-Spin Scale       =       0.3333333333333333 [-]
	 SCS Opposite-Spin Scale   =       1.2000000000000000 [-]
	 SCS Same-Spin Energy      =      -0.1781436906124498 [Eh]
	 SCS Opposite-Spin Energy  =      -1.9472023092861139 [Eh]
	 SCS Correlation Energy    =      -2.1253459998985638 [Eh]
	 SCS Total Energy          =    -898.7100505015827139 [Eh]
	-----------------------------------------------------------

  Dipole Moment: [D]
     X:     0.5590      Y:     1.9610      Z:     0.0886     Total:     2.0411

*** Psi4 exiting successfully. Buy a developer a beer!
