                               Psi4 1.4a3.dev225

  ==> Input File <==

--------------------------------------------------------------------------
#psi4
#
memory 32 gb

molecule  {
0 1
 Cl        1.0239510     2.3134080    -0.0075990
  O       -2.5545530    -1.5411200    -0.0264400
  N       -1.1683820     0.3068610    -0.0163620
  C        0.1096870    -0.2710340    -0.0061280
  C        1.2343910     0.5769770    -0.0015960
  C        0.3284730    -1.6588570    -0.0015270
  C        2.5300300     0.0689490     0.0091910
  C        1.6277130    -2.1636760     0.0089260
  C        2.7309420    -1.3104680     0.0141480
  C       -2.3977350    -0.3210840    -0.0173950
  C       -3.5624210     0.6474400     0.0363070
  H       -0.5282050    -2.3191560    -0.0064230
  H       -1.1804810     1.3202100    -0.0131680
  H        3.3690000     0.7589460     0.0128930
  H        1.7714720    -3.2410880     0.0123870
  H        3.7417620    -1.7087950     0.0220870
  H       -3.7187230     0.9816890     1.0666350
  H       -4.5388836     0.0756602    -0.3311673
  H       -3.3965620     1.5279900    -0.5904610
units angstrom
no_reorient  #important for SAPT in psi4, default
symmetry c1  #important for SAPT in psi4, default
}

set PROPERTIES_ORIGIN ["COM"]
properties('MP2/aug-cc-pvtz', properties = ['dipole'])
--------------------------------------------------------------------------

    Molecular point group: c1
  Charge       = 0
  Multiplicity = 1
  Basis Set: AUG-CC-PVTZ
    Blend: AUG-CC-PVTZ
  Basis Set: (AUG-CC-PVTZ AUX)
    Blend: AUG-CC-PVTZ-JKFIT

    Orbital Energies [Eh]
    ---------------------

    Doubly Occupied:

       1A   -104.856717     2A    -20.535424     3A    -15.614205
       4A    -11.372339     5A    -11.309318     6A    -11.308182
       7A    -11.259082     8A    -11.257210     9A    -11.248455
      10A    -11.244279    11A    -11.240151    12A    -10.580531
      13A     -8.047392    14A     -8.045644    15A     -8.045544
      16A     -1.390563    17A     -1.271742    18A     -1.182158
      19A     -1.125381    20A     -1.043308    21A     -1.007965
      22A     -0.983943    23A     -0.870455    24A     -0.830364
      25A     -0.789512    26A     -0.735447    27A     -0.688744
      28A     -0.676049    29A     -0.636595    30A     -0.633623
      31A     -0.620779    32A     -0.597603    33A     -0.591196
      34A     -0.575343    35A     -0.552382    36A     -0.537161
      37A     -0.527417    38A     -0.514152    39A     -0.479845
      40A     -0.471131    41A     -0.451655    42A     -0.434788
      43A     -0.344811    44A     -0.319129

  @DF-RHF Final Energy:  -896.60012653972126

   => Energetics <=

    Nuclear Repulsion Energy =            655.8145525179314745
    One-Electron Energy =               -2531.1339331873218725
    Two-Electron Energy =                 978.7192541296690251
    Total Energy =                       -896.6001265397212592
  Basis Set: (AUG-CC-PVTZ AUX)
    Blend: AUG-CC-PVTZ-RI
    Molecular point group: c1

    Geometry (in Angstrom), charge = 0, multiplicity = 1:

       Center              X                  Y                   Z               Mass
    ------------   -----------------  -----------------  -----------------  -----------------
         CL           0.992696839272     2.285376329683    -0.006176138879    34.968852682000
         O           -2.585807160728    -1.569151670317    -0.025017138879    15.994914619570
         N           -1.199636160728     0.278829329683    -0.014939138879    14.003074004430
         C            0.078432839272    -0.299065670317    -0.004705138879    12.000000000000
         C            1.203136839272     0.548945329683    -0.000173138879    12.000000000000
         C            0.297218839272    -1.686888670317    -0.000104138879    12.000000000000
         C            2.498775839272     0.040917329683     0.010613861121    12.000000000000
         C            1.596458839272    -2.191707670317     0.010348861121    12.000000000000
         C            2.699687839272    -1.338499670317     0.015570861121    12.000000000000
         C           -2.428989160728    -0.349115670317    -0.015972138879    12.000000000000
         C           -3.593675160728     0.619408329683     0.037729861121    12.000000000000
         H           -0.559459160728    -2.347187670317    -0.005000138879     1.007825032230
         H           -1.211735160728     1.292178329683    -0.011745138879     1.007825032230
         H            3.337745839272     0.730914329683     0.014315861121     1.007825032230
         H            1.740217839272    -3.269119670317     0.013809861121     1.007825032230
         H            3.710507839272    -1.736826670317     0.023509861121     1.007825032230
         H           -3.749977160728     0.953657329683     1.068057861121     1.007825032230
         H           -4.570137760728     0.047628529683    -0.329744438879     1.007825032230
         H           -3.427816160728     1.499958329683    -0.589038138879     1.007825032230

  Basis Set: AUG-CC-PVTZ
    Blend: AUG-CC-PVTZ
  Basis Set: (AUG-CC-PVTZ AUX)
    Blend: AUG-CC-PVTZ-JKFIT
	 Reference Energy          =    -896.6001265397212592 [Eh]
	 Singles Energy            =      -0.0000000000000000 [Eh]
	 Same-Spin Energy          =      -0.5340014028411196 [Eh]
	 Opposite-Spin Energy      =      -1.6212416910724508 [Eh]
	 Correlation Energy        =      -2.1552430939135703 [Eh]
	 Total Energy              =    -898.7553696336348139 [Eh]

	 ================> DF-SCS-MP2 Energies <==================
	-----------------------------------------------------------
	 SCS Same-Spin Scale       =       0.3333333333333333 [-]
	 SCS Opposite-Spin Scale   =       1.2000000000000000 [-]
	 SCS Same-Spin Energy      =      -0.1780004676137065 [Eh]
	 SCS Opposite-Spin Energy  =      -1.9454900292869408 [Eh]
	 SCS Correlation Energy    =      -2.1234904969006472 [Eh]
	 SCS Total Energy          =    -898.7236170366219312 [Eh]
	-----------------------------------------------------------

  Dipole Moment: [D]
     X:     0.6235      Y:     1.8585      Z:     0.0932     Total:     1.9625

*** Psi4 exiting successfully. Buy a developer a beer!
