                               Psi4 1.4a3.dev225

  ==> Input File <==

--------------------------------------------------------------------------
#psi4
#
memory 32 gb

molecule  {
0 1
 Cl        1.0239510     2.3134080    -0.0075990
  O       -2.5545530    -1.5411200    -0.0264400
  N       -1.1683820     0.3068610    -0.0163620
  C        0.1096870    -0.2710340    -0.0061280
  C        1.2343910     0.5769770    -0.0015960
  C        0.3284730    -1.6588570    -0.0015270
  C        2.4342978     0.0515719     0.0085900
  C        1.6277130    -2.1636760     0.0089260
  C        2.7309420    -1.3104680     0.0141480
  C       -2.3977350    -0.3210840    -0.0173950
  C       -3.5624210     0.6474400     0.0363070
  H       -0.5282050    -2.3191560    -0.0064230
  H       -1.1804810     1.3202100    -0.0131680
  H        3.3690000     0.7589460     0.0128930
  H        1.7714720    -3.2410880     0.0123870
  H        3.7417620    -1.7087950     0.0220870
  H       -3.7187230     0.9816890     1.0666350
  H       -4.4568090     0.1237200    -0.3002800
  H       -3.3965620     1.5279900    -0.5904610
units angstrom
no_reorient  #important for SAPT in psi4, default
symmetry c1  #important for SAPT in psi4, default
}

set PROPERTIES_ORIGIN ["COM"]
properties('MP2/aug-cc-pvtz', properties = ['dipole'])
--------------------------------------------------------------------------

    Molecular point group: c1
  Charge       = 0
  Multiplicity = 1
  Basis Set: AUG-CC-PVTZ
    Blend: AUG-CC-PVTZ
  Basis Set: (AUG-CC-PVTZ AUX)
    Blend: AUG-CC-PVTZ-JKFIT

    Orbital Energies [Eh]
    ---------------------

    Doubly Occupied:

       1A   -104.857931     2A    -20.535786     3A    -15.613877
       4A    -11.371592     5A    -11.308623     6A    -11.300291
       7A    -11.253912     8A    -11.248431     9A    -11.247861
      10A    -11.242678    11A    -11.236949    12A    -10.581703
      13A     -8.048566    14A     -8.046794    15A     -8.046691
      16A     -1.390647    17A     -1.272592    18A     -1.190432
      19A     -1.127335    20A     -1.043913    21A     -1.014250
      22A     -0.990454    23A     -0.874817    24A     -0.831072
      25A     -0.785621    26A     -0.737498    27A     -0.686342
      28A     -0.678524    29A     -0.641141    30A     -0.634076
      31A     -0.611270    32A     -0.596837    33A     -0.588989
      34A     -0.578661    35A     -0.570509    36A     -0.541897
      37A     -0.531851    38A     -0.498414    39A     -0.480832
      40A     -0.474441    41A     -0.452557    42A     -0.433914
      43A     -0.353011    44A     -0.316911

  @DF-RHF Final Energy:  -896.59504808526356

   => Energetics <=

    Nuclear Repulsion Energy =            658.2986709442424171
    One-Electron Energy =               -2536.0464574916386482
    Two-Electron Energy =                 981.1527384621325609
    Total Energy =                       -896.5950480852635565
  Basis Set: (AUG-CC-PVTZ AUX)
    Blend: AUG-CC-PVTZ-RI
    Molecular point group: c1

    Geometry (in Angstrom), charge = 0, multiplicity = 1:

       Center              X                  Y                   Z               Mass
    ------------   -----------------  -----------------  -----------------  -----------------
         CL           0.999003844453     2.286323438832    -0.006317634904    34.968852682000
         O           -2.579500155547    -1.568204561168    -0.025158634904    15.994914619570
         N           -1.193329155547     0.279776438832    -0.015080634904    14.003074004430
         C            0.084739844453    -0.298118561168    -0.004846634904    12.000000000000
         C            1.209443844453     0.549892438832    -0.000314634904    12.000000000000
         C            0.303525844453    -1.685941561168    -0.000245634904    12.000000000000
         C            2.409350644453     0.024487338832     0.009871365096    12.000000000000
         C            1.602765844453    -2.190760561168     0.010207365096    12.000000000000
         C            2.705994844453    -1.337552561168     0.015429365096    12.000000000000
         C           -2.422682155547    -0.348168561168    -0.016113634904    12.000000000000
         C           -3.587368155547     0.620355438832     0.037588365096    12.000000000000
         H           -0.553152155547    -2.346240561168    -0.005141634904     1.007825032230
         H           -1.205428155547     1.293125438832    -0.011886634904     1.007825032230
         H            3.344052844453     0.731861438832     0.014174365096     1.007825032230
         H            1.746524844453    -3.268172561168     0.013668365096     1.007825032230
         H            3.716814844453    -1.735879561168     0.023368365096     1.007825032230
         H           -3.743670155547     0.954604438832     1.067916365096     1.007825032230
         H           -4.481756155547     0.096635438832    -0.298998634904     1.007825032230
         H           -3.421509155547     1.500905438832    -0.589179634904     1.007825032230

  Basis Set: AUG-CC-PVTZ
    Blend: AUG-CC-PVTZ
  Basis Set: (AUG-CC-PVTZ AUX)
    Blend: AUG-CC-PVTZ-JKFIT
	 Reference Energy          =    -896.5950480852635565 [Eh]
	 Singles Energy            =      -0.0000000000000000 [Eh]
	 Same-Spin Energy          =      -0.5341077584879483 [Eh]
	 Opposite-Spin Energy      =      -1.6205498928047144 [Eh]
	 Correlation Energy        =      -2.1546576512926627 [Eh]
	 Total Energy              =    -898.7497057365561659 [Eh]

	 ================> DF-SCS-MP2 Energies <==================
	-----------------------------------------------------------
	 SCS Same-Spin Scale       =       0.3333333333333333 [-]
	 SCS Opposite-Spin Scale   =       1.2000000000000000 [-]
	 SCS Same-Spin Energy      =      -0.1780359194959828 [Eh]
	 SCS Opposite-Spin Energy  =      -1.9446598713656571 [Eh]
	 SCS Correlation Energy    =      -2.1226957908616400 [Eh]
	 SCS Total Energy          =    -898.7177438761251551 [Eh]
	-----------------------------------------------------------

  Dipole Moment: [D]
     X:     0.5766      Y:     1.8595      Z:     0.0887     Total:     1.9488

*** Psi4 exiting successfully. Buy a developer a beer!
