                               Psi4 1.4a3.dev225

  ==> Input File <==

--------------------------------------------------------------------------
#psi4
#
memory 32 gb

molecule  {
0 1
 Cl        1.0239510     2.3134080    -0.0075990
  O       -2.5545530    -1.5411200    -0.0264400
  N       -1.1683820     0.3068610    -0.0163620
  C        0.1096870    -0.2710340    -0.0061280
  C        1.2343910     0.5769770    -0.0015960
  C        0.3284730    -1.6588570    -0.0015270
  C        2.5300300     0.0689490     0.0091910
  C        1.6277130    -2.1636760     0.0089260
  C        2.5727356    -1.4328206     0.0133991
  C       -2.3977350    -0.3210840    -0.0173950
  C       -3.5624210     0.6474400     0.0363070
  H       -0.5282050    -2.3191560    -0.0064230
  H       -1.1804810     1.3202100    -0.0131680
  H        3.3690000     0.7589460     0.0128930
  H        1.7714720    -3.2410880     0.0123870
  H        3.7417620    -1.7087950     0.0220870
  H       -3.7187230     0.9816890     1.0666350
  H       -4.4568090     0.1237200    -0.3002800
  H       -3.3965620     1.5279900    -0.5904610
units angstrom
no_reorient  #important for SAPT in psi4, default
symmetry c1  #important for SAPT in psi4, default
}

set PROPERTIES_ORIGIN ["COM"]
properties('MP2/aug-cc-pvtz', properties = ['dipole'])
--------------------------------------------------------------------------

    Molecular point group: c1
  Charge       = 0
  Multiplicity = 1
  Basis Set: AUG-CC-PVTZ
    Blend: AUG-CC-PVTZ
  Basis Set: (AUG-CC-PVTZ AUX)
    Blend: AUG-CC-PVTZ-JKFIT

    Orbital Energies [Eh]
    ---------------------

    Doubly Occupied:

       1A   -104.857041     2A    -20.534393     3A    -15.612035
       4A    -11.370046     5A    -11.313358     6A    -11.304992
       7A    -11.266935     8A    -11.247411     9A    -11.239821
      10A    -11.238862    11A    -11.218821    12A    -10.581018
      13A     -8.047872    14A     -8.046110    15A     -8.046027
      16A     -1.389125    17A     -1.270646    18A     -1.187543
      19A     -1.144125    20A     -1.046902    21A     -1.010875
      22A     -0.990453    23A     -0.881480    24A     -0.813418
      25A     -0.792087    26A     -0.737311    27A     -0.689560
      28A     -0.669168    29A     -0.638649    30A     -0.632769
      31A     -0.623393    32A     -0.600797    33A     -0.593367
      34A     -0.575984    35A     -0.567541    36A     -0.542646
      37A     -0.529559    38A     -0.490928    39A     -0.489583
      40A     -0.457446    41A     -0.457081    42A     -0.433404
      43A     -0.355874    44A     -0.316988

  @DF-RHF Final Energy:  -896.54380935130246

   => Energetics <=

    Nuclear Repulsion Energy =            658.4700775304968374
    One-Electron Energy =               -2536.3208859562455473
    Two-Electron Energy =                 981.3069990744462530
    Total Energy =                       -896.5438093513024569
  Basis Set: (AUG-CC-PVTZ AUX)
    Blend: AUG-CC-PVTZ-RI
    Molecular point group: c1

    Geometry (in Angstrom), charge = 0, multiplicity = 1:

       Center              X                  Y                   Z               Mass
    ------------   -----------------  -----------------  -----------------  -----------------
         CL           1.003439109653     2.293776022171    -0.006307134958    34.968852682000
         O           -2.575064890347    -1.560751977829    -0.025148134958    15.994914619570
         N           -1.188893890347     0.287229022171    -0.015070134958    14.003074004430
         C            0.089175109653    -0.290665977829    -0.004836134958    12.000000000000
         C            1.213879109653     0.557345022171    -0.000304134958    12.000000000000
         C            0.307961109653    -1.678488977829    -0.000235134958    12.000000000000
         C            2.509518109653     0.049317022171     0.010482865042    12.000000000000
         C            1.607201109653    -2.183307977829     0.010217865042    12.000000000000
         C            2.552223709653    -1.452452577829     0.014690965042    12.000000000000
         C           -2.418246890347    -0.340715977829    -0.016103134958    12.000000000000
         C           -3.582932890347     0.627808022171     0.037598865042    12.000000000000
         H           -0.548716890347    -2.338787977829    -0.005131134958     1.007825032230
         H           -1.200992890347     1.300578022171    -0.011876134958     1.007825032230
         H            3.348488109653     0.739314022171     0.014184865042     1.007825032230
         H            1.750960109653    -3.260719977829     0.013678865042     1.007825032230
         H            3.721250109653    -1.728426977829     0.023378865042     1.007825032230
         H           -3.739234890347     0.962057022171     1.067926865042     1.007825032230
         H           -4.477320890347     0.104088022171    -0.298988134958     1.007825032230
         H           -3.417073890347     1.508358022171    -0.589169134958     1.007825032230

  Basis Set: AUG-CC-PVTZ
    Blend: AUG-CC-PVTZ
  Basis Set: (AUG-CC-PVTZ AUX)
    Blend: AUG-CC-PVTZ-JKFIT
	 Reference Energy          =    -896.5438093513024569 [Eh]
	 Singles Energy            =      -0.0000000000000000 [Eh]
	 Same-Spin Energy          =      -0.5337930645736435 [Eh]
	 Opposite-Spin Energy      =      -1.6221713578014176 [Eh]
	 Correlation Energy        =      -2.1559644223750611 [Eh]
	 Total Energy              =    -898.6997737736775207 [Eh]

	 ================> DF-SCS-MP2 Energies <==================
	-----------------------------------------------------------
	 SCS Same-Spin Scale       =       0.3333333333333333 [-]
	 SCS Opposite-Spin Scale   =       1.2000000000000000 [-]
	 SCS Same-Spin Energy      =      -0.1779310215245478 [Eh]
	 SCS Opposite-Spin Energy  =      -1.9466056293617011 [Eh]
	 SCS Correlation Energy    =      -2.1245366508862489 [Eh]
	 SCS Total Energy          =    -898.6683460021887413 [Eh]
	-----------------------------------------------------------

  Dipole Moment: [D]
     X:     0.5770      Y:     1.9032      Z:     0.0882     Total:     1.9907

*** Psi4 exiting successfully. Buy a developer a beer!
