                               Psi4 1.4a3.dev225

  ==> Input File <==

--------------------------------------------------------------------------
#psi4
#
memory 32 gb

molecule  {
0 1
 Cl        1.0239510     2.3134080    -0.0075990
  O       -2.5545530    -1.5411200    -0.0264400
  N       -1.1683820     0.3068610    -0.0163620
  C        0.1096870    -0.2710340    -0.0061280
  C        1.2103290     0.7755231    -0.0022824
  C        0.3284730    -1.6588570    -0.0015270
  C        2.5300300     0.0689490     0.0091910
  C        1.6277130    -2.1636760     0.0089260
  C        2.7309420    -1.3104680     0.0141480
  C       -2.3977350    -0.3210840    -0.0173950
  C       -3.5624210     0.6474400     0.0363070
  H       -0.5282050    -2.3191560    -0.0064230
  H       -1.1804810     1.3202100    -0.0131680
  H        3.3690000     0.7589460     0.0128930
  H        1.7714720    -3.2410880     0.0123870
  H        3.7417620    -1.7087950     0.0220870
  H       -3.7187230     0.9816890     1.0666350
  H       -4.4568090     0.1237200    -0.3002800
  H       -3.3965620     1.5279900    -0.5904610
units angstrom
no_reorient  #important for SAPT in psi4, default
symmetry c1  #important for SAPT in psi4, default
}

set PROPERTIES_ORIGIN ["COM"]
properties('MP2/aug-cc-pvtz', properties = ['dipole'])
--------------------------------------------------------------------------

    Molecular point group: c1
  Charge       = 0
  Multiplicity = 1
  Basis Set: AUG-CC-PVTZ
    Blend: AUG-CC-PVTZ
  Basis Set: (AUG-CC-PVTZ AUX)
    Blend: AUG-CC-PVTZ-JKFIT

    Orbital Energies [Eh]
    ---------------------

    Doubly Occupied:

       1A   -104.873385     2A    -20.533114     3A    -15.610157
       4A    -11.368307     5A    -11.313696     6A    -11.312464
       7A    -11.261559     8A    -11.246804     9A    -11.245834
      10A    -11.239575    11A    -11.235238    12A    -10.601345
      13A     -8.068879    14A     -8.066132    15A     -8.066043
      16A     -1.387946    17A     -1.272582    18A     -1.224666
      19A     -1.126638    20A     -1.037048    21A     -0.998675
      22A     -0.969788    23A     -0.861742    24A     -0.825885
      25A     -0.778611    26A     -0.730581    27A     -0.690280
      28A     -0.681105    29A     -0.636239    30A     -0.631281
      31A     -0.625914    32A     -0.595576    33A     -0.589509
      34A     -0.580823    35A     -0.567283    36A     -0.543733
      37A     -0.540158    38A     -0.522353    39A     -0.483196
      40A     -0.462382    41A     -0.446210    42A     -0.427619
      43A     -0.330417    44A     -0.299373

  @DF-RHF Final Energy:  -896.55513591521481

   => Energetics <=

    Nuclear Repulsion Energy =            656.5351268859362790
    One-Electron Energy =               -2532.3602351950621596
    Two-Electron Energy =                 979.2699723939110754
    Total Energy =                       -896.5551359152148052
  Basis Set: (AUG-CC-PVTZ AUX)
    Blend: AUG-CC-PVTZ-RI
    Molecular point group: c1

    Geometry (in Angstrom), charge = 0, multiplicity = 1:

       Center              X                  Y                   Z               Mass
    ------------   -----------------  -----------------  -----------------  -----------------
         CL           0.993915722573     2.270994284479    -0.006311572055    34.968852682000
         O           -2.584588277427    -1.583533715521    -0.025152572055    15.994914619570
         N           -1.198417277427     0.264447284479    -0.015074572055    14.003074004430
         C            0.079651722573    -0.313447715521    -0.004840572055    12.000000000000
         C            1.180293722573     0.733109384479    -0.000994972055    12.000000000000
         C            0.298437722573    -1.701270715521    -0.000239572055    12.000000000000
         C            2.499994722573     0.026535284479     0.010478427945    12.000000000000
         C            1.597677722573    -2.206089715521     0.010213427945    12.000000000000
         C            2.700906722573    -1.352881715521     0.015435427945    12.000000000000
         C           -2.427770277427    -0.363497715521    -0.016107572055    12.000000000000
         C           -3.592456277427     0.605026284479     0.037594427945    12.000000000000
         H           -0.558240277427    -2.361569715521    -0.005135572055     1.007825032230
         H           -1.210516277427     1.277796284479    -0.011880572055     1.007825032230
         H            3.338964722573     0.716532284479     0.014180427945     1.007825032230
         H            1.741436722573    -3.283501715521     0.013674427945     1.007825032230
         H            3.711726722573    -1.751208715521     0.023374427945     1.007825032230
         H           -3.748758277427     0.939275284479     1.067922427945     1.007825032230
         H           -4.486844277427     0.081306284479    -0.298992572055     1.007825032230
         H           -3.426597277427     1.485576284479    -0.589173572055     1.007825032230

  Basis Set: AUG-CC-PVTZ
    Blend: AUG-CC-PVTZ
  Basis Set: (AUG-CC-PVTZ AUX)
    Blend: AUG-CC-PVTZ-JKFIT
	 Reference Energy          =    -896.5551359152148052 [Eh]
	 Singles Energy            =      -0.0000000000000000 [Eh]
	 Same-Spin Energy          =      -0.5380415621761030 [Eh]
	 Opposite-Spin Energy      =      -1.6264268945077420 [Eh]
	 Correlation Energy        =      -2.1644684566838448 [Eh]
	 Total Energy              =    -898.7196043718986402 [Eh]

	 ================> DF-SCS-MP2 Energies <==================
	-----------------------------------------------------------
	 SCS Same-Spin Scale       =       0.3333333333333333 [-]
	 SCS Opposite-Spin Scale   =       1.2000000000000000 [-]
	 SCS Same-Spin Energy      =      -0.1793471873920343 [Eh]
	 SCS Opposite-Spin Energy  =      -1.9517122734092904 [Eh]
	 SCS Correlation Energy    =      -2.1310594608013247 [Eh]
	 SCS Total Energy          =    -898.6861953760161441 [Eh]
	-----------------------------------------------------------

  Dipole Moment: [D]
     X:     0.5254      Y:     2.7328      Z:     0.0843     Total:     2.7841

*** Psi4 exiting successfully. Buy a developer a beer!
