                               Psi4 1.4a3.dev225

  ==> Input File <==

--------------------------------------------------------------------------
#psi4
#
memory 32 gb

molecule  {
0 1
 Cl        1.0239510     2.3134080    -0.0075990
  O       -2.5545530    -1.5411200    -0.0264400
  N       -1.1683820     0.3068610    -0.0163620
  C        0.1096870    -0.2710340    -0.0061280
  C        1.2464220     0.4777040    -0.0012528
  C        0.3284730    -1.6588570    -0.0015270
  C        2.5300300     0.0689490     0.0091910
  C        1.6277130    -2.1636760     0.0089260
  C        2.7309420    -1.3104680     0.0141480
  C       -2.3977350    -0.3210840    -0.0173950
  C       -3.5624210     0.6474400     0.0363070
  H       -0.5282050    -2.3191560    -0.0064230
  H       -1.1804810     1.3202100    -0.0131680
  H        3.3690000     0.7589460     0.0128930
  H        1.7714720    -3.2410880     0.0123870
  H        3.7417620    -1.7087950     0.0220870
  H       -3.7187230     0.9816890     1.0666350
  H       -4.4568090     0.1237200    -0.3002800
  H       -3.3965620     1.5279900    -0.5904610
units angstrom
no_reorient  #important for SAPT in psi4, default
symmetry c1  #important for SAPT in psi4, default
}

set PROPERTIES_ORIGIN ["COM"]
properties('MP2/aug-cc-pvtz', properties = ['dipole'])
--------------------------------------------------------------------------

    Molecular point group: c1
  Charge       = 0
  Multiplicity = 1
  Basis Set: AUG-CC-PVTZ
    Blend: AUG-CC-PVTZ
  Basis Set: (AUG-CC-PVTZ AUX)
    Blend: AUG-CC-PVTZ-JKFIT

    Orbital Energies [Eh]
    ---------------------

    Doubly Occupied:

       1A   -104.843704     2A    -20.537096     3A    -15.615975
       4A    -11.373701     5A    -11.310098     6A    -11.307153
       7A    -11.256271     8A    -11.249892     9A    -11.249284
      10A    -11.247833    11A    -11.243832    12A    -10.566788
      13A     -8.033446    14A     -8.031960    15A     -8.031860
      16A     -1.392284    17A     -1.273844    18A     -1.183903
      19A     -1.111217    20A     -1.051619    21A     -1.013577
      22A     -0.994601    23A     -0.877282    24A     -0.833183
      25A     -0.797391    26A     -0.739395    27A     -0.693265
      28A     -0.678414    29A     -0.641936    30A     -0.635636
      31A     -0.625956    32A     -0.598970    33A     -0.581913
      34A     -0.578185    35A     -0.571646    36A     -0.541237
      37A     -0.528262    38A     -0.500170    39A     -0.471991
      40A     -0.464062    41A     -0.454857    42A     -0.436559
      43A     -0.353402    44A     -0.326119

  @DF-RHF Final Energy:  -896.60050012041802

   => Energetics <=

    Nuclear Repulsion Energy =            656.4368530093289564
    One-Electron Energy =               -2532.3751724971880321
    Two-Electron Energy =                 979.3378193674411705
    Total Energy =                       -896.6005001204180189
  Basis Set: (AUG-CC-PVTZ AUX)
    Blend: AUG-CC-PVTZ-RI
    Molecular point group: c1

    Geometry (in Angstrom), charge = 0, multiplicity = 1:

       Center              X                  Y                   Z               Mass
    ------------   -----------------  -----------------  -----------------  -----------------
         CL           0.991353352396     2.292137519450    -0.006384667013    34.968852682000
         O           -2.587150647604    -1.562390480550    -0.025225667013    15.994914619570
         N           -1.200979647604     0.285590519450    -0.015147667013    14.003074004430
         C            0.077089352396    -0.292304480550    -0.004913667013    12.000000000000
         C            1.213824352396     0.456433519450    -0.000038467013    12.000000000000
         C            0.295875352396    -1.680127480550    -0.000312667013    12.000000000000
         C            2.497432352396     0.047678519450     0.010405332987    12.000000000000
         C            1.595115352396    -2.184946480550     0.010140332987    12.000000000000
         C            2.698344352396    -1.331738480550     0.015362332987    12.000000000000
         C           -2.430332647604    -0.342354480550    -0.016180667013    12.000000000000
         C           -3.595018647604     0.626169519450     0.037521332987    12.000000000000
         H           -0.560802647604    -2.340426480550    -0.005208667013     1.007825032230
         H           -1.213078647604     1.298939519450    -0.011953667013     1.007825032230
         H            3.336402352396     0.737675519450     0.014107332987     1.007825032230
         H            1.738874352396    -3.262358480550     0.013601332987     1.007825032230
         H            3.709164352396    -1.730065480550     0.023301332987     1.007825032230
         H           -3.751320647604     0.960418519450     1.067849332987     1.007825032230
         H           -4.489406647604     0.102449519450    -0.299065667013     1.007825032230
         H           -3.429159647604     1.506719519450    -0.589246667013     1.007825032230

  Basis Set: AUG-CC-PVTZ
    Blend: AUG-CC-PVTZ
  Basis Set: (AUG-CC-PVTZ AUX)
    Blend: AUG-CC-PVTZ-JKFIT
	 Reference Energy          =    -896.6005001204180189 [Eh]
	 Singles Energy            =      -0.0000000000000000 [Eh]
	 Same-Spin Energy          =      -0.5334234712592756 [Eh]
	 Opposite-Spin Energy      =      -1.6197034100899019 [Eh]
	 Correlation Energy        =      -2.1531268813491775 [Eh]
	 Total Energy              =    -898.7536270017671995 [Eh]

	 ================> DF-SCS-MP2 Energies <==================
	-----------------------------------------------------------
	 SCS Same-Spin Scale       =       0.3333333333333333 [-]
	 SCS Opposite-Spin Scale   =       1.2000000000000000 [-]
	 SCS Same-Spin Energy      =      -0.1778078237530918 [Eh]
	 SCS Opposite-Spin Energy  =      -1.9436440921078821 [Eh]
	 SCS Correlation Energy    =      -2.1214519158609741 [Eh]
	 SCS Total Energy          =    -898.7219520362790490 [Eh]
	-----------------------------------------------------------

  Dipole Moment: [D]
     X:     0.6225      Y:     1.3888      Z:     0.0914     Total:     1.5247

*** Psi4 exiting successfully. Buy a developer a beer!
