                               Psi4 1.4a3.dev225

  ==> Input File <==

--------------------------------------------------------------------------
#psi4
#
memory 32 gb

molecule  {
0 1
 Cl        1.0239510     2.3134080    -0.0075990
  O       -2.5545530    -1.5411200    -0.0264400
  N       -1.1683820     0.3068610    -0.0163620
  C        0.1096870    -0.2710340    -0.0061280
  C        1.2343910     0.5769770    -0.0015960
  C        0.3284730    -1.6588570    -0.0015270
  C        2.5300300     0.0689490     0.0091910
  C        1.6277130    -2.1636760     0.0089260
  C        2.7309420    -1.3104680     0.0141480
  C       -2.3977350    -0.3210840    -0.0173950
  C       -3.5624210     0.6474400     0.0363070
  H       -0.5282050    -2.3191560    -0.0064230
  H       -1.1804810     1.3202100    -0.0131680
  H        3.3690000     0.7589460     0.0128930
  H        1.7714720    -3.2410880     0.0123870
  H        3.7417620    -1.7087950     0.0220870
  H       -3.7187230     0.9816890     1.0666350
  H       -4.4732239     0.1141080    -0.3064575
  H       -3.3965620     1.5279900    -0.5904610
units angstrom
no_reorient  #important for SAPT in psi4, default
symmetry c1  #important for SAPT in psi4, default
}

set PROPERTIES_ORIGIN ["COM"]
properties('MP2/aug-cc-pvtz', properties = ['dipole'])
--------------------------------------------------------------------------

    Molecular point group: c1
  Charge       = 0
  Multiplicity = 1
  Basis Set: AUG-CC-PVTZ
    Blend: AUG-CC-PVTZ
  Basis Set: (AUG-CC-PVTZ AUX)
    Blend: AUG-CC-PVTZ-JKFIT

    Orbital Energies [Eh]
    ---------------------

    Doubly Occupied:

       1A   -104.856526     2A    -20.535502     3A    -15.613678
       4A    -11.371809     5A    -11.309072     6A    -11.307939
       7A    -11.257050     8A    -11.250558     9A    -11.248306
      10A    -11.244105    11A    -11.239968    12A    -10.580341
      13A     -8.047202    14A     -8.045454    15A     -8.045354
      16A     -1.390579    17A     -1.271401    18A     -1.181928
      19A     -1.125204    20A     -1.044467    21A     -1.008649
      22A     -0.986783    23A     -0.871263    24A     -0.830559
      25A     -0.789789    26A     -0.735845    27A     -0.688498
      28A     -0.676248    29A     -0.636354    30A     -0.633629
      31A     -0.621530    32A     -0.597285    33A     -0.591023
      34A     -0.574880    35A     -0.566658    36A     -0.538260
      37A     -0.528750    38A     -0.513971    39A     -0.479748
      40A     -0.470967    41A     -0.451554    42A     -0.434535
      43A     -0.344652    44A     -0.318901

  @DF-RHF Final Energy:  -896.60639925837449

   => Energetics <=

    Nuclear Repulsion Energy =            656.1676597511509499
    One-Electron Energy =               -2531.8345659771466671
    Two-Electron Energy =                 979.0605069676212224
    Total Energy =                       -896.6063992583744948
  Basis Set: (AUG-CC-PVTZ AUX)
    Blend: AUG-CC-PVTZ-RI
    Molecular point group: c1

    Geometry (in Angstrom), charge = 0, multiplicity = 1:

       Center              X                  Y                   Z               Mass
    ------------   -----------------  -----------------  -----------------  -----------------
         CL           0.992305348366     2.285147087636    -0.006323469159    34.968852682000
         O           -2.586198651634    -1.569380912364    -0.025164469159    15.994914619570
         N           -1.200027651634     0.278600087636    -0.015086469159    14.003074004430
         C            0.078041348366    -0.299294912364    -0.004852469159    12.000000000000
         C            1.202745348366     0.548716087636    -0.000320469159    12.000000000000
         C            0.296827348366    -1.687117912364    -0.000251469159    12.000000000000
         C            2.498384348366     0.040688087636     0.010466530841    12.000000000000
         C            1.596067348366    -2.191936912364     0.010201530841    12.000000000000
         C            2.699296348366    -1.338728912364     0.015423530841    12.000000000000
         C           -2.429380651634    -0.349344912364    -0.016119469159    12.000000000000
         C           -3.594066651634     0.619179087636     0.037582530841    12.000000000000
         H           -0.559850651634    -2.347416912364    -0.005147469159     1.007825032230
         H           -1.212126651634     1.291949087636    -0.011892469159     1.007825032230
         H            3.337354348366     0.730685087636     0.014168530841     1.007825032230
         H            1.739826348366    -3.269348912364     0.013662530841     1.007825032230
         H            3.710116348366    -1.737055912364     0.023362530841     1.007825032230
         H           -3.750368651634     0.953428087636     1.067910530841     1.007825032230
         H           -4.504869551634     0.085847087636    -0.305181969159     1.007825032230
         H           -3.428207651634     1.499729087636    -0.589185469159     1.007825032230

  Basis Set: AUG-CC-PVTZ
    Blend: AUG-CC-PVTZ
  Basis Set: (AUG-CC-PVTZ AUX)
    Blend: AUG-CC-PVTZ-JKFIT
	 Reference Energy          =    -896.6063992583744948 [Eh]
	 Singles Energy            =      -0.0000000000000000 [Eh]
	 Same-Spin Energy          =      -0.5339635918540016 [Eh]
	 Opposite-Spin Energy      =      -1.6205961666600737 [Eh]
	 Correlation Energy        =      -2.1545597585140754 [Eh]
	 Total Energy              =    -898.7609590168885916 [Eh]

	 ================> DF-SCS-MP2 Energies <==================
	-----------------------------------------------------------
	 SCS Same-Spin Scale       =       0.3333333333333333 [-]
	 SCS Opposite-Spin Scale   =       1.2000000000000000 [-]
	 SCS Same-Spin Energy      =      -0.1779878639513338 [Eh]
	 SCS Opposite-Spin Energy  =      -1.9447153999920883 [Eh]
	 SCS Correlation Energy    =      -2.1227032639434222 [Eh]
	 SCS Total Energy          =    -898.7291025223179304 [Eh]
	-----------------------------------------------------------

  Dipole Moment: [D]
     X:     0.5971      Y:     1.8638      Z:     0.0896     Total:     1.9591

*** Psi4 exiting successfully. Buy a developer a beer!
