                               Psi4 1.4a3.dev225

  ==> Input File <==

--------------------------------------------------------------------------
#psi4
#
memory 32 gb

molecule  {
0 1
 Cl        1.0239510     2.3134080    -0.0075990
  O       -2.5545530    -1.5411200    -0.0264400
  N       -1.1474349     0.3511142    -0.0163130
  C        0.1096870    -0.2710340    -0.0061280
  C        1.2343910     0.5769770    -0.0015960
  C        0.3284730    -1.6588570    -0.0015270
  C        2.5300300     0.0689490     0.0091910
  C        1.6277130    -2.1636760     0.0089260
  C        2.7309420    -1.3104680     0.0141480
  C       -2.3977350    -0.3210840    -0.0173950
  C       -3.5624210     0.6474400     0.0363070
  H       -0.5282050    -2.3191560    -0.0064230
  H       -1.1804810     1.3202100    -0.0131680
  H        3.3690000     0.7589460     0.0128930
  H        1.7714720    -3.2410880     0.0123870
  H        3.7417620    -1.7087950     0.0220870
  H       -3.7187230     0.9816890     1.0666350
  H       -4.4568090     0.1237200    -0.3002800
  H       -3.3965620     1.5279900    -0.5904610
units angstrom
no_reorient  #important for SAPT in psi4, default
symmetry c1  #important for SAPT in psi4, default
}

set PROPERTIES_ORIGIN ["COM"]
properties('MP2/aug-cc-pvtz', properties = ['dipole'])
--------------------------------------------------------------------------

    Molecular point group: c1
  Charge       = 0
  Multiplicity = 1
  Basis Set: AUG-CC-PVTZ
    Blend: AUG-CC-PVTZ
  Basis Set: (AUG-CC-PVTZ AUX)
    Blend: AUG-CC-PVTZ-JKFIT

    Orbital Energies [Eh]
    ---------------------

    Doubly Occupied:

       1A   -104.854728     2A    -20.543625     3A    -15.609940
       4A    -11.377982     5A    -11.307535     6A    -11.305434
       7A    -11.255601     8A    -11.249589     9A    -11.247832
      10A    -11.242525    11A    -11.239678    12A    -10.578572
      13A     -8.045434    14A     -8.043687    15A     -8.043591
      16A     -1.392325    17A     -1.271586    18A     -1.179238
      19A     -1.124035    20A     -1.043186    21A     -1.008725
      22A     -0.987419    23A     -0.866731    24A     -0.830235
      25A     -0.792137    26A     -0.740298    27A     -0.689623
      28A     -0.674537    29A     -0.635519    30A     -0.631754
      31A     -0.622026    32A     -0.603834    33A     -0.590629
      34A     -0.574311    35A     -0.569805    36A     -0.537839
      37A     -0.527378    38A     -0.513830    39A     -0.479467
      40A     -0.469591    41A     -0.454085    42A     -0.436876
      43A     -0.343704    44A     -0.317049

  @DF-RHF Final Energy:  -896.60335243622421

   => Energetics <=

    Nuclear Repulsion Energy =            655.9885305420548320
    One-Electron Energy =               -2531.4767161520876471
    Two-Electron Energy =                 978.8848331738086017
    Total Energy =                       -896.6033524362242133
  Basis Set: (AUG-CC-PVTZ AUX)
    Blend: AUG-CC-PVTZ-RI
    Molecular point group: c1

    Geometry (in Angstrom), charge = 0, multiplicity = 1:

       Center              X                  Y                   Z               Mass
    ------------   -----------------  -----------------  -----------------  -----------------
         CL           0.990472134366     2.281423665000    -0.006364361383    34.968852682000
         O           -2.588031865634    -1.573104335000    -0.025205361383    15.994914619570
         N           -1.180913765634     0.319129865000    -0.015078361383    14.003074004430
         C            0.076208134366    -0.303018335000    -0.004893361383    12.000000000000
         C            1.200912134366     0.544992665000    -0.000361361383    12.000000000000
         C            0.294994134366    -1.690841335000    -0.000292361383    12.000000000000
         C            2.496551134366     0.036964665000     0.010425638617    12.000000000000
         C            1.594234134366    -2.195660335000     0.010160638617    12.000000000000
         C            2.697463134366    -1.342452335000     0.015382638617    12.000000000000
         C           -2.431213865634    -0.353068335000    -0.016160361383    12.000000000000
         C           -3.595899865634     0.615455665000     0.037541638617    12.000000000000
         H           -0.561683865634    -2.351140335000    -0.005188361383     1.007825032230
         H           -1.213959865634     1.288225665000    -0.011933361383     1.007825032230
         H            3.335521134366     0.726961665000     0.014127638617     1.007825032230
         H            1.737993134366    -3.273072335000     0.013621638617     1.007825032230
         H            3.708283134366    -1.740779335000     0.023321638617     1.007825032230
         H           -3.752201865634     0.949704665000     1.067869638617     1.007825032230
         H           -4.490287865634     0.091735665000    -0.299045361383     1.007825032230
         H           -3.430040865634     1.496005665000    -0.589226361383     1.007825032230

  Basis Set: AUG-CC-PVTZ
    Blend: AUG-CC-PVTZ
  Basis Set: (AUG-CC-PVTZ AUX)
    Blend: AUG-CC-PVTZ-JKFIT
	 Reference Energy          =    -896.6033524362242133 [Eh]
	 Singles Energy            =      -0.0000000000000000 [Eh]
	 Same-Spin Energy          =      -0.5338087819349403 [Eh]
	 Opposite-Spin Energy      =      -1.6205456173353796 [Eh]
	 Correlation Energy        =      -2.1543543992703200 [Eh]
	 Total Energy              =    -898.7577068354945595 [Eh]

	 ================> DF-SCS-MP2 Energies <==================
	-----------------------------------------------------------
	 SCS Same-Spin Scale       =       0.3333333333333333 [-]
	 SCS Opposite-Spin Scale   =       1.2000000000000000 [-]
	 SCS Same-Spin Energy      =      -0.1779362606449801 [Eh]
	 SCS Opposite-Spin Energy  =      -1.9446547408024555 [Eh]
	 SCS Correlation Energy    =      -2.1225910014474354 [Eh]
	 SCS Total Energy          =    -898.7259434376716172 [Eh]
	-----------------------------------------------------------

  Dipole Moment: [D]
     X:     0.3456      Y:     1.7512      Z:     0.0897     Total:     1.7872

*** Psi4 exiting successfully. Buy a developer a beer!
