                               Psi4 1.4a3.dev225

  ==> Input File <==

--------------------------------------------------------------------------
#psi4
#
memory 32 gb

molecule  {
0 1
 Cl        1.0239510     2.3134080    -0.0075990
  O       -2.5545530    -1.5411200    -0.0264400
  N       -1.1683820     0.3068610    -0.0163620
  C        0.1096870    -0.2710340    -0.0061280
  C        1.2343910     0.5769770    -0.0015960
  C        0.3284730    -1.6588570    -0.0015270
  C        2.5300300     0.0689490     0.0091910
  C        1.6427709    -2.1828002     0.0090795
  C        2.7309420    -1.3104680     0.0141480
  C       -2.3977350    -0.3210840    -0.0173950
  C       -3.5624210     0.6474400     0.0363070
  H       -0.5282050    -2.3191560    -0.0064230
  H       -1.1804810     1.3202100    -0.0131680
  H        3.3690000     0.7589460     0.0128930
  H        1.7714720    -3.2410880     0.0123870
  H        3.7417620    -1.7087950     0.0220870
  H       -3.7187230     0.9816890     1.0666350
  H       -4.4568090     0.1237200    -0.3002800
  H       -3.3965620     1.5279900    -0.5904610
units angstrom
no_reorient  #important for SAPT in psi4, default
symmetry c1  #important for SAPT in psi4, default
}

set PROPERTIES_ORIGIN ["COM"]
properties('MP2/aug-cc-pvtz', properties = ['dipole'])
--------------------------------------------------------------------------

    Molecular point group: c1
  Charge       = 0
  Multiplicity = 1
  Basis Set: AUG-CC-PVTZ
    Blend: AUG-CC-PVTZ
  Basis Set: (AUG-CC-PVTZ AUX)
    Blend: AUG-CC-PVTZ-JKFIT

    Orbital Energies [Eh]
    ---------------------

    Doubly Occupied:

       1A   -104.856777     2A    -20.535293     3A    -15.613338
       4A    -11.371444     5A    -11.309476     6A    -11.307930
       7A    -11.257154     8A    -11.248981     9A    -11.248196
      10A    -11.244495    11A    -11.242085    12A    -10.580593
      13A     -8.047453    14A     -8.045704    15A     -8.045606
      16A     -1.390341    17A     -1.271052    18A     -1.181464
      19A     -1.123619    20A     -1.044662    21A     -1.007190
      22A     -0.988157    23A     -0.871056    24A     -0.831475
      25A     -0.789257    26A     -0.737600    27A     -0.688189
      28A     -0.675335    29A     -0.635844    30A     -0.633509
      31A     -0.623963    32A     -0.597171    33A     -0.592022
      34A     -0.574443    35A     -0.570056    36A     -0.534641
      37A     -0.528755    38A     -0.518290    39A     -0.478999
      40A     -0.470942    41A     -0.451104    42A     -0.434093
      43A     -0.342432    44A     -0.319519

  @DF-RHF Final Energy:  -896.60593322775662

   => Energetics <=

    Nuclear Repulsion Energy =            655.7802580941081487
    One-Electron Energy =               -2531.0529781639497742
    Two-Electron Energy =                 978.6667868420850027
    Total Energy =                       -896.6059332277566227
  Basis Set: (AUG-CC-PVTZ AUX)
    Blend: AUG-CC-PVTZ-RI
    Molecular point group: c1

    Geometry (in Angstrom), charge = 0, multiplicity = 1:

       Center              X                  Y                   Z               Mass
    ------------   -----------------  -----------------  -----------------  -----------------
         CL           0.991138462022     2.286447471662    -0.006371199537    34.968852682000
         O           -2.587365537978    -1.568080528338    -0.025212199537    15.994914619570
         N           -1.201194537978     0.279900471662    -0.015134199537    14.003074004430
         C            0.076874462022    -0.297994528338    -0.004900199537    12.000000000000
         C            1.201578462022     0.550016471662    -0.000368199537    12.000000000000
         C            0.295660462022    -1.685817528338    -0.000299199537    12.000000000000
         C            2.497217462022     0.041988471662     0.010418800463    12.000000000000
         C            1.609958362022    -2.209760728338     0.010307300463    12.000000000000
         C            2.698129462022    -1.337428528338     0.015375800463    12.000000000000
         C           -2.430547537978    -0.348044528338    -0.016167199537    12.000000000000
         C           -3.595233537978     0.620479471662     0.037534800463    12.000000000000
         H           -0.561017537978    -2.346116528338    -0.005195199537     1.007825032230
         H           -1.213293537978     1.293249471662    -0.011940199537     1.007825032230
         H            3.336187462022     0.731985471662     0.014120800463     1.007825032230
         H            1.738659462022    -3.268048528338     0.013614800463     1.007825032230
         H            3.708949462022    -1.735755528338     0.023314800463     1.007825032230
         H           -3.751535537978     0.954728471662     1.067862800463     1.007825032230
         H           -4.489621537978     0.096759471662    -0.299052199537     1.007825032230
         H           -3.429374537978     1.501029471662    -0.589233199537     1.007825032230

  Basis Set: AUG-CC-PVTZ
    Blend: AUG-CC-PVTZ
  Basis Set: (AUG-CC-PVTZ AUX)
    Blend: AUG-CC-PVTZ-JKFIT
	 Reference Energy          =    -896.6059332277566227 [Eh]
	 Singles Energy            =      -0.0000000000000000 [Eh]
	 Same-Spin Energy          =      -0.5339696826535243 [Eh]
	 Opposite-Spin Energy      =      -1.6206444108147058 [Eh]
	 Correlation Energy        =      -2.1546140934682301 [Eh]
	 Total Energy              =    -898.7605473212248626 [Eh]

	 ================> DF-SCS-MP2 Energies <==================
	-----------------------------------------------------------
	 SCS Same-Spin Scale       =       0.3333333333333333 [-]
	 SCS Opposite-Spin Scale   =       1.2000000000000000 [-]
	 SCS Same-Spin Energy      =      -0.1779898942178414 [Eh]
	 SCS Opposite-Spin Energy  =      -1.9447732929776469 [Eh]
	 SCS Correlation Energy    =      -2.1227631871954884 [Eh]
	 SCS Total Energy          =    -898.7286964149520827 [Eh]
	-----------------------------------------------------------

  Dipole Moment: [D]
     X:     0.5939      Y:     1.8599      Z:     0.0889     Total:     1.9544

*** Psi4 exiting successfully. Buy a developer a beer!
