                               Psi4 1.4a3.dev225

  ==> Input File <==

--------------------------------------------------------------------------
#psi4
#
memory 32 gb

molecule  {
0 1
 Cl        1.0239510     2.3134080    -0.0075990
  O       -2.5545530    -1.5411200    -0.0264400
  N       -1.1683820     0.3068610    -0.0163620
  C        0.1096870    -0.2710340    -0.0061280
  C        1.2343910     0.5769770    -0.0015960
  C        0.3284730    -1.6588570    -0.0015270
  C        2.5300300     0.0689490     0.0091910
  C        1.6277130    -2.1636760     0.0089260
  C        2.7309420    -1.3104680     0.0141480
  C       -2.3977350    -0.3210840    -0.0173950
  C       -3.5624210     0.6474400     0.0363070
  H       -0.5282050    -2.3191560    -0.0064230
  H       -1.1804810     1.3202100    -0.0131680
  H        3.3690000     0.7589460     0.0128930
  H        1.7714720    -3.2410880     0.0123870
  H        3.7417620    -1.7087950     0.0220870
  H       -3.7307222     0.8711751     1.0942984
  H       -4.4568090     0.1237200    -0.3002800
  H       -3.3965620     1.5279900    -0.5904610
units angstrom
no_reorient  #important for SAPT in psi4, default
symmetry c1  #important for SAPT in psi4, default
}

set PROPERTIES_ORIGIN ["COM"]
properties('MP2/aug-cc-pvtz', properties = ['dipole'])
--------------------------------------------------------------------------

    Molecular point group: c1
  Charge       = 0
  Multiplicity = 1
  Basis Set: AUG-CC-PVTZ
    Blend: AUG-CC-PVTZ
  Basis Set: (AUG-CC-PVTZ AUX)
    Blend: AUG-CC-PVTZ-JKFIT

    Orbital Energies [Eh]
    ---------------------

    Doubly Occupied:

       1A   -104.856414     2A    -20.534650     3A    -15.613481
       4A    -11.370914     5A    -11.308950     6A    -11.307817
       7A    -11.256956     8A    -11.248466     9A    -11.248213
      10A    -11.244026    11A    -11.239855    12A    -10.580228
      13A     -8.047089    14A     -8.045341    15A     -8.045241
      16A     -1.390105    17A     -1.271160    18A     -1.181803
      19A     -1.125104    20A     -1.045114    21A     -1.008975
      22A     -0.987824    23A     -0.871367    24A     -0.830530
      25A     -0.789435    26A     -0.735877    27A     -0.686105
      28A     -0.676287    29A     -0.637683    30A     -0.635190
      31A     -0.621660    32A     -0.595469    33A     -0.590757
      34A     -0.578756    35A     -0.568050    36A     -0.538239
      37A     -0.529028    38A     -0.513778    39A     -0.479596
      40A     -0.470853    41A     -0.451338    42A     -0.432969
      43A     -0.344555    44A     -0.318835

  @DF-RHF Final Energy:  -896.60592152505410

   => Energetics <=

    Nuclear Repulsion Energy =            656.3194111898714027
    One-Electron Energy =               -2532.1424958207244345
    Two-Electron Energy =                 979.2171631057988179
    Total Energy =                       -896.6059215250541001
  Basis Set: (AUG-CC-PVTZ AUX)
    Blend: AUG-CC-PVTZ-RI
    Molecular point group: c1

    Geometry (in Angstrom), charge = 0, multiplicity = 1:

       Center              X                  Y                   Z               Mass
    ------------   -----------------  -----------------  -----------------  -----------------
         CL           0.992279020095     2.285748707446    -0.006525242920    34.968852682000
         O           -2.586224979905    -1.568779292554    -0.025366242920    15.994914619570
         N           -1.200053979905     0.279201707446    -0.015288242920    14.003074004430
         C            0.078015020095    -0.298693292554    -0.005054242920    12.000000000000
         C            1.202719020095     0.549317707446    -0.000522242920    12.000000000000
         C            0.296801020095    -1.686516292554    -0.000453242920    12.000000000000
         C            2.498358020095     0.041289707446     0.010264757080    12.000000000000
         C            1.596041020095    -2.191335292554     0.009999757080    12.000000000000
         C            2.699270020095    -1.338127292554     0.015221757080    12.000000000000
         C           -2.429406979905    -0.348743292554    -0.016321242920    12.000000000000
         C           -3.594092979905     0.619780707446     0.037380757080    12.000000000000
         H           -0.559876979905    -2.346815292554    -0.005349242920     1.007825032230
         H           -1.212152979905     1.292550707446    -0.012094242920     1.007825032230
         H            3.337328020095     0.731286707446     0.013966757080     1.007825032230
         H            1.739800020095    -3.268747292554     0.013460757080     1.007825032230
         H            3.710090020095    -1.736454292554     0.023160757080     1.007825032230
         H           -3.762394179905     0.843515807446     1.095372157080     1.007825032230
         H           -4.488480979905     0.096060707446    -0.299206242920     1.007825032230
         H           -3.428233979905     1.500330707446    -0.589387242920     1.007825032230

  Basis Set: AUG-CC-PVTZ
    Blend: AUG-CC-PVTZ
  Basis Set: (AUG-CC-PVTZ AUX)
    Blend: AUG-CC-PVTZ-JKFIT
	 Reference Energy          =    -896.6059215250541001 [Eh]
	 Singles Energy            =      -0.0000000000000000 [Eh]
	 Same-Spin Energy          =      -0.5340148575462050 [Eh]
	 Opposite-Spin Energy      =      -1.6205036306885505 [Eh]
	 Correlation Energy        =      -2.1545184882347557 [Eh]
	 Total Energy              =    -898.7604400132888713 [Eh]

	 ================> DF-SCS-MP2 Energies <==================
	-----------------------------------------------------------
	 SCS Same-Spin Scale       =       0.3333333333333333 [-]
	 SCS Opposite-Spin Scale   =       1.2000000000000000 [-]
	 SCS Same-Spin Energy      =      -0.1780049525154017 [Eh]
	 SCS Opposite-Spin Energy  =      -1.9446043568262605 [Eh]
	 SCS Correlation Energy    =      -2.1226093093416623 [Eh]
	 SCS Total Energy          =    -898.7285308343957695 [Eh]
	-----------------------------------------------------------

  Dipole Moment: [D]
     X:     0.5757      Y:     1.8311      Z:     0.0904     Total:     1.9216

*** Psi4 exiting successfully. Buy a developer a beer!
