                               Psi4 1.4a3.dev225

  ==> Input File <==

--------------------------------------------------------------------------
#psi4
#
memory 32 gb

molecule  {
0 1
 Cl        1.0239510     2.3134080    -0.0075990
  O       -2.5545530    -1.5411200    -0.0264400
  N       -1.1683820     0.3068610    -0.0163620
  C        0.1096870    -0.2710340    -0.0061280
  C        1.2343910     0.5769770    -0.0015960
  C        0.3284730    -1.6588570    -0.0015270
  C        2.5300300     0.0689490     0.0091910
  C        1.6277130    -2.1636760     0.0089260
  C        2.7309420    -1.3104680     0.0141480
  C       -2.3977350    -0.3210840    -0.0173950
  C       -3.5624210     0.6474400     0.0363070
  H       -0.5282050    -2.3191560    -0.0064230
  H       -1.1804810     1.3202100    -0.0131680
  H        3.3690000     0.7589460     0.0128930
  H        1.7714720    -3.2410880     0.0123870
  H        3.7417620    -1.7087950     0.0220870
  H       -3.7187230     0.9816890     1.0666350
  H       -4.4403941     0.1333320    -0.2941025
  H       -3.3965620     1.5279900    -0.5904610
units angstrom
no_reorient  #important for SAPT in psi4, default
symmetry c1  #important for SAPT in psi4, default
}

set PROPERTIES_ORIGIN ["COM"]
properties('MP2/aug-cc-pvtz', properties = ['dipole'])
--------------------------------------------------------------------------

    Molecular point group: c1
  Charge       = 0
  Multiplicity = 1
  Basis Set: AUG-CC-PVTZ
    Blend: AUG-CC-PVTZ
  Basis Set: (AUG-CC-PVTZ AUX)
    Blend: AUG-CC-PVTZ-JKFIT

    Orbital Energies [Eh]
    ---------------------

    Doubly Occupied:

       1A   -104.856446     2A    -20.535571     3A    -15.613448
       4A    -11.371592     5A    -11.308967     6A    -11.307835
       7A    -11.256983     8A    -11.248245     9A    -11.246116
      10A    -11.244032    11A    -11.239893    12A    -10.580261
      13A     -8.047122    14A     -8.045374    15A     -8.045274
      16A     -1.390617    17A     -1.271257    18A     -1.181833
      19A     -1.125131    20A     -1.045368    21A     -1.009199
      22A     -0.988396    23A     -0.871775    24A     -0.830706
      25A     -0.790003    26A     -0.736140    27A     -0.688422
      28A     -0.676418    29A     -0.636257    30A     -0.633846
      31A     -0.622097    32A     -0.597163    33A     -0.590953
      34A     -0.575089    35A     -0.573875    36A     -0.538485
      37A     -0.528976    38A     -0.513896    39A     -0.479708
      40A     -0.470897    41A     -0.451520    42A     -0.434437
      43A     -0.344586    44A     -0.318805

  @DF-RHF Final Energy:  -896.60698768309749

   => Energetics <=

    Nuclear Repulsion Energy =            656.3562563073763840
    One-Electron Energy =               -2532.2004629925995687
    Two-Electron Energy =                 979.2372190021255847
    Total Energy =                       -896.6069876830974863
  Basis Set: (AUG-CC-PVTZ AUX)
    Blend: AUG-CC-PVTZ-RI
    Molecular point group: c1

    Geometry (in Angstrom), charge = 0, multiplicity = 1:

       Center              X                  Y                   Z               Mass
    ------------   -----------------  -----------------  -----------------  -----------------
         CL           0.992109603211     2.285032466016    -0.006397134895    34.968852682000
         O           -2.586394396789    -1.569495533984    -0.025238134895    15.994914619570
         N           -1.200223396789     0.278485466016    -0.015160134895    14.003074004430
         C            0.077845603211    -0.299409533984    -0.004926134895    12.000000000000
         C            1.202549603211     0.548601466016    -0.000394134895    12.000000000000
         C            0.296631603211    -1.687232533984    -0.000325134895    12.000000000000
         C            2.498188603211     0.040573466016     0.010392865105    12.000000000000
         C            1.595871603211    -2.192051533984     0.010127865105    12.000000000000
         C            2.699100603211    -1.338843533984     0.015349865105    12.000000000000
         C           -2.429576396789    -0.349459533984    -0.016193134895    12.000000000000
         C           -3.594262396789     0.619064466016     0.037508865105    12.000000000000
         H           -0.560046396789    -2.347531533984    -0.005221134895     1.007825032230
         H           -1.212322396789     1.291834466016    -0.011966134895     1.007825032230
         H            3.337158603211     0.730570466016     0.014094865105     1.007825032230
         H            1.739630603211    -3.269463533984     0.013588865105     1.007825032230
         H            3.709920603211    -1.737170533984     0.023288865105     1.007825032230
         H           -3.750564396789     0.953313466016     1.067836865105     1.007825032230
         H           -4.472235496789     0.104956466016    -0.292900634895     1.007825032230
         H           -3.428403396789     1.499614466016    -0.589259134895     1.007825032230

  Basis Set: AUG-CC-PVTZ
    Blend: AUG-CC-PVTZ
  Basis Set: (AUG-CC-PVTZ AUX)
    Blend: AUG-CC-PVTZ-JKFIT
	 Reference Energy          =    -896.6069876830974863 [Eh]
	 Singles Energy            =      -0.0000000000000000 [Eh]
	 Same-Spin Energy          =      -0.5339528375257805 [Eh]
	 Opposite-Spin Energy      =      -1.6203338256026221 [Eh]
	 Correlation Energy        =      -2.1542866631284028 [Eh]
	 Total Energy              =    -898.7612743462259459 [Eh]

	 ================> DF-SCS-MP2 Energies <==================
	-----------------------------------------------------------
	 SCS Same-Spin Scale       =       0.3333333333333333 [-]
	 SCS Opposite-Spin Scale   =       1.2000000000000000 [-]
	 SCS Same-Spin Energy      =      -0.1779842791752602 [Eh]
	 SCS Opposite-Spin Energy  =      -1.9444005907231463 [Eh]
	 SCS Correlation Energy    =      -2.1223848698984065 [Eh]
	 SCS Total Energy          =    -898.7293725529958692 [Eh]
	-----------------------------------------------------------

  Dipole Moment: [D]
     X:     0.5868      Y:     1.8666      Z:     0.0884     Total:     1.9587

*** Psi4 exiting successfully. Buy a developer a beer!
