                               Psi4 1.4a3.dev225

  ==> Input File <==

--------------------------------------------------------------------------
#psi4
#
memory 32 gb

molecule  {
0 1
 Cl        1.0239510     2.3134080    -0.0075990
  O       -2.5545530    -1.5411200    -0.0264400
  N       -1.1683820     0.3068610    -0.0163620
  C        0.1096870    -0.2710340    -0.0061280
  C        1.2343910     0.5769770    -0.0015960
  C        0.3284730    -1.6588570    -0.0015270
  C        2.5300300     0.0689490     0.0091910
  C        1.6277130    -2.1636760     0.0089260
  C        2.7309420    -1.3104680     0.0141480
  C       -2.3977350    -0.3210840    -0.0173950
  C       -3.5624210     0.6474400     0.0363070
  H       -0.5282050    -2.3191560    -0.0064230
  H       -1.1804810     1.3202100    -0.0131680
  H        3.3690000     0.7589460     0.0128930
  H        1.7450206    -3.0428459     0.0117502
  H        3.7417620    -1.7087950     0.0220870
  H       -3.7187230     0.9816890     1.0666350
  H       -4.4568090     0.1237200    -0.3002800
  H       -3.3965620     1.5279900    -0.5904610
units angstrom
no_reorient  #important for SAPT in psi4, default
symmetry c1  #important for SAPT in psi4, default
}

set PROPERTIES_ORIGIN ["COM"]
properties('MP2/aug-cc-pvtz', properties = ['dipole'])
--------------------------------------------------------------------------

    Molecular point group: c1
  Charge       = 0
  Multiplicity = 1
  Basis Set: AUG-CC-PVTZ
    Blend: AUG-CC-PVTZ
  Basis Set: (AUG-CC-PVTZ AUX)
    Blend: AUG-CC-PVTZ-JKFIT

    Orbital Energies [Eh]
    ---------------------

    Doubly Occupied:

       1A   -104.856243     2A    -20.535271     3A    -15.613081
       4A    -11.371411     5A    -11.308533     6A    -11.307214
       7A    -11.256059     8A    -11.248146     9A    -11.243104
      10A    -11.238980    11A    -11.224390    12A    -10.580058
      13A     -8.046919    14A     -8.045171    15A     -8.045072
      16A     -1.390322    17A     -1.270877    18A     -1.181819
      19A     -1.127719    20A     -1.044657    21A     -1.015630
      22A     -0.990588    23A     -0.872129    24A     -0.843544
      25A     -0.790661    26A     -0.752839    27A     -0.689523
      28A     -0.676661    29A     -0.636546    30A     -0.633870
      31A     -0.633025    32A     -0.601178    33A     -0.595751
      34A     -0.574365    35A     -0.570148    36A     -0.538627
      37A     -0.528558    38A     -0.522143    39A     -0.479287
      40A     -0.470703    41A     -0.451066    42A     -0.434245
      43A     -0.344164    44A     -0.318263

  @DF-RHF Final Energy:  -896.57214046277818

   => Energetics <=

    Nuclear Repulsion Energy =            657.4782894614874067
    One-Electron Energy =               -2534.3037371318955593
    Two-Electron Energy =                 980.2533072076300869
    Total Energy =                       -896.5721404627781794
  Basis Set: (AUG-CC-PVTZ AUX)
    Blend: AUG-CC-PVTZ-RI
    Molecular point group: c1

    Geometry (in Angstrom), charge = 0, multiplicity = 1:

       Center              X                  Y                   Z               Mass
    ------------   -----------------  -----------------  -----------------  -----------------
         CL           0.992365190224     2.283907773567    -0.006356505156    34.968852682000
         O           -2.586138809776    -1.570620226433    -0.025197505156    15.994914619570
         N           -1.199967809776     0.277360773567    -0.015119505156    14.003074004430
         C            0.078101190224    -0.300534226433    -0.004885505156    12.000000000000
         C            1.202805190224     0.547476773567    -0.000353505156    12.000000000000
         C            0.296887190224    -1.688357226433    -0.000284505156    12.000000000000
         C            2.498444190224     0.039448773567     0.010433494844    12.000000000000
         C            1.596127190224    -2.193176226433     0.010168494844    12.000000000000
         C            2.699356190224    -1.339968226433     0.015390494844    12.000000000000
         C           -2.429320809776    -0.350584226433    -0.016152505156    12.000000000000
         C           -3.594006809776     0.617939773567     0.037549494844    12.000000000000
         H           -0.559790809776    -2.348656226433    -0.005180505156     1.007825032230
         H           -1.212066809776     1.290709773567    -0.011925505156     1.007825032230
         H            3.337414190224     0.729445773567     0.014135494844     1.007825032230
         H            1.713434790224    -3.072346126433     0.012992694844     1.007825032230
         H            3.710176190224    -1.738295226433     0.023329494844     1.007825032230
         H           -3.750308809776     0.952188773567     1.067877494844     1.007825032230
         H           -4.488394809776     0.094219773567    -0.299037505156     1.007825032230
         H           -3.428147809776     1.498489773567    -0.589218505156     1.007825032230

  Basis Set: AUG-CC-PVTZ
    Blend: AUG-CC-PVTZ
  Basis Set: (AUG-CC-PVTZ AUX)
    Blend: AUG-CC-PVTZ-JKFIT
	 Reference Energy          =    -896.5721404627781794 [Eh]
	 Singles Energy            =      -0.0000000000000000 [Eh]
	 Same-Spin Energy          =      -0.5338105830911020 [Eh]
	 Opposite-Spin Energy      =      -1.6200631402607040 [Eh]
	 Correlation Energy        =      -2.1538737233518059 [Eh]
	 Total Energy              =    -898.7260141861299871 [Eh]

	 ================> DF-SCS-MP2 Energies <==================
	-----------------------------------------------------------
	 SCS Same-Spin Scale       =       0.3333333333333333 [-]
	 SCS Opposite-Spin Scale   =       1.2000000000000000 [-]
	 SCS Same-Spin Energy      =      -0.1779368610303673 [Eh]
	 SCS Opposite-Spin Energy  =      -1.9440757683128447 [Eh]
	 SCS Correlation Energy    =      -2.1220126293432120 [Eh]
	 SCS Total Energy          =    -898.6941530921213825 [Eh]
	-----------------------------------------------------------

  Dipole Moment: [D]
     X:     0.6069      Y:     1.8366      Z:     0.0890     Total:     1.9363

*** Psi4 exiting successfully. Buy a developer a beer!
