                               Psi4 1.4a3.dev225

  ==> Input File <==

--------------------------------------------------------------------------
#psi4
#
memory 32 gb

molecule  {
0 1
 Cl        1.0239510     2.3134080    -0.0075990
  O       -2.5545530    -1.5411200    -0.0264400
  N       -1.1683820     0.3068610    -0.0163620
  C        0.1096870    -0.2710340    -0.0061280
  C        1.2743143     0.6070786    -0.0014351
  C        0.3284730    -1.6588570    -0.0015270
  C        2.5300300     0.0689490     0.0091910
  C        1.6277130    -2.1636760     0.0089260
  C        2.7309420    -1.3104680     0.0141480
  C       -2.3977350    -0.3210840    -0.0173950
  C       -3.5624210     0.6474400     0.0363070
  H       -0.5282050    -2.3191560    -0.0064230
  H       -1.1804810     1.3202100    -0.0131680
  H        3.3690000     0.7589460     0.0128930
  H        1.7714720    -3.2410880     0.0123870
  H        3.7417620    -1.7087950     0.0220870
  H       -3.7187230     0.9816890     1.0666350
  H       -4.4568090     0.1237200    -0.3002800
  H       -3.3965620     1.5279900    -0.5904610
units angstrom
no_reorient  #important for SAPT in psi4, default
symmetry c1  #important for SAPT in psi4, default
}

set PROPERTIES_ORIGIN ["COM"]
properties('MP2/aug-cc-pvtz', properties = ['dipole'])
--------------------------------------------------------------------------

    Molecular point group: c1
  Charge       = 0
  Multiplicity = 1
  Basis Set: AUG-CC-PVTZ
    Blend: AUG-CC-PVTZ
  Basis Set: (AUG-CC-PVTZ AUX)
    Blend: AUG-CC-PVTZ-JKFIT

    Orbital Energies [Eh]
    ---------------------

    Doubly Occupied:

       1A   -104.859084     2A    -20.535763     3A    -15.614269
       4A    -11.371715     5A    -11.312373     6A    -11.308825
       7A    -11.253311     8A    -11.248498     9A    -11.247807
      10A    -11.242452    11A    -11.237965    12A    -10.583225
      13A     -8.050147    14A     -8.048322    15A     -8.048222
      16A     -1.390584    17A     -1.269786    18A     -1.185537
      19A     -1.127058    20A     -1.043215    21A     -1.011127
      22A     -0.983427    23A     -0.870193    24A     -0.829566
      25A     -0.787441    26A     -0.736413    27A     -0.687869
      28A     -0.676563    29A     -0.635458    30A     -0.633305
      31A     -0.618270    32A     -0.597856    33A     -0.595023
      34A     -0.573680    35A     -0.569993    36A     -0.539013
      37A     -0.530898    38A     -0.512755    39A     -0.480828
      40A     -0.472158    41A     -0.451593    42A     -0.434030
      43A     -0.347165    44A     -0.312728

  @DF-RHF Final Energy:  -896.60356900187139

   => Energetics <=

    Nuclear Repulsion Energy =            655.9606280738704527
    One-Electron Energy =               -2531.3973744119211915
    Two-Electron Energy =                 978.8331773361794603
    Total Energy =                       -896.6035690018713922
  Basis Set: (AUG-CC-PVTZ AUX)
    Blend: AUG-CC-PVTZ-RI
    Molecular point group: c1

    Geometry (in Angstrom), charge = 0, multiplicity = 1:

       Center              X                  Y                   Z               Mass
    ------------   -----------------  -----------------  -----------------  -----------------
         CL           0.989373179020     2.282952757401    -0.006371724889    34.968852682000
         O           -2.589130820980    -1.571575242599    -0.025212724889    15.994914619570
         N           -1.202959820980     0.276405757401    -0.015134724889    14.003074004430
         C            0.075109179020    -0.301489242599    -0.004900724889    12.000000000000
         C            1.239736479020     0.576623357401    -0.000207824889    12.000000000000
         C            0.293895179020    -1.689312242599    -0.000299724889    12.000000000000
         C            2.495452179020     0.038493757401     0.010418275111    12.000000000000
         C            1.593135179020    -2.194131242599     0.010153275111    12.000000000000
         C            2.696364179020    -1.340923242599     0.015375275111    12.000000000000
         C           -2.432312820980    -0.351539242599    -0.016167724889    12.000000000000
         C           -3.596998820980     0.616984757401     0.037534275111    12.000000000000
         H           -0.562782820980    -2.349611242599    -0.005195724889     1.007825032230
         H           -1.215058820980     1.289754757401    -0.011940724889     1.007825032230
         H            3.334422179020     0.728490757401     0.014120275111     1.007825032230
         H            1.736894179020    -3.271543242599     0.013614275111     1.007825032230
         H            3.707184179020    -1.739250242599     0.023314275111     1.007825032230
         H           -3.753300820980     0.951233757401     1.067862275111     1.007825032230
         H           -4.491386820980     0.093264757401    -0.299052724889     1.007825032230
         H           -3.431139820980     1.497534757401    -0.589233724889     1.007825032230

  Basis Set: AUG-CC-PVTZ
    Blend: AUG-CC-PVTZ
  Basis Set: (AUG-CC-PVTZ AUX)
    Blend: AUG-CC-PVTZ-JKFIT
	 Reference Energy          =    -896.6035690018713922 [Eh]
	 Singles Energy            =      -0.0000000000000000 [Eh]
	 Same-Spin Energy          =      -0.5342298020703239 [Eh]
	 Opposite-Spin Energy      =      -1.6209046840522678 [Eh]
	 Correlation Energy        =      -2.1551344861225918 [Eh]
	 Total Energy              =    -898.7587034879940120 [Eh]

	 ================> DF-SCS-MP2 Energies <==================
	-----------------------------------------------------------
	 SCS Same-Spin Scale       =       0.3333333333333333 [-]
	 SCS Opposite-Spin Scale   =       1.2000000000000000 [-]
	 SCS Same-Spin Energy      =      -0.1780766006901079 [Eh]
	 SCS Opposite-Spin Energy  =      -1.9450856208627214 [Eh]
	 SCS Correlation Energy    =      -2.1231622215528292 [Eh]
	 SCS Total Energy          =    -898.7267312234241672 [Eh]
	-----------------------------------------------------------

  Dipole Moment: [D]
     X:     0.5474      Y:     1.9964      Z:     0.0881     Total:     2.0720

*** Psi4 exiting successfully. Buy a developer a beer!
