                               Psi4 1.4a3.dev225

  ==> Input File <==

--------------------------------------------------------------------------
#psi4
#
memory 32 gb

molecule  {
0 1
 Cl        1.0239510     2.3134080    -0.0075990
  O       -2.5545530    -1.5411200    -0.0264400
  N       -1.1683820     0.3068610    -0.0163620
  C        0.1096870    -0.2710340    -0.0061280
  C        1.2343910     0.5769770    -0.0015960
  C        0.3284730    -1.6588570    -0.0015270
  C        2.5300300     0.0689490     0.0091910
  C        1.6277130    -2.1636760     0.0089260
  C        2.7453548    -1.4094233     0.0145036
  C       -2.3977350    -0.3210840    -0.0173950
  C       -3.5624210     0.6474400     0.0363070
  H       -0.5282050    -2.3191560    -0.0064230
  H       -1.1804810     1.3202100    -0.0131680
  H        3.3690000     0.7589460     0.0128930
  H        1.7714720    -3.2410880     0.0123870
  H        3.7417620    -1.7087950     0.0220870
  H       -3.7187230     0.9816890     1.0666350
  H       -4.4568090     0.1237200    -0.3002800
  H       -3.3965620     1.5279900    -0.5904610
units angstrom
no_reorient  #important for SAPT in psi4, default
symmetry c1  #important for SAPT in psi4, default
}

set PROPERTIES_ORIGIN ["COM"]
properties('MP2/aug-cc-pvtz', properties = ['dipole'])
--------------------------------------------------------------------------

    Molecular point group: c1
  Charge       = 0
  Multiplicity = 1
  Basis Set: AUG-CC-PVTZ
    Blend: AUG-CC-PVTZ
  Basis Set: (AUG-CC-PVTZ AUX)
    Blend: AUG-CC-PVTZ-JKFIT

    Orbital Energies [Eh]
    ---------------------

    Doubly Occupied:

       1A   -104.856938     2A    -20.535874     3A    -15.613969
       4A    -11.371699     5A    -11.310436     6A    -11.308803
       7A    -11.266492     8A    -11.248424     9A    -11.245658
      10A    -11.242920    11A    -11.238901    12A    -10.580777
      13A     -8.047640    14A     -8.045881    15A     -8.045779
      16A     -1.390691    17A     -1.271508    18A     -1.179712
      19A     -1.124820    20A     -1.042619    21A     -1.003094
      22A     -0.991653    23A     -0.877179    24A     -0.825687
      25A     -0.791361    26A     -0.734361    27A     -0.688994
      28A     -0.684859    29A     -0.633782    30A     -0.631914
      31A     -0.619846    32A     -0.594455    33A     -0.590010
      34A     -0.573998    35A     -0.572242    36A     -0.554848
      37A     -0.528127    38A     -0.500065    39A     -0.480158
      40A     -0.470073    41A     -0.449911    42A     -0.435225
      43A     -0.345023    44A     -0.317016

  @DF-RHF Final Energy:  -896.59524878427646

   => Energetics <=

    Nuclear Repulsion Energy =            655.0948375832823558
    One-Electron Energy =               -2529.6533335735230139
    Two-Electron Energy =                 977.9632472059643078
    Total Energy =                       -896.5952487842764640
  Basis Set: (AUG-CC-PVTZ AUX)
    Blend: AUG-CC-PVTZ-RI
    Molecular point group: c1

    Geometry (in Angstrom), charge = 0, multiplicity = 1:

       Center              X                  Y                   Z               Mass
    ------------   -----------------  -----------------  -----------------  -----------------
         CL           0.991184259960     2.292114964799    -0.006385547333    34.968852682000
         O           -2.587319740040    -1.562413035201    -0.025226547333    15.994914619570
         N           -1.201148740040     0.285567964799    -0.015148547333    14.003074004430
         C            0.076920259960    -0.292327035201    -0.004914547333    12.000000000000
         C            1.201624259960     0.555683964799    -0.000382547333    12.000000000000
         C            0.295706259960    -1.680150035201    -0.000313547333    12.000000000000
         C            2.497263259960     0.047655964799     0.010404452667    12.000000000000
         C            1.594946259960    -2.184969035201     0.010139452667    12.000000000000
         C            2.712588059960    -1.430716335201     0.015717052667    12.000000000000
         C           -2.430501740040    -0.342377035201    -0.016181547333    12.000000000000
         C           -3.595187740040     0.626146964799     0.037520452667    12.000000000000
         H           -0.560971740040    -2.340449035201    -0.005209547333     1.007825032230
         H           -1.213247740040     1.298916964799    -0.011954547333     1.007825032230
         H            3.336233259960     0.737652964799     0.014106452667     1.007825032230
         H            1.738705259960    -3.262381035201     0.013600452667     1.007825032230
         H            3.708995259960    -1.730088035201     0.023300452667     1.007825032230
         H           -3.751489740040     0.960395964799     1.067848452667     1.007825032230
         H           -4.489575740040     0.102426964799    -0.299066547333     1.007825032230
         H           -3.429328740040     1.506696964799    -0.589247547333     1.007825032230

  Basis Set: AUG-CC-PVTZ
    Blend: AUG-CC-PVTZ
  Basis Set: (AUG-CC-PVTZ AUX)
    Blend: AUG-CC-PVTZ-JKFIT
	 Reference Energy          =    -896.5952487842764640 [Eh]
	 Singles Energy            =      -0.0000000000000000 [Eh]
	 Same-Spin Energy          =      -0.5337969614944291 [Eh]
	 Opposite-Spin Energy      =      -1.6212999496849956 [Eh]
	 Correlation Energy        =      -2.1550969111794247 [Eh]
	 Total Energy              =    -898.7503456954558487 [Eh]

	 ================> DF-SCS-MP2 Energies <==================
	-----------------------------------------------------------
	 SCS Same-Spin Scale       =       0.3333333333333333 [-]
	 SCS Opposite-Spin Scale   =       1.2000000000000000 [-]
	 SCS Same-Spin Energy      =      -0.1779323204981430 [Eh]
	 SCS Opposite-Spin Energy  =      -1.9455599396219947 [Eh]
	 SCS Correlation Energy    =      -2.1234922601201376 [Eh]
	 SCS Total Energy          =    -898.7187410443965518 [Eh]
	-----------------------------------------------------------

  Dipole Moment: [D]
     X:     0.5870      Y:     1.8866      Z:     0.0889     Total:     1.9779

*** Psi4 exiting successfully. Buy a developer a beer!
