                               Psi4 1.4a3.dev225

  ==> Input File <==

--------------------------------------------------------------------------
#psi4
#
memory 32 gb

molecule  {
0 1
 Cl        1.0239510     2.3134080    -0.0075990
  O       -2.5545530    -1.5411200    -0.0264400
  N       -1.1683820     0.3068610    -0.0163620
  C        0.1096870    -0.2710340    -0.0061280
  C        1.2343910     0.5769770    -0.0015960
  C        0.3284730    -1.6588570    -0.0015270
  C        2.5300300     0.0689490     0.0091910
  C        1.6277130    -2.1636760     0.0089260
  C        2.7309420    -1.3104680     0.0141480
  C       -2.3977350    -0.3210840    -0.0173950
  C       -3.5470529     0.6346603     0.0355984
  H       -0.5282050    -2.3191560    -0.0064230
  H       -1.1804810     1.3202100    -0.0131680
  H        3.3690000     0.7589460     0.0128930
  H        1.7714720    -3.2410880     0.0123870
  H        3.7417620    -1.7087950     0.0220870
  H       -3.7187230     0.9816890     1.0666350
  H       -4.4568090     0.1237200    -0.3002800
  H       -3.3965620     1.5279900    -0.5904610
units angstrom
no_reorient  #important for SAPT in psi4, default
symmetry c1  #important for SAPT in psi4, default
}

set PROPERTIES_ORIGIN ["COM"]
properties('MP2/aug-cc-pvtz', properties = ['dipole'])
--------------------------------------------------------------------------

    Molecular point group: c1
  Charge       = 0
  Multiplicity = 1
  Basis Set: AUG-CC-PVTZ
    Blend: AUG-CC-PVTZ
  Basis Set: (AUG-CC-PVTZ AUX)
    Blend: AUG-CC-PVTZ-JKFIT

    Orbital Energies [Eh]
    ---------------------

    Doubly Occupied:

       1A   -104.856426     2A    -20.535251     3A    -15.613342
       4A    -11.370922     5A    -11.308939     6A    -11.307807
       7A    -11.256957     8A    -11.248990     9A    -11.248213
      10A    -11.244000    11A    -11.239848    12A    -10.580241
      13A     -8.047102    14A     -8.045354    15A     -8.045254
      16A     -1.391008    17A     -1.271396    18A     -1.181959
      19A     -1.125122    20A     -1.046542    21A     -1.009214
      22A     -0.987863    23A     -0.871288    24A     -0.830498
      25A     -0.790026    26A     -0.736046    27A     -0.690314
      28A     -0.676361    29A     -0.636859    30A     -0.633742
      31A     -0.621824    32A     -0.598924    33A     -0.591010
      34A     -0.573390    35A     -0.567482    36A     -0.538068
      37A     -0.527156    38A     -0.513982    39A     -0.479547
      40A     -0.470867    41A     -0.451437    42A     -0.435906
      43A     -0.344554    44A     -0.318756

  @DF-RHF Final Energy:  -896.60641923222522

   => Energetics <=

    Nuclear Repulsion Energy =            656.6362109873497275
    One-Electron Energy =               -2532.7656908596204630
    Two-Electron Energy =                 979.5230606400454008
    Total Energy =                       -896.6064192322252211
  Basis Set: (AUG-CC-PVTZ AUX)
    Blend: AUG-CC-PVTZ-RI
    Molecular point group: c1

    Geometry (in Angstrom), charge = 0, multiplicity = 1:

       Center              X                  Y                   Z               Mass
    ------------   -----------------  -----------------  -----------------  -----------------
         CL           0.991116439823     2.285997053088    -0.006309995998    34.968852682000
         O           -2.587387560177    -1.568530946912    -0.025150995998    15.994914619570
         N           -1.201216560177     0.279450053088    -0.015072995998    14.003074004430
         C            0.076852439823    -0.298444946912    -0.004838995998    12.000000000000
         C            1.201556439823     0.549566053088    -0.000306995998    12.000000000000
         C            0.295638439823    -1.686267946912    -0.000237995998    12.000000000000
         C            2.497195439823     0.041538053088     0.010480004002    12.000000000000
         C            1.594878439823    -2.191086946912     0.010215004002    12.000000000000
         C            2.698107439823    -1.337878946912     0.015437004002    12.000000000000
         C           -2.430569560177    -0.348494946912    -0.016105995998    12.000000000000
         C           -3.579887460177     0.607249353088     0.036887404002    12.000000000000
         H           -0.561039560177    -2.346566946912    -0.005133995998     1.007825032230
         H           -1.213315560177     1.292799053088    -0.011878995998     1.007825032230
         H            3.336165439823     0.731535053088     0.014182004002     1.007825032230
         H            1.738637439823    -3.268498946912     0.013676004002     1.007825032230
         H            3.708927439823    -1.736205946912     0.023376004002     1.007825032230
         H           -3.751557560177     0.954278053088     1.067924004002     1.007825032230
         H           -4.489643560177     0.096309053088    -0.298990995998     1.007825032230
         H           -3.429396560177     1.500579053088    -0.589171995998     1.007825032230

  Basis Set: AUG-CC-PVTZ
    Blend: AUG-CC-PVTZ
  Basis Set: (AUG-CC-PVTZ AUX)
    Blend: AUG-CC-PVTZ-JKFIT
	 Reference Energy          =    -896.6064192322252211 [Eh]
	 Singles Energy            =      -0.0000000000000000 [Eh]
	 Same-Spin Energy          =      -0.5340907089212601 [Eh]
	 Opposite-Spin Energy      =      -1.6205594517848985 [Eh]
	 Correlation Energy        =      -2.1546501607061588 [Eh]
	 Total Energy              =    -898.7610693929314039 [Eh]

	 ================> DF-SCS-MP2 Energies <==================
	-----------------------------------------------------------
	 SCS Same-Spin Scale       =       0.3333333333333333 [-]
	 SCS Opposite-Spin Scale   =       1.2000000000000000 [-]
	 SCS Same-Spin Energy      =      -0.1780302363070867 [Eh]
	 SCS Opposite-Spin Energy  =      -1.9446713421418780 [Eh]
	 SCS Correlation Energy    =      -2.1227015784489645 [Eh]
	 SCS Total Energy          =    -898.7291208106742033 [Eh]
	-----------------------------------------------------------

  Dipole Moment: [D]
     X:     0.5623      Y:     1.8830      Z:     0.0913     Total:     1.9673

*** Psi4 exiting successfully. Buy a developer a beer!
