                               Psi4 1.4a3.dev225

  ==> Input File <==

--------------------------------------------------------------------------
#psi4
#
memory 32 gb

molecule  {
0 1
 Cl        1.0239510     2.3134080    -0.0075990
  O       -2.5545530    -1.5411200    -0.0264400
  N       -1.1683820     0.3068610    -0.0163620
  C        0.1096870    -0.2710340    -0.0061280
  C        1.2343910     0.5769770    -0.0015960
  C        0.3284730    -1.6588570    -0.0015270
  C        2.5300300     0.0689490     0.0091910
  C        1.6463547    -2.1709192     0.0090760
  C        2.7309420    -1.3104680     0.0141480
  C       -2.3977350    -0.3210840    -0.0173950
  C       -3.5624210     0.6474400     0.0363070
  H       -0.5282050    -2.3191560    -0.0064230
  H       -1.1804810     1.3202100    -0.0131680
  H        3.3690000     0.7589460     0.0128930
  H        1.7714720    -3.2410880     0.0123870
  H        3.7417620    -1.7087950     0.0220870
  H       -3.7187230     0.9816890     1.0666350
  H       -4.4568090     0.1237200    -0.3002800
  H       -3.3965620     1.5279900    -0.5904610
units angstrom
no_reorient  #important for SAPT in psi4, default
symmetry c1  #important for SAPT in psi4, default
}

set PROPERTIES_ORIGIN ["COM"]
properties('MP2/aug-cc-pvtz', properties = ['dipole'])
--------------------------------------------------------------------------

    Molecular point group: c1
  Charge       = 0
  Multiplicity = 1
  Basis Set: AUG-CC-PVTZ
    Blend: AUG-CC-PVTZ
  Basis Set: (AUG-CC-PVTZ AUX)
    Blend: AUG-CC-PVTZ-JKFIT

    Orbital Energies [Eh]
    ---------------------

    Doubly Occupied:

       1A   -104.856713     2A    -20.535387     3A    -15.613296
       4A    -11.371489     5A    -11.309347     6A    -11.307823
       7A    -11.257221     8A    -11.248540     9A    -11.248220
      10A    -11.243297    11A    -11.241805    12A    -10.580528
      13A     -8.047389    14A     -8.045639    15A     -8.045541
      16A     -1.390404    17A     -1.271084    18A     -1.181799
      19A     -1.124540    20A     -1.045060    21A     -1.006926
      22A     -0.988594    23A     -0.871653    24A     -0.830736
      25A     -0.789402    26A     -0.736600    27A     -0.688446
      28A     -0.676009    29A     -0.636243    30A     -0.633539
      31A     -0.623085    32A     -0.597024    33A     -0.590876
      34A     -0.574562    35A     -0.570229    36A     -0.535812
      37A     -0.528865    38A     -0.516841    39A     -0.479383
      40A     -0.470914    41A     -0.451643    42A     -0.434335
      43A     -0.342320    44A     -0.320199

  @DF-RHF Final Energy:  -896.60634896047611

   => Energetics <=

    Nuclear Repulsion Energy =            655.9941386977408229
    One-Electron Energy =               -2531.4822640593251890
    Two-Electron Energy =                 978.8817764011083682
    Total Energy =                       -896.6063489604761116
  Basis Set: (AUG-CC-PVTZ AUX)
    Blend: AUG-CC-PVTZ-RI
    Molecular point group: c1

    Geometry (in Angstrom), charge = 0, multiplicity = 1:

       Center              X                  Y                   Z               Mass
    ------------   -----------------  -----------------  -----------------  -----------------
         CL           0.990884035340     2.285603997302    -0.006370951060    34.968852682000
         O           -2.587619964660    -1.568924002698    -0.025211951060    15.994914619570
         N           -1.201448964660     0.279056997302    -0.015133951060    14.003074004430
         C            0.076620035340    -0.298838002698    -0.004899951060    12.000000000000
         C            1.201324035340     0.549172997302    -0.000367951060    12.000000000000
         C            0.295406035340    -1.686661002698    -0.000298951060    12.000000000000
         C            2.496963035340     0.041144997302     0.010419048940    12.000000000000
         C            1.613287735340    -2.198723202698     0.010304048940    12.000000000000
         C            2.697875035340    -1.338272002698     0.015376048940    12.000000000000
         C           -2.430801964660    -0.348888002698    -0.016166951060    12.000000000000
         C           -3.595487964660     0.619635997302     0.037535048940    12.000000000000
         H           -0.561271964660    -2.346960002698    -0.005194951060     1.007825032230
         H           -1.213547964660     1.292405997302    -0.011939951060     1.007825032230
         H            3.335933035340     0.731141997302     0.014121048940     1.007825032230
         H            1.738405035340    -3.268892002698     0.013615048940     1.007825032230
         H            3.708695035340    -1.736599002698     0.023315048940     1.007825032230
         H           -3.751789964660     0.953884997302     1.067863048940     1.007825032230
         H           -4.489875964660     0.095915997302    -0.299051951060     1.007825032230
         H           -3.429628964660     1.500185997302    -0.589232951060     1.007825032230

  Basis Set: AUG-CC-PVTZ
    Blend: AUG-CC-PVTZ
  Basis Set: (AUG-CC-PVTZ AUX)
    Blend: AUG-CC-PVTZ-JKFIT
	 Reference Energy          =    -896.6063489604761116 [Eh]
	 Singles Energy            =      -0.0000000000000000 [Eh]
	 Same-Spin Energy          =      -0.5339588839569454 [Eh]
	 Opposite-Spin Energy      =      -1.6205462965747104 [Eh]
	 Correlation Energy        =      -2.1545051805316557 [Eh]
	 Total Energy              =    -898.7608541410077123 [Eh]

	 ================> DF-SCS-MP2 Energies <==================
	-----------------------------------------------------------
	 SCS Same-Spin Scale       =       0.3333333333333333 [-]
	 SCS Opposite-Spin Scale   =       1.2000000000000000 [-]
	 SCS Same-Spin Energy      =      -0.1779862946523151 [Eh]
	 SCS Opposite-Spin Energy  =      -1.9446555558896523 [Eh]
	 SCS Correlation Energy    =      -2.1226418505419673 [Eh]
	 SCS Total Energy          =    -898.7289908110180932 [Eh]
	-----------------------------------------------------------

  Dipole Moment: [D]
     X:     0.5926      Y:     1.8648      Z:     0.0889     Total:     1.9588

*** Psi4 exiting successfully. Buy a developer a beer!
