                               Psi4 1.4a3.dev225

  ==> Input File <==

--------------------------------------------------------------------------
#psi4
#
memory 32 gb

molecule  {
0 1
 Cl        1.0239510     2.3134080    -0.0075990
  O       -2.5545530    -1.5411200    -0.0264400
  N       -1.1683820     0.3068610    -0.0163620
  C        0.1096870    -0.2710340    -0.0061280
  C        1.2343910     0.5769770    -0.0015960
  C        0.3284730    -1.6588570    -0.0015270
  C        2.5300300     0.0689490     0.0091910
  C        1.6277130    -2.1636760     0.0089260
  C        2.7309420    -1.3104680     0.0141480
  C       -2.3977350    -0.3210840    -0.0173950
  C       -3.4855807     0.5835415     0.0327640
  H       -0.5282050    -2.3191560    -0.0064230
  H       -1.1804810     1.3202100    -0.0131680
  H        3.3690000     0.7589460     0.0128930
  H        1.7714720    -3.2410880     0.0123870
  H        3.7417620    -1.7087950     0.0220870
  H       -3.7187230     0.9816890     1.0666350
  H       -4.4568090     0.1237200    -0.3002800
  H       -3.3965620     1.5279900    -0.5904610
units angstrom
no_reorient  #important for SAPT in psi4, default
symmetry c1  #important for SAPT in psi4, default
}

set PROPERTIES_ORIGIN ["COM"]
properties('MP2/aug-cc-pvtz', properties = ['dipole'])
--------------------------------------------------------------------------

    Molecular point group: c1
  Charge       = 0
  Multiplicity = 1
  Basis Set: AUG-CC-PVTZ
    Blend: AUG-CC-PVTZ
  Basis Set: (AUG-CC-PVTZ AUX)
    Blend: AUG-CC-PVTZ-JKFIT

    Orbital Energies [Eh]
    ---------------------

    Doubly Occupied:

       1A   -104.856121     2A    -20.533971     3A    -15.612276
       4A    -11.366911     5A    -11.308519     6A    -11.307387
       7A    -11.256648     8A    -11.252516     9A    -11.247890
      10A    -11.243641    11A    -11.239424    12A    -10.579935
      13A     -8.046797    14A     -8.045050    15A     -8.044950
      16A     -1.392909    17A     -1.271634    18A     -1.182326
      19A     -1.124895    20A     -1.055115    21A     -1.010465
      22A     -0.989058    23A     -0.870176    24A     -0.829818
      25A     -0.790491    26A     -0.736257    27A     -0.698957
      28A     -0.676483    29A     -0.639289    30A     -0.634841
      31A     -0.622097    32A     -0.605297    33A     -0.590829
      34A     -0.568710    35A     -0.554766    36A     -0.535472
      37A     -0.518613    38A     -0.513977    39A     -0.478496
      40A     -0.470536    41A     -0.450875    42A     -0.440083
      43A     -0.344220    44A     -0.318246

  @DF-RHF Final Energy:  -896.59542001500142

   => Energetics <=

    Nuclear Repulsion Energy =            658.1928588894509176
    One-Electron Energy =               -2535.8626279114882891
    Two-Electron Energy =                 981.0743490070359485
    Total Energy =                       -896.5954200150014231
  Basis Set: (AUG-CC-PVTZ AUX)
    Blend: AUG-CC-PVTZ-RI
    Molecular point group: c1

    Geometry (in Angstrom), charge = 0, multiplicity = 1:

       Center              X                  Y                   Z               Mass
    ------------   -----------------  -----------------  -----------------  -----------------
         CL           0.986752310159     2.289626158138    -0.006108771882    34.968852682000
         O           -2.591751689841    -1.564901841862    -0.024949771882    15.994914619570
         N           -1.205580689841     0.283079158138    -0.014871771882    14.003074004430
         C            0.072488310159    -0.294815841862    -0.004637771882    12.000000000000
         C            1.197192310159     0.553195158138    -0.000105771882    12.000000000000
         C            0.291274310159    -1.682638841862    -0.000036771882    12.000000000000
         C            2.492831310159     0.045167158138     0.010681228118    12.000000000000
         C            1.590514310159    -2.187457841862     0.010416228118    12.000000000000
         C            2.693743310159    -1.334249841862     0.015638228118    12.000000000000
         C           -2.434933689841    -0.344865841862    -0.015904771882    12.000000000000
         C           -3.522779389841     0.559759658138     0.034254228118    12.000000000000
         H           -0.565403689841    -2.342937841862    -0.004932771882     1.007825032230
         H           -1.217679689841     1.296428158138    -0.011677771882     1.007825032230
         H            3.331801310159     0.735164158138     0.014383228118     1.007825032230
         H            1.734273310159    -3.264869841862     0.013877228118     1.007825032230
         H            3.704563310159    -1.732576841862     0.023577228118     1.007825032230
         H           -3.755921689841     0.957907158138     1.068125228118     1.007825032230
         H           -4.494007689841     0.099938158138    -0.298789771882     1.007825032230
         H           -3.433760689841     1.504208158138    -0.588970771882     1.007825032230

  Basis Set: AUG-CC-PVTZ
    Blend: AUG-CC-PVTZ
  Basis Set: (AUG-CC-PVTZ AUX)
    Blend: AUG-CC-PVTZ-JKFIT
	 Reference Energy          =    -896.5954200150014231 [Eh]
	 Singles Energy            =      -0.0000000000000000 [Eh]
	 Same-Spin Energy          =      -0.5349877942221757 [Eh]
	 Opposite-Spin Energy      =      -1.6215800850698767 [Eh]
	 Correlation Energy        =      -2.1565678792920524 [Eh]
	 Total Energy              =    -898.7519878942935065 [Eh]

	 ================> DF-SCS-MP2 Energies <==================
	-----------------------------------------------------------
	 SCS Same-Spin Scale       =       0.3333333333333333 [-]
	 SCS Opposite-Spin Scale   =       1.2000000000000000 [-]
	 SCS Same-Spin Energy      =      -0.1783292647407252 [Eh]
	 SCS Opposite-Spin Energy  =      -1.9458961020838519 [Eh]
	 SCS Correlation Energy    =      -2.1242253668245770 [Eh]
	 SCS Total Energy          =    -898.7196453818260125 [Eh]
	-----------------------------------------------------------

  Dipole Moment: [D]
     X:     0.4372      Y:     1.9566      Z:     0.1027     Total:     2.0075

*** Psi4 exiting successfully. Buy a developer a beer!
