                               Psi4 1.4a3.dev225

  ==> Input File <==

--------------------------------------------------------------------------
#psi4
#
memory 32 gb

molecule  {
0 1
 Cl        1.0239510     2.3134080    -0.0075990
  O       -2.5545530    -1.5411200    -0.0264400
  N       -1.1683820     0.3068610    -0.0163620
  C        0.1096870    -0.2710340    -0.0061280
  C        1.2343910     0.5769770    -0.0015960
  C        0.3284730    -1.6588570    -0.0015270
  C        2.5300300     0.0689490     0.0091910
  C        1.6277130    -2.1636760     0.0089260
  C        2.7151214    -1.3227033     0.0140731
  C       -2.3977350    -0.3210840    -0.0173950
  C       -3.5624210     0.6474400     0.0363070
  H       -0.5282050    -2.3191560    -0.0064230
  H       -1.1804810     1.3202100    -0.0131680
  H        3.3690000     0.7589460     0.0128930
  H        1.7714720    -3.2410880     0.0123870
  H        3.7417620    -1.7087950     0.0220870
  H       -3.7187230     0.9816890     1.0666350
  H       -4.4568090     0.1237200    -0.3002800
  H       -3.3965620     1.5279900    -0.5904610
units angstrom
no_reorient  #important for SAPT in psi4, default
symmetry c1  #important for SAPT in psi4, default
}

set PROPERTIES_ORIGIN ["COM"]
properties('MP2/aug-cc-pvtz', properties = ['dipole'])
--------------------------------------------------------------------------

    Molecular point group: c1
  Charge       = 0
  Multiplicity = 1
  Basis Set: AUG-CC-PVTZ
    Blend: AUG-CC-PVTZ
  Basis Set: (AUG-CC-PVTZ AUX)
    Blend: AUG-CC-PVTZ-JKFIT

    Orbital Energies [Eh]
    ---------------------

    Doubly Occupied:

       1A   -104.856566     2A    -20.535387     3A    -15.613355
       4A    -11.371500     5A    -11.309223     6A    -11.307771
       7A    -11.258082     8A    -11.248234     9A    -11.245989
      10A    -11.243745    11A    -11.239773    12A    -10.580397
      13A     -8.047258    14A     -8.045509    15A     -8.045410
      16A     -1.390417    17A     -1.271208    18A     -1.182190
      19A     -1.126494    20A     -1.044439    21A     -1.008692
      22A     -0.988591    23A     -0.872327    24A     -0.829252
      25A     -0.790154    26A     -0.736088    27A     -0.688597
      28A     -0.675187    29A     -0.636253    30A     -0.633592
      31A     -0.622018    32A     -0.596762    33A     -0.591631
      34A     -0.574847    35A     -0.570142    36A     -0.538035
      37A     -0.528874    38A     -0.513610    39A     -0.480344
      40A     -0.470595    41A     -0.451935    42A     -0.434438
      43A     -0.344472    44A     -0.319436

  @DF-RHF Final Energy:  -896.60647883573677

   => Energetics <=

    Nuclear Repulsion Energy =            656.4531253314110018
    One-Electron Energy =               -2532.4015709195673480
    Two-Electron Energy =                 979.3419667524195802
    Total Energy =                       -896.6064788357367661
  Basis Set: (AUG-CC-PVTZ AUX)
    Blend: AUG-CC-PVTZ-RI
    Molecular point group: c1

    Geometry (in Angstrom), charge = 0, multiplicity = 1:

       Center              X                  Y                   Z               Mass
    ------------   -----------------  -----------------  -----------------  -----------------
         CL           0.993330636335     2.285958404200    -0.006354984610    34.968852682000
         O           -2.585173363665    -1.568569595800    -0.025195984610    15.994914619570
         N           -1.199002363665     0.279411404200    -0.015117984610    14.003074004430
         C            0.079066636335    -0.298483595800    -0.004883984610    12.000000000000
         C            1.203770636335     0.549527404200    -0.000351984610    12.000000000000
         C            0.297852636335    -1.686306595800    -0.000282984610    12.000000000000
         C            2.499409636335     0.041499404200     0.010435015390    12.000000000000
         C            1.597092636335    -2.191125595800     0.010170015390    12.000000000000
         C            2.684501036335    -1.350152895800     0.015317115390    12.000000000000
         C           -2.428355363665    -0.348533595800    -0.016150984610    12.000000000000
         C           -3.593041363665     0.619990404200     0.037551015390    12.000000000000
         H           -0.558825363665    -2.346605595800    -0.005178984610     1.007825032230
         H           -1.211101363665     1.292760404200    -0.011923984610     1.007825032230
         H            3.338379636335     0.731496404200     0.014137015390     1.007825032230
         H            1.740851636335    -3.268537595800     0.013631015390     1.007825032230
         H            3.711141636335    -1.736244595800     0.023331015390     1.007825032230
         H           -3.749343363665     0.954239404200     1.067879015390     1.007825032230
         H           -4.487429363665     0.096270404200    -0.299035984610     1.007825032230
         H           -3.427182363665     1.500540404200    -0.589216984610     1.007825032230

  Basis Set: AUG-CC-PVTZ
    Blend: AUG-CC-PVTZ
  Basis Set: (AUG-CC-PVTZ AUX)
    Blend: AUG-CC-PVTZ-JKFIT
	 Reference Energy          =    -896.6064788357367661 [Eh]
	 Singles Energy            =      -0.0000000000000000 [Eh]
	 Same-Spin Energy          =      -0.5339976738307988 [Eh]
	 Opposite-Spin Energy      =      -1.6204566911698757 [Eh]
	 Correlation Energy        =      -2.1544543650006744 [Eh]
	 Total Energy              =    -898.7609332007374405 [Eh]

	 ================> DF-SCS-MP2 Energies <==================
	-----------------------------------------------------------
	 SCS Same-Spin Scale       =       0.3333333333333333 [-]
	 SCS Opposite-Spin Scale   =       1.2000000000000000 [-]
	 SCS Same-Spin Energy      =      -0.1779992246102662 [Eh]
	 SCS Opposite-Spin Energy  =      -1.9445480294038506 [Eh]
	 SCS Correlation Energy    =      -2.1225472540141168 [Eh]
	 SCS Total Energy          =    -898.7290260897508460 [Eh]
	-----------------------------------------------------------

  Dipole Moment: [D]
     X:     0.5937      Y:     1.8676      Z:     0.0889     Total:     1.9617

*** Psi4 exiting successfully. Buy a developer a beer!
