                               Psi4 1.4a3.dev225

  ==> Input File <==

--------------------------------------------------------------------------
#psi4
#
memory 32 gb

molecule  {
0 1
 Cl        1.0239510     2.3134080    -0.0075990
  O       -2.5545530    -1.5411200    -0.0264400
  N       -1.1683820     0.3068610    -0.0163620
  C        0.1096870    -0.2710340    -0.0061280
  C        1.2343910     0.5769770    -0.0015960
  C        0.3284730    -1.6588570    -0.0015270
  C        2.5300300     0.0689490     0.0091910
  C        1.6277130    -2.1636760     0.0089260
  C        2.7309420    -1.3104680     0.0141480
  C       -2.3977350    -0.3210840    -0.0173950
  C       -3.5624210     0.6474400     0.0363070
  H       -0.5282050    -2.3191560    -0.0064230
  H       -1.1804810     1.3202100    -0.0131680
  H        3.3844468     0.7716500     0.0129612
  H        1.7714720    -3.2410880     0.0123870
  H        3.7417620    -1.7087950     0.0220870
  H       -3.7187230     0.9816890     1.0666350
  H       -4.4568090     0.1237200    -0.3002800
  H       -3.3965620     1.5279900    -0.5904610
units angstrom
no_reorient  #important for SAPT in psi4, default
symmetry c1  #important for SAPT in psi4, default
}

set PROPERTIES_ORIGIN ["COM"]
properties('MP2/aug-cc-pvtz', properties = ['dipole'])
--------------------------------------------------------------------------

    Molecular point group: c1
  Charge       = 0
  Multiplicity = 1
  Basis Set: AUG-CC-PVTZ
    Blend: AUG-CC-PVTZ
  Basis Set: (AUG-CC-PVTZ AUX)
    Blend: AUG-CC-PVTZ-JKFIT

    Orbital Energies [Eh]
    ---------------------

    Doubly Occupied:

       1A   -104.856454     2A    -20.535565     3A    -15.613605
       4A    -11.371730     5A    -11.309143     6A    -11.308011
       7A    -11.259231     8A    -11.248382     9A    -11.248372
      10A    -11.244204    11A    -11.239967    12A    -10.580268
      13A     -8.047128    14A     -8.045380    15A     -8.045280
      16A     -1.390627    17A     -1.271371    18A     -1.181784
      19A     -1.125194    20A     -1.044699    21A     -1.008447
      22A     -0.987643    23A     -0.871117    24A     -0.830443
      25A     -0.789005    26A     -0.735700    27A     -0.687852
      28A     -0.676356    29A     -0.636376    30A     -0.633745
      31A     -0.620028    32A     -0.596751    33A     -0.590602
      34A     -0.574862    35A     -0.570458    36A     -0.537846
      37A     -0.528904    38A     -0.513425    39A     -0.479741
      40A     -0.470934    41A     -0.451591    42A     -0.434491
      43A     -0.344673    44A     -0.318922

  @DF-RHF Final Energy:  -896.60628050001446

   => Energetics <=

    Nuclear Repulsion Energy =            656.1542367432105038
    One-Electron Energy =               -2531.8084254665595836
    Two-Electron Energy =                 979.0479082233346162
    Total Energy =                       -896.6062805000144635
  Basis Set: (AUG-CC-PVTZ AUX)
    Blend: AUG-CC-PVTZ-RI
    Molecular point group: c1

    Geometry (in Angstrom), charge = 0, multiplicity = 1:

       Center              X                  Y                   Z               Mass
    ------------   -----------------  -----------------  -----------------  -----------------
         CL           0.992115375433     2.285014030204    -0.006360708664    34.968852682000
         O           -2.586388624567    -1.569513969796    -0.025201708664    15.994914619570
         N           -1.200217624567     0.278467030204    -0.015123708664    14.003074004430
         C            0.077851375433    -0.299427969796    -0.004889708664    12.000000000000
         C            1.202555375433     0.548583030204    -0.000357708664    12.000000000000
         C            0.296637375433    -1.687250969796    -0.000288708664    12.000000000000
         C            2.498194375433     0.040555030204     0.010429291336    12.000000000000
         C            1.595877375433    -2.192069969796     0.010164291336    12.000000000000
         C            2.699106375433    -1.338861969796     0.015386291336    12.000000000000
         C           -2.429570624567    -0.349477969796    -0.016156708664    12.000000000000
         C           -3.594256624567     0.619046030204     0.037545291336    12.000000000000
         H           -0.560040624567    -2.347549969796    -0.005184708664     1.007825032230
         H           -1.212316624567     1.291816030204    -0.011929708664     1.007825032230
         H            3.352611175433     0.743256030204     0.014199491336     1.007825032230
         H            1.739636375433    -3.269481969796     0.013625291336     1.007825032230
         H            3.709926375433    -1.737188969796     0.023325291336     1.007825032230
         H           -3.750558624567     0.953295030204     1.067873291336     1.007825032230
         H           -4.488644624567     0.095326030204    -0.299041708664     1.007825032230
         H           -3.428397624567     1.499596030204    -0.589222708664     1.007825032230

  Basis Set: AUG-CC-PVTZ
    Blend: AUG-CC-PVTZ
  Basis Set: (AUG-CC-PVTZ AUX)
    Blend: AUG-CC-PVTZ-JKFIT
	 Reference Energy          =    -896.6062805000144635 [Eh]
	 Singles Energy            =      -0.0000000000000000 [Eh]
	 Same-Spin Energy          =      -0.5340078361760561 [Eh]
	 Opposite-Spin Energy      =      -1.6206123505228534 [Eh]
	 Correlation Energy        =      -2.1546201866989092 [Eh]
	 Total Energy              =    -898.7609006867133985 [Eh]

	 ================> DF-SCS-MP2 Energies <==================
	-----------------------------------------------------------
	 SCS Same-Spin Scale       =       0.3333333333333333 [-]
	 SCS Opposite-Spin Scale   =       1.2000000000000000 [-]
	 SCS Same-Spin Energy      =      -0.1780026120586853 [Eh]
	 SCS Opposite-Spin Energy  =      -1.9447348206274240 [Eh]
	 SCS Correlation Energy    =      -2.1227374326861095 [Eh]
	 SCS Total Energy          =    -898.7290179327005717 [Eh]
	-----------------------------------------------------------

  Dipole Moment: [D]
     X:     0.5897      Y:     1.8636      Z:     0.0889     Total:     1.9567

*** Psi4 exiting successfully. Buy a developer a beer!
