                               Psi4 1.4a3.dev225

  ==> Input File <==

--------------------------------------------------------------------------
#psi4
#
memory 32 gb

molecule  {
0 1
 Cl        1.0239510     2.3134080    -0.0075990
  O       -2.5545530    -1.5411200    -0.0264400
  N       -1.1683820     0.3068610    -0.0163620
  C        0.1096870    -0.2710340    -0.0061280
  C        1.2343910     0.5769770    -0.0015960
  C        0.3284730    -1.6588570    -0.0015270
  C        2.5300300     0.0689490     0.0091910
  C        1.6277130    -2.1636760     0.0089260
  C        2.7309420    -1.3104680     0.0141480
  C       -2.3977350    -0.3210840    -0.0173950
  C       -3.5624210     0.6474400     0.0363070
  H       -0.5282050    -2.3191560    -0.0064230
  H       -1.1804810     1.3202100    -0.0131680
  H        3.3690000     0.7589460     0.0128930
  H        1.7714720    -3.2410880     0.0123870
  H        3.7417620    -1.7087950     0.0220870
  H       -3.7208456     0.9634921     1.0720392
  H       -4.4568090     0.1237200    -0.3002800
  H       -3.3965620     1.5279900    -0.5904610
units angstrom
no_reorient  #important for SAPT in psi4, default
symmetry c1  #important for SAPT in psi4, default
}

set PROPERTIES_ORIGIN ["COM"]
properties('MP2/aug-cc-pvtz', properties = ['dipole'])
--------------------------------------------------------------------------

    Molecular point group: c1
  Charge       = 0
  Multiplicity = 1
  Basis Set: AUG-CC-PVTZ
    Blend: AUG-CC-PVTZ
  Basis Set: (AUG-CC-PVTZ AUX)
    Blend: AUG-CC-PVTZ-JKFIT

    Orbital Energies [Eh]
    ---------------------

    Doubly Occupied:

       1A   -104.856473     2A    -20.535393     3A    -15.613548
       4A    -11.371557     5A    -11.309007     6A    -11.307875
       7A    -11.257006     8A    -11.248361     9A    -11.248265
      10A    -11.244061    11A    -11.239918    12A    -10.580287
      13A     -8.047148    14A     -8.045401    15A     -8.045301
      16A     -1.390513    17A     -1.271299    18A     -1.181866
      19A     -1.125156    20A     -1.044911    21A     -1.008909
      22A     -0.987604    23A     -0.871483    24A     -0.830611
      25A     -0.789810    26A     -0.735964    27A     -0.688020
      28A     -0.676317    29A     -0.636133    30A     -0.634320
      31A     -0.621777    32A     -0.596889    33A     -0.590951
      34A     -0.575391    35A     -0.570193    36A     -0.538353
      37A     -0.529021    38A     -0.513909    39A     -0.479709
      40A     -0.470918    41A     -0.451503    42A     -0.434242
      43A     -0.344608    44A     -0.318849

  @DF-RHF Final Energy:  -896.60693917315973

   => Energetics <=

    Nuclear Repulsion Energy =            656.2696359467572620
    One-Electron Energy =               -2532.0354969705244912
    Two-Electron Energy =                 979.1589218506074985
    Total Energy =                       -896.6069391731597307
  Basis Set: (AUG-CC-PVTZ AUX)
    Blend: AUG-CC-PVTZ-RI
    Molecular point group: c1

    Geometry (in Angstrom), charge = 0, multiplicity = 1:

       Center              X                  Y                   Z               Mass
    ------------   -----------------  -----------------  -----------------  -----------------
         CL           0.992220131627     2.285198274441    -0.006392524154    34.968852682000
         O           -2.586283868373    -1.569329725559    -0.025233524154    15.994914619570
         N           -1.200112868373     0.278651274441    -0.015155524154    14.003074004430
         C            0.077956131627    -0.299243725559    -0.004921524154    12.000000000000
         C            1.202660131627     0.548767274441    -0.000389524154    12.000000000000
         C            0.296742131627    -1.687066725559    -0.000320524154    12.000000000000
         C            2.498299131627     0.040739274441     0.010397475846    12.000000000000
         C            1.595982131627    -2.191885725559     0.010132475846    12.000000000000
         C            2.699211131627    -1.338677725559     0.015354475846    12.000000000000
         C           -2.429465868373    -0.349293725559    -0.016188524154    12.000000000000
         C           -3.594151868373     0.619230274441     0.037513475846    12.000000000000
         H           -0.559935868373    -2.347365725559    -0.005216524154     1.007825032230
         H           -1.212211868373     1.292000274441    -0.011961524154     1.007825032230
         H            3.337269131627     0.730736274441     0.014099475846     1.007825032230
         H            1.739741131627    -3.269297725559     0.013593475846     1.007825032230
         H            3.710031131627    -1.737004725559     0.023293475846     1.007825032230
         H           -3.752576468373     0.935282374441     1.073245675846     1.007825032230
         H           -4.488539868373     0.095510274441    -0.299073524154     1.007825032230
         H           -3.428292868373     1.499780274441    -0.589254524154     1.007825032230

  Basis Set: AUG-CC-PVTZ
    Blend: AUG-CC-PVTZ
  Basis Set: (AUG-CC-PVTZ AUX)
    Blend: AUG-CC-PVTZ-JKFIT
	 Reference Energy          =    -896.6069391731597307 [Eh]
	 Singles Energy            =      -0.0000000000000000 [Eh]
	 Same-Spin Energy          =      -0.5339588737985248 [Eh]
	 Opposite-Spin Energy      =      -1.6204586392167937 [Eh]
	 Correlation Energy        =      -2.1544175130153187 [Eh]
	 Total Energy              =    -898.7613566861750769 [Eh]

	 ================> DF-SCS-MP2 Energies <==================
	-----------------------------------------------------------
	 SCS Same-Spin Scale       =       0.3333333333333333 [-]
	 SCS Opposite-Spin Scale   =       1.2000000000000000 [-]
	 SCS Same-Spin Energy      =      -0.1779862912661749 [Eh]
	 SCS Opposite-Spin Energy  =      -1.9445503670601523 [Eh]
	 SCS Correlation Energy    =      -2.1225366583263270 [Eh]
	 SCS Total Energy          =    -898.7294758314860701 [Eh]
	-----------------------------------------------------------

  Dipole Moment: [D]
     X:     0.5892      Y:     1.8592      Z:     0.0896     Total:     1.9524

*** Psi4 exiting successfully. Buy a developer a beer!
