                               Psi4 1.4a3.dev225

  ==> Input File <==

--------------------------------------------------------------------------
#psi4
#
memory 32 gb

molecule  {
0 1
 Cl        1.0239510     2.3134080    -0.0075990
  O       -2.5545530    -1.5411200    -0.0264400
  N       -1.1877719     0.2619037    -0.0163985
  C        0.1096870    -0.2710340    -0.0061280
  C        1.2343910     0.5769770    -0.0015960
  C        0.3284730    -1.6588570    -0.0015270
  C        2.5300300     0.0689490     0.0091910
  C        1.6277130    -2.1636760     0.0089260
  C        2.7309420    -1.3104680     0.0141480
  C       -2.3977350    -0.3210840    -0.0173950
  C       -3.5624210     0.6474400     0.0363070
  H       -0.5282050    -2.3191560    -0.0064230
  H       -1.1804810     1.3202100    -0.0131680
  H        3.3690000     0.7589460     0.0128930
  H        1.7714720    -3.2410880     0.0123870
  H        3.7417620    -1.7087950     0.0220870
  H       -3.7187230     0.9816890     1.0666350
  H       -4.4568090     0.1237200    -0.3002800
  H       -3.3965620     1.5279900    -0.5904610
units angstrom
no_reorient  #important for SAPT in psi4, default
symmetry c1  #important for SAPT in psi4, default
}

set PROPERTIES_ORIGIN ["COM"]
properties('MP2/aug-cc-pvtz', properties = ['dipole'])
--------------------------------------------------------------------------

    Molecular point group: c1
  Charge       = 0
  Multiplicity = 1
  Basis Set: AUG-CC-PVTZ
    Blend: AUG-CC-PVTZ
  Basis Set: (AUG-CC-PVTZ AUX)
    Blend: AUG-CC-PVTZ-JKFIT

    Orbital Energies [Eh]
    ---------------------

    Doubly Occupied:

       1A   -104.858238     2A    -20.527222     3A    -15.616795
       4A    -11.365221     5A    -11.311583     6A    -11.309771
       7A    -11.258465     8A    -11.248782     9A    -11.247189
      10A    -11.245680    11A    -11.240301    12A    -10.582023
      13A     -8.048883    14A     -8.047134    15A     -8.047030
      16A     -1.389829    17A     -1.271058    18A     -1.184632
      19A     -1.126387    20A     -1.046918    21A     -1.009258
      22A     -0.988151    23A     -0.876238    24A     -0.832362
      25A     -0.787864    26A     -0.730839    27A     -0.687049
      28A     -0.678106    29A     -0.637172    30A     -0.636100
      31A     -0.622059    32A     -0.594325    33A     -0.586318
      34A     -0.575305    35A     -0.570503    36A     -0.538816
      37A     -0.530737    38A     -0.513885    39A     -0.480155
      40A     -0.472119    41A     -0.448472    42A     -0.431373
      43A     -0.345587    44A     -0.320678

  @DF-RHF Final Energy:  -896.60329354213036

   => Energetics <=

    Nuclear Repulsion Energy =            656.5733765810171008
    One-Electron Energy =               -2532.6201147352444423
    Two-Electron Energy =                 979.4434446120969824
    Total Energy =                       -896.6032935421303591
  Basis Set: (AUG-CC-PVTZ AUX)
    Blend: AUG-CC-PVTZ-RI
    Molecular point group: c1

    Geometry (in Angstrom), charge = 0, multiplicity = 1:

       Center              X                  Y                   Z               Mass
    ------------   -----------------  -----------------  -----------------  -----------------
         CL           0.993813812543     2.288814219107    -0.006357278221    34.968852682000
         O           -2.584690187457    -1.565713780893    -0.025198278221    15.994914619570
         N           -1.217909087457     0.237309919107    -0.015156778221    14.003074004430
         C            0.079549812543    -0.295627780893    -0.004886278221    12.000000000000
         C            1.204253812543     0.552383219107    -0.000354278221    12.000000000000
         C            0.298335812543    -1.683450780893    -0.000285278221    12.000000000000
         C            2.499892812543     0.044355219107     0.010432721779    12.000000000000
         C            1.597575812543    -2.188269780893     0.010167721779    12.000000000000
         C            2.700804812543    -1.335061780893     0.015389721779    12.000000000000
         C           -2.427872187457    -0.345677780893    -0.016153278221    12.000000000000
         C           -3.592558187457     0.622846219107     0.037548721779    12.000000000000
         H           -0.558342187457    -2.343749780893    -0.005181278221     1.007825032230
         H           -1.210618187457     1.295616219107    -0.011926278221     1.007825032230
         H            3.338862812543     0.734352219107     0.014134721779     1.007825032230
         H            1.741334812543    -3.265681780893     0.013628721779     1.007825032230
         H            3.711624812543    -1.733388780893     0.023328721779     1.007825032230
         H           -3.748860187457     0.957095219107     1.067876721779     1.007825032230
         H           -4.486946187457     0.099126219107    -0.299038278221     1.007825032230
         H           -3.426699187457     1.503396219107    -0.589219278221     1.007825032230

  Basis Set: AUG-CC-PVTZ
    Blend: AUG-CC-PVTZ
  Basis Set: (AUG-CC-PVTZ AUX)
    Blend: AUG-CC-PVTZ-JKFIT
	 Reference Energy          =    -896.6032935421303591 [Eh]
	 Singles Energy            =      -0.0000000000000000 [Eh]
	 Same-Spin Energy          =      -0.5342646216645702 [Eh]
	 Opposite-Spin Energy      =      -1.6207918537641022 [Eh]
	 Correlation Energy        =      -2.1550564754286725 [Eh]
	 Total Energy              =    -898.7583500175589961 [Eh]

	 ================> DF-SCS-MP2 Energies <==================
	-----------------------------------------------------------
	 SCS Same-Spin Scale       =       0.3333333333333333 [-]
	 SCS Opposite-Spin Scale   =       1.2000000000000000 [-]
	 SCS Same-Spin Energy      =      -0.1780882072215234 [Eh]
	 SCS Opposite-Spin Energy  =      -1.9449502245169226 [Eh]
	 SCS Correlation Energy    =      -2.1230384317384461 [Eh]
	 SCS Total Energy          =    -898.7263319738688097 [Eh]
	-----------------------------------------------------------

  Dipole Moment: [D]
     X:     0.8343      Y:     1.9743      Z:     0.0885     Total:     2.1452

*** Psi4 exiting successfully. Buy a developer a beer!
