                               Psi4 1.4a3.dev225

  ==> Input File <==

--------------------------------------------------------------------------
#psi4
#
memory 32 gb

molecule  {
0 1
 Cl        1.0239510     2.3134080    -0.0075990
  O       -2.5545530    -1.5411200    -0.0264400
  N       -1.1683820     0.3068610    -0.0163620
  C        0.1096870    -0.2710340    -0.0061280
  C        1.2343910     0.5769770    -0.0015960
  C        0.3284730    -1.6588570    -0.0015270
  C        2.5300300     0.0689490     0.0091910
  C        1.7229373    -2.2743215     0.0098694
  C        2.7309420    -1.3104680     0.0141480
  C       -2.3977350    -0.3210840    -0.0173950
  C       -3.5624210     0.6474400     0.0363070
  H       -0.5282050    -2.3191560    -0.0064230
  H       -1.1804810     1.3202100    -0.0131680
  H        3.3690000     0.7589460     0.0128930
  H        1.7714720    -3.2410880     0.0123870
  H        3.7417620    -1.7087950     0.0220870
  H       -3.7187230     0.9816890     1.0666350
  H       -4.4568090     0.1237200    -0.3002800
  H       -3.3965620     1.5279900    -0.5904610
units angstrom
no_reorient  #important for SAPT in psi4, default
symmetry c1  #important for SAPT in psi4, default
}

set PROPERTIES_ORIGIN ["COM"]
properties('MP2/aug-cc-pvtz', properties = ['dipole'])
--------------------------------------------------------------------------

    Molecular point group: c1
  Charge       = 0
  Multiplicity = 1
  Basis Set: AUG-CC-PVTZ
    Blend: AUG-CC-PVTZ
  Basis Set: (AUG-CC-PVTZ AUX)
    Blend: AUG-CC-PVTZ-JKFIT

    Orbital Energies [Eh]
    ---------------------

    Doubly Occupied:

       1A   -104.858544     2A    -20.534260     3A    -15.612382
       4A    -11.370339     5A    -11.313586     6A    -11.306857
       7A    -11.258192     8A    -11.253053     9A    -11.251763
      10A    -11.247970    11A    -11.247543    12A    -10.582359
      13A     -8.049214    14A     -8.047455    15A     -8.047369
      16A     -1.389235    17A     -1.270008    18A     -1.180561
      19A     -1.117355    20A     -1.044278    21A     -1.001072
      22A     -0.990522    23A     -0.869598    24A     -0.837973
      25A     -0.787530    26A     -0.745354    27A     -0.688382
      28A     -0.670688    29A     -0.644597    30A     -0.632760
      31A     -0.630118    32A     -0.596977    33A     -0.592975
      34A     -0.573116    35A     -0.568516    36A     -0.533599
      37A     -0.528482    38A     -0.512804    39A     -0.476379
      40A     -0.470328    41A     -0.449465    42A     -0.431544
      43A     -0.333249    44A     -0.322699

  @DF-RHF Final Energy:  -896.57758755301893

   => Energetics <=

    Nuclear Repulsion Energy =            653.5141421339282033
    One-Electron Energy =               -2526.4413575917278649
    Two-Electron Energy =                 976.3496279047808457
    Total Energy =                       -896.5775875530189296
  Basis Set: (AUG-CC-PVTZ AUX)
    Blend: AUG-CC-PVTZ-RI
    Molecular point group: c1

    Geometry (in Angstrom), charge = 0, multiplicity = 1:

       Center              X                  Y                   Z               Mass
    ------------   -----------------  -----------------  -----------------  -----------------
         CL           0.985447164748     2.292944893590    -0.006427277342    34.968852682000
         O           -2.593056835252    -1.561583106410    -0.025268277342    15.994914619570
         N           -1.206885835252     0.286397893590    -0.015190277342    14.003074004430
         C            0.071183164748    -0.291497106410    -0.004956277342    12.000000000000
         C            1.195887164748     0.556513893590    -0.000424277342    12.000000000000
         C            0.289969164748    -1.679320106410    -0.000355277342    12.000000000000
         C            2.491526164748     0.048485893590     0.010362722658    12.000000000000
         C            1.684433464748    -2.294784606410     0.011041122658    12.000000000000
         C            2.692438164748    -1.330931106410     0.015319722658    12.000000000000
         C           -2.436238835252    -0.341547106410    -0.016223277342    12.000000000000
         C           -3.600924835252     0.626976893590     0.037478722658    12.000000000000
         H           -0.566708835252    -2.339619106410    -0.005251277342     1.007825032230
         H           -1.218984835252     1.299746893590    -0.011996277342     1.007825032230
         H            3.330496164748     0.738482893590     0.014064722658     1.007825032230
         H            1.732968164748    -3.261551106410     0.013558722658     1.007825032230
         H            3.703258164748    -1.729258106410     0.023258722658     1.007825032230
         H           -3.757226835252     0.961225893590     1.067806722658     1.007825032230
         H           -4.495312835252     0.103256893590    -0.299108277342     1.007825032230
         H           -3.435065835252     1.507526893590    -0.589289277342     1.007825032230

  Basis Set: AUG-CC-PVTZ
    Blend: AUG-CC-PVTZ
  Basis Set: (AUG-CC-PVTZ AUX)
    Blend: AUG-CC-PVTZ-JKFIT
	 Reference Energy          =    -896.5775875530189296 [Eh]
	 Singles Energy            =      -0.0000000000000000 [Eh]
	 Same-Spin Energy          =      -0.5342730973778334 [Eh]
	 Opposite-Spin Energy      =      -1.6229632651871102 [Eh]
	 Correlation Energy        =      -2.1572363625649436 [Eh]
	 Total Energy              =    -898.7348239155838883 [Eh]

	 ================> DF-SCS-MP2 Energies <==================
	-----------------------------------------------------------
	 SCS Same-Spin Scale       =       0.3333333333333333 [-]
	 SCS Opposite-Spin Scale   =       1.2000000000000000 [-]
	 SCS Same-Spin Energy      =      -0.1780910324592778 [Eh]
	 SCS Opposite-Spin Energy  =      -1.9475559182245321 [Eh]
	 SCS Correlation Energy    =      -2.1256469506838100 [Eh]
	 SCS Total Energy          =    -898.7032345037027881 [Eh]
	-----------------------------------------------------------

  Dipole Moment: [D]
     X:     0.6017      Y:     1.8714      Z:     0.0885     Total:     1.9678

*** Psi4 exiting successfully. Buy a developer a beer!
