                               Psi4 1.4a3.dev225

  ==> Input File <==

--------------------------------------------------------------------------
#psi4
#
memory 32 gb

molecule  {
0 1
 Cl        1.0239510     2.3134080    -0.0075990
  O       -2.5545530    -1.5411200    -0.0264400
  N       -1.1683820     0.3068610    -0.0163620
  C        0.1096870    -0.2710340    -0.0061280
  C        1.2529106     0.6218861    -0.0015736
  C        0.3284730    -1.6588570    -0.0015270
  C        2.5300300     0.0689490     0.0091910
  C        1.6277130    -2.1636760     0.0089260
  C        2.7309420    -1.3104680     0.0141480
  C       -2.3977350    -0.3210840    -0.0173950
  C       -3.5624210     0.6474400     0.0363070
  H       -0.5282050    -2.3191560    -0.0064230
  H       -1.1804810     1.3202100    -0.0131680
  H        3.3690000     0.7589460     0.0128930
  H        1.7714720    -3.2410880     0.0123870
  H        3.7417620    -1.7087950     0.0220870
  H       -3.7187230     0.9816890     1.0666350
  H       -4.4568090     0.1237200    -0.3002800
  H       -3.3965620     1.5279900    -0.5904610
units angstrom
no_reorient  #important for SAPT in psi4, default
symmetry c1  #important for SAPT in psi4, default
}

set PROPERTIES_ORIGIN ["COM"]
properties('MP2/aug-cc-pvtz', properties = ['dipole'])
--------------------------------------------------------------------------

    Molecular point group: c1
  Charge       = 0
  Multiplicity = 1
  Basis Set: AUG-CC-PVTZ
    Blend: AUG-CC-PVTZ
  Basis Set: (AUG-CC-PVTZ AUX)
    Blend: AUG-CC-PVTZ-JKFIT

    Orbital Energies [Eh]
    ---------------------

    Doubly Occupied:

       1A   -104.860801     2A    -20.535299     3A    -15.613396
       4A    -11.371211     5A    -11.311290     6A    -11.308810
       7A    -11.255614     8A    -11.248205     9A    -11.247680
      10A    -11.242357    11A    -11.238018    12A    -10.585181
      13A     -8.052150    14A     -8.050260    15A     -8.050160
      16A     -1.390191    17A     -1.270035    18A     -1.186776
      19A     -1.128199    20A     -1.042461    21A     -1.008549
      22A     -0.983120    23A     -0.869213    24A     -0.829484
      25A     -0.786679    26A     -0.735356    27A     -0.687278
      28A     -0.676894    29A     -0.635000    30A     -0.633047
      31A     -0.619200    32A     -0.596912    33A     -0.595419
      34A     -0.573916    35A     -0.569795    36A     -0.538823
      37A     -0.531091    38A     -0.515301    39A     -0.481539
      40A     -0.472269    41A     -0.450705    42A     -0.433578
      43A     -0.343530    44A     -0.313241

  @DF-RHF Final Energy:  -896.60331777218835

   => Energetics <=

    Nuclear Repulsion Energy =            656.0813489760558923
    One-Electron Energy =               -2531.6332661623814602
    Two-Electron Energy =                 978.9485994141373340
    Total Energy =                       -896.6033177721883476
  Basis Set: (AUG-CC-PVTZ AUX)
    Blend: AUG-CC-PVTZ-RI
    Molecular point group: c1

    Geometry (in Angstrom), charge = 0, multiplicity = 1:

       Center              X                  Y                   Z               Mass
    ------------   -----------------  -----------------  -----------------  -----------------
         CL           0.990892703652     2.281901520419    -0.006361892283    34.968852682000
         O           -2.587611296348    -1.572626479581    -0.025202892283    15.994914619570
         N           -1.201440296348     0.275354520419    -0.015124892283    14.003074004430
         C            0.076628703652    -0.302540479581    -0.004890892283    12.000000000000
         C            1.219852303652     0.590379620419    -0.000336492283    12.000000000000
         C            0.295414703652    -1.690363479581    -0.000289892283    12.000000000000
         C            2.496971703652     0.037442520419     0.010428107717    12.000000000000
         C            1.594654703652    -2.195182479581     0.010163107717    12.000000000000
         C            2.697883703652    -1.341974479581     0.015385107717    12.000000000000
         C           -2.430793296348    -0.352590479581    -0.016157892283    12.000000000000
         C           -3.595479296348     0.615933520419     0.037544107717    12.000000000000
         H           -0.561263296348    -2.350662479581    -0.005185892283     1.007825032230
         H           -1.213539296348     1.288703520419    -0.011930892283     1.007825032230
         H            3.335941703652     0.727439520419     0.014130107717     1.007825032230
         H            1.738413703652    -3.272594479581     0.013624107717     1.007825032230
         H            3.708703703652    -1.740301479581     0.023324107717     1.007825032230
         H           -3.751781296348     0.950182520419     1.067872107717     1.007825032230
         H           -4.489867296348     0.092213520419    -0.299042892283     1.007825032230
         H           -3.429620296348     1.496483520419    -0.589223892283     1.007825032230

  Basis Set: AUG-CC-PVTZ
    Blend: AUG-CC-PVTZ
  Basis Set: (AUG-CC-PVTZ AUX)
    Blend: AUG-CC-PVTZ-JKFIT
	 Reference Energy          =    -896.6033177721883476 [Eh]
	 Singles Energy            =      -0.0000000000000000 [Eh]
	 Same-Spin Energy          =      -0.5344734816836726 [Eh]
	 Opposite-Spin Energy      =      -1.6211777031305030 [Eh]
	 Correlation Energy        =      -2.1556511848141757 [Eh]
	 Total Energy              =    -898.7589689570024802 [Eh]

	 ================> DF-SCS-MP2 Energies <==================
	-----------------------------------------------------------
	 SCS Same-Spin Scale       =       0.3333333333333333 [-]
	 SCS Opposite-Spin Scale   =       1.2000000000000000 [-]
	 SCS Same-Spin Energy      =      -0.1781578272278909 [Eh]
	 SCS Opposite-Spin Energy  =      -1.9454132437566036 [Eh]
	 SCS Correlation Energy    =      -2.1235710709844944 [Eh]
	 SCS Total Energy          =    -898.7268888431727873 [Eh]
	-----------------------------------------------------------

  Dipole Moment: [D]
     X:     0.5565      Y:     2.0626      Z:     0.0878     Total:     2.1382

*** Psi4 exiting successfully. Buy a developer a beer!
