                               Psi4 1.4a3.dev225

  ==> Input File <==

--------------------------------------------------------------------------
#psi4
#
memory 32 gb

molecule  {
0 1
 Cl        1.0239510     2.3134080    -0.0075990
  O       -2.5545530    -1.5411200    -0.0264400
  N       -1.1683820     0.3068610    -0.0163620
  C        0.1096870    -0.2710340    -0.0061280
  C        1.2343910     0.5769770    -0.0015960
  C        0.3596176    -1.8564161    -0.0008720
  C        2.5300300     0.0689490     0.0091910
  C        1.6277130    -2.1636760     0.0089260
  C        2.7309420    -1.3104680     0.0141480
  C       -2.3977350    -0.3210840    -0.0173950
  C       -3.5624210     0.6474400     0.0363070
  H       -0.5282050    -2.3191560    -0.0064230
  H       -1.1804810     1.3202100    -0.0131680
  H        3.3690000     0.7589460     0.0128930
  H        1.7714720    -3.2410880     0.0123870
  H        3.7417620    -1.7087950     0.0220870
  H       -3.7187230     0.9816890     1.0666350
  H       -4.4568090     0.1237200    -0.3002800
  H       -3.3965620     1.5279900    -0.5904610
units angstrom
no_reorient  #important for SAPT in psi4, default
symmetry c1  #important for SAPT in psi4, default
}

set PROPERTIES_ORIGIN ["COM"]
properties('MP2/aug-cc-pvtz', properties = ['dipole'])
--------------------------------------------------------------------------

    Molecular point group: c1
  Charge       = 0
  Multiplicity = 1
  Basis Set: AUG-CC-PVTZ
    Blend: AUG-CC-PVTZ
  Basis Set: (AUG-CC-PVTZ AUX)
    Blend: AUG-CC-PVTZ-JKFIT

    Orbital Energies [Eh]
    ---------------------

    Doubly Occupied:

       1A   -104.854422     2A    -20.539664     3A    -15.618497
       4A    -11.374789     5A    -11.322602     6A    -11.303415
       7A    -11.258817     8A    -11.250447     9A    -11.247577
      10A    -11.243386    11A    -11.238718    12A    -10.578261
      13A     -8.045123    14A     -8.043390    15A     -8.043274
      16A     -1.393835    17A     -1.270202    18A     -1.179490
      19A     -1.125553    20A     -1.038351    21A     -1.023453
      22A     -0.978702    23A     -0.878014    24A     -0.821509
      25A     -0.794266    26A     -0.731497    27A     -0.696521
      28A     -0.690940    29A     -0.642112    30A     -0.634816
      31A     -0.615067    32A     -0.599921    33A     -0.589395
      34A     -0.571761    35A     -0.570874    36A     -0.553399
      37A     -0.529548    38A     -0.479670    39A     -0.478743
      40A     -0.470667    41A     -0.456494    42A     -0.441134
      43A     -0.359478    44A     -0.304086

  @DF-RHF Final Energy:  -896.56681049856184

   => Energetics <=

    Nuclear Repulsion Energy =            653.2637228867583872
    One-Electron Energy =               -2525.8973101291594503
    Two-Electron Energy =                 976.0667767438392275
    Total Energy =                       -896.5668104985618356
  Basis Set: (AUG-CC-PVTZ AUX)
    Blend: AUG-CC-PVTZ-RI
    Molecular point group: c1

    Geometry (in Angstrom), charge = 0, multiplicity = 1:

       Center              X                  Y                   Z               Mass
    ------------   -----------------  -----------------  -----------------  -----------------
         CL           0.989996410092     2.299115198540    -0.006406802802    34.968852682000
         O           -2.588507589908    -1.555412801460    -0.025247802802    15.994914619570
         N           -1.202336589908     0.292568198540    -0.015169802802    14.003074004430
         C            0.075732410092    -0.285326801460    -0.004935802802    12.000000000000
         C            1.200436410092     0.562684198540    -0.000403802802    12.000000000000
         C            0.325663010092    -1.870708901460     0.000320197198    12.000000000000
         C            2.496075410092     0.054656198540     0.010383197198    12.000000000000
         C            1.593758410092    -2.177968801460     0.010118197198    12.000000000000
         C            2.696987410092    -1.324760801460     0.015340197198    12.000000000000
         C           -2.431689589908    -0.335376801460    -0.016202802802    12.000000000000
         C           -3.596375589908     0.633147198540     0.037499197198    12.000000000000
         H           -0.562159589908    -2.333448801460    -0.005230802802     1.007825032230
         H           -1.214435589908     1.305917198540    -0.011975802802     1.007825032230
         H            3.335045410092     0.744653198540     0.014085197198     1.007825032230
         H            1.737517410092    -3.255380801460     0.013579197198     1.007825032230
         H            3.707807410092    -1.723087801460     0.023279197198     1.007825032230
         H           -3.752677589908     0.967396198540     1.067827197198     1.007825032230
         H           -4.490763589908     0.109427198540    -0.299087802802     1.007825032230
         H           -3.430516589908     1.513697198540    -0.589268802802     1.007825032230

  Basis Set: AUG-CC-PVTZ
    Blend: AUG-CC-PVTZ
  Basis Set: (AUG-CC-PVTZ AUX)
    Blend: AUG-CC-PVTZ-JKFIT
	 Reference Energy          =    -896.5668104985618356 [Eh]
	 Singles Energy            =      -0.0000000000000000 [Eh]
	 Same-Spin Energy          =      -0.5334186297797290 [Eh]
	 Opposite-Spin Energy      =      -1.6223092050848900 [Eh]
	 Correlation Energy        =      -2.1557278348646189 [Eh]
	 Total Energy              =    -898.7225383334264279 [Eh]

	 ================> DF-SCS-MP2 Energies <==================
	-----------------------------------------------------------
	 SCS Same-Spin Scale       =       0.3333333333333333 [-]
	 SCS Opposite-Spin Scale   =       1.2000000000000000 [-]
	 SCS Same-Spin Energy      =      -0.1778062099265763 [Eh]
	 SCS Opposite-Spin Energy  =      -1.9467710461018679 [Eh]
	 SCS Correlation Energy    =      -2.1245772560284442 [Eh]
	 SCS Total Energy          =    -898.6913877545903233 [Eh]
	-----------------------------------------------------------

  Dipole Moment: [D]
     X:     0.4838      Y:     1.8494      Z:     0.0891     Total:     1.9137

*** Psi4 exiting successfully. Buy a developer a beer!
