                               Psi4 1.4a3.dev225

  ==> Input File <==

--------------------------------------------------------------------------
#psi4
#
memory 32 gb

molecule  {
0 1
 Cl        1.0239510     2.3134080    -0.0075990
  O       -2.5545530    -1.5411200    -0.0264400
  N       -1.1683820     0.3068610    -0.0163620
  C        0.1096870    -0.2710340    -0.0061280
  C        1.2343910     0.5769770    -0.0015960
  C        0.3284730    -1.6588570    -0.0015270
  C        2.5300300     0.0689490     0.0091910
  C        1.6277130    -2.1636760     0.0089260
  C        2.7309420    -1.3104680     0.0141480
  C       -2.3977350    -0.3210840    -0.0173950
  C       -3.5624210     0.6474400     0.0363070
  H       -0.5678064    -2.3496794    -0.0066493
  H       -1.1804810     1.3202100    -0.0131680
  H        3.3690000     0.7589460     0.0128930
  H        1.7714720    -3.2410880     0.0123870
  H        3.7417620    -1.7087950     0.0220870
  H       -3.7187230     0.9816890     1.0666350
  H       -4.4568090     0.1237200    -0.3002800
  H       -3.3965620     1.5279900    -0.5904610
units angstrom
no_reorient  #important for SAPT in psi4, default
symmetry c1  #important for SAPT in psi4, default
}

set PROPERTIES_ORIGIN ["COM"]
properties('MP2/aug-cc-pvtz', properties = ['dipole'])
--------------------------------------------------------------------------

    Molecular point group: c1
  Charge       = 0
  Multiplicity = 1
  Basis Set: AUG-CC-PVTZ
    Blend: AUG-CC-PVTZ
  Basis Set: (AUG-CC-PVTZ AUX)
    Blend: AUG-CC-PVTZ-JKFIT

    Orbital Energies [Eh]
    ---------------------

    Doubly Occupied:

       1A   -104.856501     2A    -20.535589     3A    -15.613581
       4A    -11.371890     5A    -11.309079     6A    -11.307945
       7A    -11.256838     8A    -11.248432     9A    -11.248230
      10A    -11.244400    11A    -11.244023    12A    -10.580314
      13A     -8.047175    14A     -8.045427    15A     -8.045326
      16A     -1.390816    17A     -1.271313    18A     -1.181838
      19A     -1.124778    20A     -1.044544    21A     -1.007727
      22A     -0.987597    23A     -0.869989    24A     -0.829881
      25A     -0.788649    26A     -0.735964    27A     -0.688656
      28A     -0.673273    29A     -0.636287    30A     -0.633793
      31A     -0.618233    32A     -0.596634    33A     -0.589441
      34A     -0.574824    35A     -0.570122    36A     -0.537317
      37A     -0.528958    38A     -0.512139    39A     -0.479721
      40A     -0.470794    41A     -0.451615    42A     -0.433081
      43A     -0.344402    44A     -0.318838

  @DF-RHF Final Energy:  -896.60425679699267

   => Energetics <=

    Nuclear Repulsion Energy =            656.0351681587379744
    One-Electron Energy =               -2531.5869084293640299
    Two-Electron Energy =                 978.9474834736332696
    Total Energy =                       -896.6042567969926722
  Basis Set: (AUG-CC-PVTZ AUX)
    Blend: AUG-CC-PVTZ-RI
    Molecular point group: c1

    Geometry (in Angstrom), charge = 0, multiplicity = 1:

       Center              X                  Y                   Z               Mass
    ------------   -----------------  -----------------  -----------------  -----------------
         CL           0.992443596087     2.285271770248    -0.006358952731    34.968852682000
         O           -2.586060403913    -1.569256229752    -0.025199952731    15.994914619570
         N           -1.199889403913     0.278724770248    -0.015121952731    14.003074004430
         C            0.078179596087    -0.299170229752    -0.004887952731    12.000000000000
         C            1.202883596087     0.548840770248    -0.000355952731    12.000000000000
         C            0.296965596087    -1.686993229752    -0.000286952731    12.000000000000
         C            2.498522596087     0.040812770248     0.010431047269    12.000000000000
         C            1.596205596087    -2.191812229752     0.010166047269    12.000000000000
         C            2.699434596087    -1.338604229752     0.015388047269    12.000000000000
         C           -2.429242403913    -0.349220229752    -0.016154952731    12.000000000000
         C           -3.593928403913     0.619303770248     0.037547047269    12.000000000000
         H           -0.599313803913    -2.377815629752    -0.005409252731     1.007825032230
         H           -1.211988403913     1.292073770248    -0.011927952731     1.007825032230
         H            3.337492596087     0.730809770248     0.014133047269     1.007825032230
         H            1.739964596087    -3.269224229752     0.013627047269     1.007825032230
         H            3.710254596087    -1.736931229752     0.023327047269     1.007825032230
         H           -3.750230403913     0.953552770248     1.067875047269     1.007825032230
         H           -4.488316403913     0.095583770248    -0.299039952731     1.007825032230
         H           -3.428069403913     1.499853770248    -0.589220952731     1.007825032230

  Basis Set: AUG-CC-PVTZ
    Blend: AUG-CC-PVTZ
  Basis Set: (AUG-CC-PVTZ AUX)
    Blend: AUG-CC-PVTZ-JKFIT
	 Reference Energy          =    -896.6042567969926722 [Eh]
	 Singles Energy            =      -0.0000000000000000 [Eh]
	 Same-Spin Energy          =      -0.5342057503015323 [Eh]
	 Opposite-Spin Energy      =      -1.6209647102596478 [Eh]
	 Correlation Energy        =      -2.1551704605611803 [Eh]
	 Total Energy              =    -898.7594272575538525 [Eh]

	 ================> DF-SCS-MP2 Energies <==================
	-----------------------------------------------------------
	 SCS Same-Spin Scale       =       0.3333333333333333 [-]
	 SCS Opposite-Spin Scale   =       1.2000000000000000 [-]
	 SCS Same-Spin Energy      =      -0.1780685834338441 [Eh]
	 SCS Opposite-Spin Energy  =      -1.9451576523115772 [Eh]
	 SCS Correlation Energy    =      -2.1232262357454212 [Eh]
	 SCS Total Energy          =    -898.7274830327380641 [Eh]
	-----------------------------------------------------------

  Dipole Moment: [D]
     X:     0.5647      Y:     1.8607      Z:     0.0887     Total:     1.9465

*** Psi4 exiting successfully. Buy a developer a beer!
