                               Psi4 1.4a3.dev225

  ==> Input File <==

--------------------------------------------------------------------------
#psi4
#
memory 32 gb

molecule  {
0 1
 Cl        1.0239510     2.3134080    -0.0075990
  O       -2.5545530    -1.5411200    -0.0264400
  N       -1.1683820     0.3068610    -0.0163620
  C        0.1096870    -0.2710340    -0.0061280
  C        1.2343910     0.5769770    -0.0015960
  C        0.2973284    -1.4612979    -0.0021820
  C        2.5300300     0.0689490     0.0091910
  C        1.6277130    -2.1636760     0.0089260
  C        2.7309420    -1.3104680     0.0141480
  C       -2.3977350    -0.3210840    -0.0173950
  C       -3.5624210     0.6474400     0.0363070
  H       -0.5282050    -2.3191560    -0.0064230
  H       -1.1804810     1.3202100    -0.0131680
  H        3.3690000     0.7589460     0.0128930
  H        1.7714720    -3.2410880     0.0123870
  H        3.7417620    -1.7087950     0.0220870
  H       -3.7187230     0.9816890     1.0666350
  H       -4.4568090     0.1237200    -0.3002800
  H       -3.3965620     1.5279900    -0.5904610
units angstrom
no_reorient  #important for SAPT in psi4, default
symmetry c1  #important for SAPT in psi4, default
}

set PROPERTIES_ORIGIN ["COM"]
properties('MP2/aug-cc-pvtz', properties = ['dipole'])
--------------------------------------------------------------------------

    Molecular point group: c1
  Charge       = 0
  Multiplicity = 1
  Basis Set: AUG-CC-PVTZ
    Blend: AUG-CC-PVTZ
  Basis Set: (AUG-CC-PVTZ AUX)
    Blend: AUG-CC-PVTZ-JKFIT

    Orbital Energies [Eh]
    ---------------------

    Doubly Occupied:

       1A   -104.857316     2A    -20.529989     3A    -15.605256
       4A    -11.367451     5A    -11.312261     6A    -11.279183
       7A    -11.259645     8A    -11.257283     9A    -11.245653
      10A    -11.245277    11A    -11.229056    12A    -10.581124
      13A     -8.047978    14A     -8.046224    15A     -8.046139
      16A     -1.386159    17A     -1.274717    18A     -1.184728
      19A     -1.130938    20A     -1.061778    21A     -1.003979
      22A     -0.986070    23A     -0.868736    24A     -0.840121
      25A     -0.780048    26A     -0.739991    27A     -0.683175
      28A     -0.666489    29A     -0.649452    30A     -0.632940
      31A     -0.621453    32A     -0.595547    33A     -0.581615
      34A     -0.579298    35A     -0.567476    36A     -0.536082
      37A     -0.527128    38A     -0.503512    39A     -0.484150
      40A     -0.466418    41A     -0.446879    42A     -0.419506
      43A     -0.351097    44A     -0.325792

  @DF-RHF Final Energy:  -896.54625142789553

   => Energetics <=

    Nuclear Repulsion Energy =            659.8322832769932802
    One-Electron Energy =               -2539.1468526050898618
    Two-Electron Energy =                 982.7683179002011684
    Total Energy =                       -896.5462514278955268
  Basis Set: (AUG-CC-PVTZ AUX)
    Blend: AUG-CC-PVTZ-RI
    Molecular point group: c1

    Geometry (in Angstrom), charge = 0, multiplicity = 1:

       Center              X                  Y                   Z               Mass
    ------------   -----------------  -----------------  -----------------  -----------------
         CL           0.994418541485     2.271064355112    -0.006313801252    34.968852682000
         O           -2.584085458515    -1.583463644888    -0.025154801252    15.994914619570
         N           -1.197914458515     0.264517355112    -0.015076801252    14.003074004430
         C            0.080154541485    -0.313377644888    -0.004842801252    12.000000000000
         C            1.204858541485     0.534633355112    -0.000310801252    12.000000000000
         C            0.267795941485    -1.503641544888    -0.000896801252    12.000000000000
         C            2.500497541485     0.026605355112     0.010476198748    12.000000000000
         C            1.598180541485    -2.206019644888     0.010211198748    12.000000000000
         C            2.701409541485    -1.352811644888     0.015433198748    12.000000000000
         C           -2.427267458515    -0.363427644888    -0.016109801252    12.000000000000
         C           -3.591953458515     0.605096355112     0.037592198748    12.000000000000
         H           -0.557737458515    -2.361499644888    -0.005137801252     1.007825032230
         H           -1.210013458515     1.277866355112    -0.011882801252     1.007825032230
         H            3.339467541485     0.716602355112     0.014178198748     1.007825032230
         H            1.741939541485    -3.283431644888     0.013672198748     1.007825032230
         H            3.712229541485    -1.751138644888     0.023372198748     1.007825032230
         H           -3.748255458515     0.939345355112     1.067920198748     1.007825032230
         H           -4.486341458515     0.081376355112    -0.298994801252     1.007825032230
         H           -3.426094458515     1.485646355112    -0.589175801252     1.007825032230

  Basis Set: AUG-CC-PVTZ
    Blend: AUG-CC-PVTZ
  Basis Set: (AUG-CC-PVTZ AUX)
    Blend: AUG-CC-PVTZ-JKFIT
	 Reference Energy          =    -896.5462514278955268 [Eh]
	 Singles Energy            =      -0.0000000000000000 [Eh]
	 Same-Spin Energy          =      -0.5336222262466253 [Eh]
	 Opposite-Spin Energy      =      -1.6223619066852994 [Eh]
	 Correlation Energy        =      -2.1559841329319247 [Eh]
	 Total Energy              =    -898.7022355608274893 [Eh]

	 ================> DF-SCS-MP2 Energies <==================
	-----------------------------------------------------------
	 SCS Same-Spin Scale       =       0.3333333333333333 [-]
	 SCS Opposite-Spin Scale   =       1.2000000000000000 [-]
	 SCS Same-Spin Energy      =      -0.1778740754155417 [Eh]
	 SCS Opposite-Spin Energy  =      -1.9468342880223592 [Eh]
	 SCS Correlation Energy    =      -2.1247083634379011 [Eh]
	 SCS Total Energy          =    -898.6709597913334164 [Eh]
	-----------------------------------------------------------

  Dipole Moment: [D]
     X:     0.8608      Y:     1.7653      Z:     0.0896     Total:     1.9661

*** Psi4 exiting successfully. Buy a developer a beer!
