                               Psi4 1.4a3.dev225

  ==> Input File <==

--------------------------------------------------------------------------
#psi4
#
memory 32 gb

molecule  {
0 1
 Cl        1.0239510     2.3134080    -0.0075990
  O       -2.5545530    -1.5411200    -0.0264400
  N       -1.1683820     0.3068610    -0.0163620
  C        0.1096870    -0.2710340    -0.0061280
  C        1.2343910     0.5769770    -0.0015960
  C        0.3284730    -1.6588570    -0.0015270
  C        2.5300300     0.0689490     0.0091910
  C        1.6277130    -2.1636760     0.0089260
  C        2.7309420    -1.3104680     0.0141480
  C       -2.4867899    -0.3665726    -0.0174698
  C       -3.5624210     0.6474400     0.0363070
  H       -0.5282050    -2.3191560    -0.0064230
  H       -1.1804810     1.3202100    -0.0131680
  H        3.3690000     0.7589460     0.0128930
  H        1.7714720    -3.2410880     0.0123870
  H        3.7417620    -1.7087950     0.0220870
  H       -3.7187230     0.9816890     1.0666350
  H       -4.4568090     0.1237200    -0.3002800
  H       -3.3965620     1.5279900    -0.5904610
units angstrom
no_reorient  #important for SAPT in psi4, default
symmetry c1  #important for SAPT in psi4, default
}

set PROPERTIES_ORIGIN ["COM"]
properties('MP2/aug-cc-pvtz', properties = ['dipole'])
--------------------------------------------------------------------------

    Molecular point group: c1
  Charge       = 0
  Multiplicity = 1
  Basis Set: AUG-CC-PVTZ
    Blend: AUG-CC-PVTZ
  Basis Set: (AUG-CC-PVTZ AUX)
    Blend: AUG-CC-PVTZ-JKFIT

    Orbital Energies [Eh]
    ---------------------

    Doubly Occupied:

       1A   -104.849823     2A    -20.555941     3A    -15.596384
       4A    -11.379056     5A    -11.302020     6A    -11.299706
       7A    -11.253883     8A    -11.251852     9A    -11.243736
      10A    -11.236730    11A    -11.233459    12A    -10.573647
      13A     -8.040511    14A     -8.038777    15A     -8.038678
      16A     -1.433704    17A     -1.250702    18A     -1.169062
      19A     -1.118734    20A     -1.048989    21A     -1.006767
      22A     -0.983820    23A     -0.855258    24A     -0.822392
      25A     -0.780721    26A     -0.723504    27A     -0.701449
      28A     -0.671421    29A     -0.644534    30A     -0.640428
      31A     -0.622566    32A     -0.610543    33A     -0.585784
      34A     -0.570161    35A     -0.568841    36A     -0.536388
      37A     -0.534422    38A     -0.509685    39A     -0.479082
      40A     -0.464228    41A     -0.451785    42A     -0.444677
      43A     -0.339468    44A     -0.307888

  @DF-RHF Final Energy:  -896.59833356370166

   => Energetics <=

    Nuclear Repulsion Energy =            655.4173943725970730
    One-Electron Energy =               -2530.4890495832851229
    Two-Electron Energy =                 978.4733216469863919
    Total Energy =                       -896.5983335637016580
  Basis Set: (AUG-CC-PVTZ AUX)
    Blend: AUG-CC-PVTZ-RI
    Molecular point group: c1

    Geometry (in Angstrom), charge = 0, multiplicity = 1:

       Center              X                  Y                   Z               Mass
    ------------   -----------------  -----------------  -----------------  -----------------
         CL           0.998529799226     2.288319173994    -0.006354991710    34.968852682000
         O           -2.579974200774    -1.566208826006    -0.025195991710    15.994914619570
         N           -1.193803200774     0.281772173994    -0.015117991710    14.003074004430
         C            0.084265799226    -0.296122826006    -0.004883991710    12.000000000000
         C            1.208969799226     0.551888173994    -0.000351991710    12.000000000000
         C            0.303051799226    -1.683945826006    -0.000282991710    12.000000000000
         C            2.504608799226     0.043860173994     0.010435008290    12.000000000000
         C            1.602291799226    -2.188764826006     0.010170008290    12.000000000000
         C            2.705520799226    -1.335556826006     0.015392008290    12.000000000000
         C           -2.512211100774    -0.391661426006    -0.016225791710    12.000000000000
         C           -3.587842200774     0.622351173994     0.037551008290    12.000000000000
         H           -0.553626200774    -2.344244826006    -0.005178991710     1.007825032230
         H           -1.205902200774     1.295121173994    -0.011923991710     1.007825032230
         H            3.343578799226     0.733857173994     0.014137008290     1.007825032230
         H            1.746050799226    -3.266176826006     0.013631008290     1.007825032230
         H            3.716340799226    -1.733883826006     0.023331008290     1.007825032230
         H           -3.744144200774     0.956600173994     1.067879008290     1.007825032230
         H           -4.482230200774     0.098631173994    -0.299035991710     1.007825032230
         H           -3.421983200774     1.502901173994    -0.589216991710     1.007825032230

  Basis Set: AUG-CC-PVTZ
    Blend: AUG-CC-PVTZ
  Basis Set: (AUG-CC-PVTZ AUX)
    Blend: AUG-CC-PVTZ-JKFIT
	 Reference Energy          =    -896.5983335637016580 [Eh]
	 Singles Energy            =      -0.0000000000000000 [Eh]
	 Same-Spin Energy          =      -0.5335140918115904 [Eh]
	 Opposite-Spin Energy      =      -1.6194898180687884 [Eh]
	 Correlation Energy        =      -2.1530039098803790 [Eh]
	 Total Energy              =    -898.7513374735819980 [Eh]

	 ================> DF-SCS-MP2 Energies <==================
	-----------------------------------------------------------
	 SCS Same-Spin Scale       =       0.3333333333333333 [-]
	 SCS Opposite-Spin Scale   =       1.2000000000000000 [-]
	 SCS Same-Spin Energy      =      -0.1778380306038634 [Eh]
	 SCS Opposite-Spin Energy  =      -1.9433877816825460 [Eh]
	 SCS Correlation Energy    =      -2.1212258122864096 [Eh]
	 SCS Total Energy          =    -898.7195593759880694 [Eh]
	-----------------------------------------------------------

  Dipole Moment: [D]
     X:    -0.5671      Y:     1.5629      Z:     0.0920     Total:     1.6651

*** Psi4 exiting successfully. Buy a developer a beer!
