                               Psi4 1.4a3.dev225

  ==> Input File <==

--------------------------------------------------------------------------
#psi4
#
memory 32 gb

molecule  {
0 1
 Cl        1.0239510     2.3134080    -0.0075990
  O       -2.5545530    -1.5411200    -0.0264400
  N       -1.2217878     0.1700968    -0.0164339
  C        0.1096870    -0.2710340    -0.0061280
  C        1.2343910     0.5769770    -0.0015960
  C        0.3284730    -1.6588570    -0.0015270
  C        2.5300300     0.0689490     0.0091910
  C        1.6277130    -2.1636760     0.0089260
  C        2.7309420    -1.3104680     0.0141480
  C       -2.3977350    -0.3210840    -0.0173950
  C       -3.5624210     0.6474400     0.0363070
  H       -0.5282050    -2.3191560    -0.0064230
  H       -1.1804810     1.3202100    -0.0131680
  H        3.3690000     0.7589460     0.0128930
  H        1.7714720    -3.2410880     0.0123870
  H        3.7417620    -1.7087950     0.0220870
  H       -3.7187230     0.9816890     1.0666350
  H       -4.4568090     0.1237200    -0.3002800
  H       -3.3965620     1.5279900    -0.5904610
units angstrom
no_reorient  #important for SAPT in psi4, default
symmetry c1  #important for SAPT in psi4, default
}

set PROPERTIES_ORIGIN ["COM"]
properties('MP2/aug-cc-pvtz', properties = ['dipole'])
--------------------------------------------------------------------------

    Molecular point group: c1
  Charge       = 0
  Multiplicity = 1
  Basis Set: AUG-CC-PVTZ
    Blend: AUG-CC-PVTZ
  Basis Set: (AUG-CC-PVTZ AUX)
    Blend: AUG-CC-PVTZ-JKFIT

    Orbital Energies [Eh]
    ---------------------

    Doubly Occupied:

       1A   -104.861580     2A    -20.510502     3A    -15.622156
       4A    -11.352413     5A    -11.317509     6A    -11.314049
       7A    -11.261396     8A    -11.250130     9A    -11.248831
      10A    -11.245164    11A    -11.241359    12A    -10.585307
      13A     -8.052163    14A     -8.050412    15A     -8.050300
      16A     -1.392207    17A     -1.269557    18A     -1.190039
      19A     -1.129019    20A     -1.051856    21A     -1.010361
      22A     -0.990147    23A     -0.885102    24A     -0.837855
      25A     -0.785401    26A     -0.719974    27A     -0.685080
      28A     -0.680191    29A     -0.642464    30A     -0.638848
      31A     -0.623023    32A     -0.596118    33A     -0.576368
      34A     -0.572004    35A     -0.565340    36A     -0.538566
      37A     -0.535141    38A     -0.512578    39A     -0.481497
      40A     -0.473545    41A     -0.441364    42A     -0.423587
      43A     -0.347630    44A     -0.324226

  @DF-RHF Final Energy:  -896.57595532816970

   => Energetics <=

    Nuclear Repulsion Energy =            657.2965447205033342
    One-Electron Energy =               -2533.9802759063550184
    Two-Electron Energy =                 980.1077758576819861
    Total Energy =                       -896.5759553281696981
  Basis Set: (AUG-CC-PVTZ AUX)
    Blend: AUG-CC-PVTZ-RI
    Molecular point group: c1

    Geometry (in Angstrom), charge = 0, multiplicity = 1:

       Center              X                  Y                   Z               Mass
    ------------   -----------------  -----------------  -----------------  -----------------
         CL           0.996631825551     2.296419869359    -0.006354345544    34.968852682000
         O           -2.581872174449    -1.558108130641    -0.025195345544    15.994914619570
         N           -1.249106974449     0.153108669359    -0.015189245544    14.003074004430
         C            0.082367825551    -0.288022130641    -0.004883345544    12.000000000000
         C            1.207071825551     0.559988869359    -0.000351345544    12.000000000000
         C            0.301153825551    -1.675845130641    -0.000282345544    12.000000000000
         C            2.502710825551     0.051960869359     0.010435654456    12.000000000000
         C            1.600393825551    -2.180664130641     0.010170654456    12.000000000000
         C            2.703622825551    -1.327456130641     0.015392654456    12.000000000000
         C           -2.425054174449    -0.338072130641    -0.016150345544    12.000000000000
         C           -3.589740174449     0.630451869359     0.037551654456    12.000000000000
         H           -0.555524174449    -2.336144130641    -0.005178345544     1.007825032230
         H           -1.207800174449     1.303221869359    -0.011923345544     1.007825032230
         H            3.341680825551     0.741957869359     0.014137654456     1.007825032230
         H            1.744152825551    -3.258076130641     0.013631654456     1.007825032230
         H            3.714442825551    -1.725783130641     0.023331654456     1.007825032230
         H           -3.746042174449     0.964700869359     1.067879654456     1.007825032230
         H           -4.484128174449     0.106731869359    -0.299035345544     1.007825032230
         H           -3.423881174449     1.511001869359    -0.589216345544     1.007825032230

  Basis Set: AUG-CC-PVTZ
    Blend: AUG-CC-PVTZ
  Basis Set: (AUG-CC-PVTZ AUX)
    Blend: AUG-CC-PVTZ-JKFIT
	 Reference Energy          =    -896.5759553281696981 [Eh]
	 Singles Energy            =      -0.0000000000000000 [Eh]
	 Same-Spin Energy          =      -0.5353388678313664 [Eh]
	 Opposite-Spin Energy      =      -1.6226550573447851 [Eh]
	 Correlation Energy        =      -2.1579939251761515 [Eh]
	 Total Energy              =    -898.7339492533458269 [Eh]

	 ================> DF-SCS-MP2 Energies <==================
	-----------------------------------------------------------
	 SCS Same-Spin Scale       =       0.3333333333333333 [-]
	 SCS Opposite-Spin Scale   =       1.2000000000000000 [-]
	 SCS Same-Spin Energy      =      -0.1784462892771221 [Eh]
	 SCS Opposite-Spin Energy  =      -1.9471860688137421 [Eh]
	 SCS Correlation Energy    =      -2.1256323580908640 [Eh]
	 SCS Total Energy          =    -898.7015876862606092 [Eh]
	-----------------------------------------------------------

  Dipole Moment: [D]
     X:     1.2973      Y:     2.1666      Z:     0.0882     Total:     2.5268

*** Psi4 exiting successfully. Buy a developer a beer!
