                               Psi4 1.4a3.dev225

  ==> Input File <==

--------------------------------------------------------------------------
#psi4
#
memory 32 gb

molecule  {
0 1
 Cl        1.0239510     2.3134080    -0.0075990
  O       -2.5545530    -1.5411200    -0.0264400
  N       -1.1683820     0.3068610    -0.0163620
  C        0.1096870    -0.2710340    -0.0061280
  C        1.2343910     0.5769770    -0.0015960
  C        0.3284730    -1.6588570    -0.0015270
  C        2.5300300     0.0689490     0.0091910
  C        1.6277130    -2.1636760     0.0089260
  C        2.7309420    -1.3104680     0.0141480
  C       -2.3977350    -0.3210840    -0.0173950
  C       -3.4087404     0.5196430     0.0292210
  H       -0.5282050    -2.3191560    -0.0064230
  H       -1.1804810     1.3202100    -0.0131680
  H        3.3690000     0.7589460     0.0128930
  H        1.7714720    -3.2410880     0.0123870
  H        3.7417620    -1.7087950     0.0220870
  H       -3.7187230     0.9816890     1.0666350
  H       -4.4568090     0.1237200    -0.3002800
  H       -3.3965620     1.5279900    -0.5904610
units angstrom
no_reorient  #important for SAPT in psi4, default
symmetry c1  #important for SAPT in psi4, default
}

set PROPERTIES_ORIGIN ["COM"]
properties('MP2/aug-cc-pvtz', properties = ['dipole'])
--------------------------------------------------------------------------

    Molecular point group: c1
  Charge       = 0
  Multiplicity = 1
  Basis Set: AUG-CC-PVTZ
    Blend: AUG-CC-PVTZ
  Basis Set: (AUG-CC-PVTZ AUX)
    Blend: AUG-CC-PVTZ-JKFIT

    Orbital Energies [Eh]
    ---------------------

    Doubly Occupied:

       1A   -104.855566     2A    -20.531961     3A    -15.610474
       4A    -11.359657     5A    -11.307731     6A    -11.306596
       7A    -11.258539     8A    -11.256077     9A    -11.247292
      10A    -11.242967    11A    -11.238637    12A    -10.579382
      13A     -8.046243    14A     -8.044498    15A     -8.044398
      16A     -1.396061    17A     -1.271866    18A     -1.183017
      19A     -1.124528    20A     -1.070986    21A     -1.011799
      22A     -0.990343    23A     -0.868316    24A     -0.828566
      25A     -0.790617    26A     -0.736409    27A     -0.710988
      28A     -0.676608    29A     -0.642035    30A     -0.638532
      31A     -0.622748    32A     -0.610017    33A     -0.590279
      34A     -0.565165    35A     -0.544473    36A     -0.524707
      37A     -0.513383    38A     -0.505551    39A     -0.475820
      40A     -0.469928    41A     -0.449568    42A     -0.442115
      43A     -0.343602    44A     -0.317255

  @DF-RHF Final Energy:  -896.55640066192700

   => Energetics <=

    Nuclear Repulsion Energy =            660.2909174954553464
    One-Electron Energy =               -2540.0040342834786316
    Two-Electron Energy =                 983.1567161260963985
    Total Energy =                       -896.5564006619270003
  Basis Set: (AUG-CC-PVTZ AUX)
    Blend: AUG-CC-PVTZ-RI
    Molecular point group: c1

    Geometry (in Angstrom), charge = 0, multiplicity = 1:

       Center              X                  Y                   Z               Mass
    ------------   -----------------  -----------------  -----------------  -----------------
         CL           0.981297144529     2.294162539451    -0.005857241737    34.968852682000
         O           -2.597206855471    -1.560365460549    -0.024698241737    15.994914619570
         N           -1.211035855471     0.287615539451    -0.014620241737    14.003074004430
         C            0.067033144529    -0.290279460549    -0.004386241737    12.000000000000
         C            1.191737144529     0.557731539451     0.000145758263    12.000000000000
         C            0.285819144529    -1.678102460549     0.000214758263    12.000000000000
         C            2.487376144529     0.049703539451     0.010932758263    12.000000000000
         C            1.585059144529    -2.182921460549     0.010667758263    12.000000000000
         C            2.688288144529    -1.329713460549     0.015889758263    12.000000000000
         C           -2.440388855471    -0.340329460549    -0.015653241737    12.000000000000
         C           -3.451394255471     0.500397539451     0.030962758263    12.000000000000
         H           -0.570858855471    -2.338401460549    -0.004681241737     1.007825032230
         H           -1.223134855471     1.300964539451    -0.011426241737     1.007825032230
         H            3.326346144529     0.739700539451     0.014634758263     1.007825032230
         H            1.728818144529    -3.260333460549     0.014128758263     1.007825032230
         H            3.699108144529    -1.728040460549     0.023828758263     1.007825032230
         H           -3.761376855471     0.962443539451     1.068376758263     1.007825032230
         H           -4.499462855471     0.104474539451    -0.298538241737     1.007825032230
         H           -3.439215855471     1.508744539451    -0.588719241737     1.007825032230

  Basis Set: AUG-CC-PVTZ
    Blend: AUG-CC-PVTZ
  Basis Set: (AUG-CC-PVTZ AUX)
    Blend: AUG-CC-PVTZ-JKFIT
	 Reference Energy          =    -896.5564006619270003 [Eh]
	 Singles Energy            =      -0.0000000000000000 [Eh]
	 Same-Spin Energy          =      -0.5370485776088820 [Eh]
	 Opposite-Spin Energy      =      -1.6244537896114397 [Eh]
	 Correlation Energy        =      -2.1615023672203217 [Eh]
	 Total Energy              =    -898.7179030291473509 [Eh]

	 ================> DF-SCS-MP2 Energies <==================
	-----------------------------------------------------------
	 SCS Same-Spin Scale       =       0.3333333333333333 [-]
	 SCS Opposite-Spin Scale   =       1.2000000000000000 [-]
	 SCS Same-Spin Energy      =      -0.1790161925362940 [Eh]
	 SCS Opposite-Spin Energy  =      -1.9493445475337277 [Eh]
	 SCS Correlation Energy    =      -2.1283607400700215 [Eh]
	 SCS Total Energy          =    -898.6847614019969797 [Eh]
	-----------------------------------------------------------

  Dipole Moment: [D]
     X:     0.2584      Y:     2.0563      Z:     0.1226     Total:     2.0761

*** Psi4 exiting successfully. Buy a developer a beer!
