                               Psi4 1.4a3.dev225

  ==> Input File <==

--------------------------------------------------------------------------
#psi4
#
memory 32 gb

molecule  {
0 1
 Cl        1.0239510     2.3134080    -0.0075990
  O       -2.5545530    -1.5411200    -0.0264400
  N       -1.1683820     0.3068610    -0.0163620
  C        0.1096870    -0.2710340    -0.0061280
  C        1.0746979     0.4565706    -0.0022395
  C        0.3284730    -1.6588570    -0.0015270
  C        2.5300300     0.0689490     0.0091910
  C        1.6277130    -2.1636760     0.0089260
  C        2.7309420    -1.3104680     0.0141480
  C       -2.3977350    -0.3210840    -0.0173950
  C       -3.5624210     0.6474400     0.0363070
  H       -0.5282050    -2.3191560    -0.0064230
  H       -1.1804810     1.3202100    -0.0131680
  H        3.3690000     0.7589460     0.0128930
  H        1.7714720    -3.2410880     0.0123870
  H        3.7417620    -1.7087950     0.0220870
  H       -3.7187230     0.9816890     1.0666350
  H       -4.4568090     0.1237200    -0.3002800
  H       -3.3965620     1.5279900    -0.5904610
units angstrom
no_reorient  #important for SAPT in psi4, default
symmetry c1  #important for SAPT in psi4, default
}

set PROPERTIES_ORIGIN ["COM"]
properties('MP2/aug-cc-pvtz', properties = ['dipole'])
--------------------------------------------------------------------------

    Molecular point group: c1
  Charge       = 0
  Multiplicity = 1
  Basis Set: AUG-CC-PVTZ
    Blend: AUG-CC-PVTZ
  Basis Set: (AUG-CC-PVTZ AUX)
    Blend: AUG-CC-PVTZ-JKFIT

    Orbital Energies [Eh]
    ---------------------

    Doubly Occupied:

       1A   -104.844893     2A    -20.534556     3A    -15.610763
       4A    -11.371616     5A    -11.303332     6A    -11.285427
       7A    -11.271210     8A    -11.251511     9A    -11.250342
      10A    -11.248169    11A    -11.247827    12A    -10.567749
      13A     -8.034386    14A     -8.032874    15A     -8.032783
      16A     -1.390762    17A     -1.282729    18A     -1.179861
      19A     -1.110955    20A     -1.061021    21A     -1.003854
      22A     -1.001309    23A     -0.881175    24A     -0.830797
      25A     -0.795099    26A     -0.733037    27A     -0.692071
      28A     -0.678827    29A     -0.641816    30A     -0.637274
      31A     -0.629422    32A     -0.597578    33A     -0.585558
      34A     -0.575244    35A     -0.571679    36A     -0.541078
      37A     -0.525089    38A     -0.503268    39A     -0.471808
      40A     -0.456897    41A     -0.452222    42A     -0.434802
      43A     -0.352619    44A     -0.334817

  @DF-RHF Final Energy:  -896.55438408703276

   => Energetics <=

    Nuclear Repulsion Energy =            657.8788375192226567
    One-Electron Energy =               -2535.1862343046163915
    Two-Electron Energy =                 980.7530126983610899
    Total Energy =                       -896.5543840870327585
  Basis Set: (AUG-CC-PVTZ AUX)
    Blend: AUG-CC-PVTZ-RI
    Molecular point group: c1

    Geometry (in Angstrom), charge = 0, multiplicity = 1:

       Center              X                  Y                   Z               Mass
    ------------   -----------------  -----------------  -----------------  -----------------
         CL           1.003544655763     2.293637854525    -0.006314617678    34.968852682000
         O           -2.574959344237    -1.560890145475    -0.025155617678    15.994914619570
         N           -1.188788344237     0.287090854525    -0.015077617678    14.003074004430
         C            0.089280655763    -0.290804145475    -0.004843617678    12.000000000000
         C            1.054291555763     0.436800454525    -0.000955117678    12.000000000000
         C            0.308066655763    -1.678627145475    -0.000242617678    12.000000000000
         C            2.509623655763     0.049178854525     0.010475382322    12.000000000000
         C            1.607306655763    -2.183446145475     0.010210382322    12.000000000000
         C            2.710535655763    -1.330238145475     0.015432382322    12.000000000000
         C           -2.418141344237    -0.340854145475    -0.016110617678    12.000000000000
         C           -3.582827344237     0.627669854525     0.037591382322    12.000000000000
         H           -0.548611344237    -2.338926145475    -0.005138617678     1.007825032230
         H           -1.200887344237     1.300439854525    -0.011883617678     1.007825032230
         H            3.348593655763     0.739175854525     0.014177382322     1.007825032230
         H            1.751065655763    -3.260858145475     0.013671382322     1.007825032230
         H            3.721355655763    -1.728565145475     0.023371382322     1.007825032230
         H           -3.739129344237     0.961918854525     1.067919382322     1.007825032230
         H           -4.477215344237     0.103949854525    -0.298995617678     1.007825032230
         H           -3.416968344237     1.508219854525    -0.589176617678     1.007825032230

  Basis Set: AUG-CC-PVTZ
    Blend: AUG-CC-PVTZ
  Basis Set: (AUG-CC-PVTZ AUX)
    Blend: AUG-CC-PVTZ-JKFIT
	 Reference Energy          =    -896.5543840870327585 [Eh]
	 Singles Energy            =      -0.0000000000000000 [Eh]
	 Same-Spin Energy          =      -0.5316282969712509 [Eh]
	 Opposite-Spin Energy      =      -1.6203289315708993 [Eh]
	 Correlation Energy        =      -2.1519572285421500 [Eh]
	 Total Energy              =    -898.7063413155749458 [Eh]

	 ================> DF-SCS-MP2 Energies <==================
	-----------------------------------------------------------
	 SCS Same-Spin Scale       =       0.3333333333333333 [-]
	 SCS Opposite-Spin Scale   =       1.2000000000000000 [-]
	 SCS Same-Spin Energy      =      -0.1772094323237503 [Eh]
	 SCS Opposite-Spin Energy  =      -1.9443947178850791 [Eh]
	 SCS Correlation Energy    =      -2.1216041502088294 [Eh]
	 SCS Total Energy          =    -898.6759882372415404 [Eh]
	-----------------------------------------------------------

  Dipole Moment: [D]
     X:     0.7975      Y:     1.3008      Z:     0.0924     Total:     1.5286

*** Psi4 exiting successfully. Buy a developer a beer!
