                               Psi4 1.4a3.dev225

  ==> Input File <==

--------------------------------------------------------------------------
#psi4
#
memory 32 gb

molecule  {
0 1
 Cl        1.0239510     2.3134080    -0.0075990
  O       -2.5545530    -1.5411200    -0.0264400
  N       -1.1683820     0.3068610    -0.0163620
  C        0.1096870    -0.2710340    -0.0061280
  C        1.2343910     0.5769770    -0.0015960
  C        0.3284730    -1.6588570    -0.0015270
  C        2.5300300     0.0689490     0.0091910
  C        1.6277130    -2.1636760     0.0089260
  C        2.7309420    -1.3104680     0.0141480
  C       -2.3285014    -0.2192848    -0.1174680
  C       -3.5624210     0.6474400     0.0363070
  H       -0.5282050    -2.3191560    -0.0064230
  H       -1.1804810     1.3202100    -0.0131680
  H        3.3690000     0.7589460     0.0128930
  H        1.7714720    -3.2410880     0.0123870
  H        3.7417620    -1.7087950     0.0220870
  H       -3.7187230     0.9816890     1.0666350
  H       -4.4568090     0.1237200    -0.3002800
  H       -3.3965620     1.5279900    -0.5904610
units angstrom
no_reorient  #important for SAPT in psi4, default
symmetry c1  #important for SAPT in psi4, default
}

set PROPERTIES_ORIGIN ["COM"]
properties('MP2/aug-cc-pvtz', properties = ['dipole'])
--------------------------------------------------------------------------

    Molecular point group: c1
  Charge       = 0
  Multiplicity = 1
  Basis Set: AUG-CC-PVTZ
    Blend: AUG-CC-PVTZ
  Basis Set: (AUG-CC-PVTZ AUX)
    Blend: AUG-CC-PVTZ-JKFIT

    Orbital Energies [Eh]
    ---------------------

    Doubly Occupied:

       1A   -104.863887     2A    -20.506667     3A    -15.632380
       4A    -11.365217     5A    -11.318916     6A    -11.315695
       7A    -11.262421     8A    -11.253324     9A    -11.252046
      10A    -11.248456    11A    -11.246904    12A    -10.587696
      13A     -8.054553    14A     -8.052788    15A     -8.052690
      16A     -1.359238    17A     -1.258017    18A     -1.193822
      19A     -1.132295    20A     -1.054564    21A     -1.013568
      22A     -0.992072    23A     -0.891429    24A     -0.840176
      25A     -0.801483    26A     -0.750881    27A     -0.685646
      28A     -0.670527    29A     -0.641652    30A     -0.638663
      31A     -0.623755    32A     -0.598321    33A     -0.583313
      34A     -0.576035    35A     -0.545501    36A     -0.541501
      37A     -0.530535    38A     -0.518028    39A     -0.481548
      40A     -0.477313    41A     -0.423047    42A     -0.411852
      43A     -0.349928    44A     -0.330459

  @DF-RHF Final Energy:  -896.57287234841374

   => Energetics <=

    Nuclear Repulsion Energy =            656.7071780803963748
    One-Electron Energy =               -2532.7024795911634101
    Two-Electron Energy =                 979.4224291623534100
    Total Energy =                       -896.5728723484137390
  Basis Set: (AUG-CC-PVTZ AUX)
    Blend: AUG-CC-PVTZ-RI
    Molecular point group: c1

    Geometry (in Angstrom), charge = 0, multiplicity = 1:

       Center              X                  Y                   Z               Mass
    ------------   -----------------  -----------------  -----------------  -----------------
         CL           0.987292336791     2.277862690298     0.000744235436    34.968852682000
         O           -2.591211663209    -1.576665309702    -0.018096764564    15.994914619570
         N           -1.205040663209     0.271315690298    -0.008018764564    14.003074004430
         C            0.073028336791    -0.306579309702     0.002215235436    12.000000000000
         C            1.197732336791     0.541431690298     0.006747235436    12.000000000000
         C            0.291814336791    -1.694402309702     0.006816235436    12.000000000000
         C            2.493371336791     0.033403690298     0.017534235436    12.000000000000
         C            1.591054336791    -2.199221309702     0.017269235436    12.000000000000
         C            2.694283336791    -1.346013309702     0.022491235436    12.000000000000
         C           -2.365160063209    -0.254830109702    -0.109124764564    12.000000000000
         C           -3.599079663209     0.611894690298     0.044650235436    12.000000000000
         H           -0.564863663209    -2.354701309702     0.001920235436     1.007825032230
         H           -1.217139663209     1.284664690298    -0.004824764564     1.007825032230
         H            3.332341336791     0.723400690298     0.021236235436     1.007825032230
         H            1.734813336791    -3.276633309702     0.020730235436     1.007825032230
         H            3.705103336791    -1.744340309702     0.030430235436     1.007825032230
         H           -3.755381663209     0.946143690298     1.074978235436     1.007825032230
         H           -4.493467663209     0.088174690298    -0.291936764564     1.007825032230
         H           -3.433220663209     1.492444690298    -0.582117764564     1.007825032230

  Basis Set: AUG-CC-PVTZ
    Blend: AUG-CC-PVTZ
  Basis Set: (AUG-CC-PVTZ AUX)
    Blend: AUG-CC-PVTZ-JKFIT
	 Reference Energy          =    -896.5728723484137390 [Eh]
	 Singles Energy            =      -0.0000000000000000 [Eh]
	 Same-Spin Energy          =      -0.5362861640919566 [Eh]
	 Opposite-Spin Energy      =      -1.6253619365236416 [Eh]
	 Correlation Energy        =      -2.1616481006155981 [Eh]
	 Total Energy              =    -898.7345204490293327 [Eh]

	 ================> DF-SCS-MP2 Energies <==================
	-----------------------------------------------------------
	 SCS Same-Spin Scale       =       0.3333333333333333 [-]
	 SCS Opposite-Spin Scale   =       1.2000000000000000 [-]
	 SCS Same-Spin Energy      =      -0.1787620546973189 [Eh]
	 SCS Opposite-Spin Energy  =      -1.9504343238283699 [Eh]
	 SCS Correlation Energy    =      -2.1291963785256889 [Eh]
	 SCS Total Energy          =    -898.7020687269393875 [Eh]
	-----------------------------------------------------------

  Dipole Moment: [D]
     X:     1.7020      Y:     2.4088      Z:     0.0640     Total:     2.9501

*** Psi4 exiting successfully. Buy a developer a beer!
