                               Psi4 1.4a3.dev225

  ==> Input File <==

--------------------------------------------------------------------------
#psi4
#
memory 32 gb

molecule  {
0 1
 Cl        1.0239510     2.3134080    -0.0075990
  O       -2.5545530    -1.5411200    -0.0264400
  N       -1.1683820     0.3068610    -0.0163620
  C        0.1096870    -0.2710340    -0.0061280
  C        1.2343910     0.5769770    -0.0015960
  C        0.3284730    -1.6588570    -0.0015270
  C        2.5300300     0.0689490     0.0091910
  C        1.6277130    -2.1636760     0.0089260
  C        2.7309420    -1.3104680     0.0141480
  C       -2.3532075    -0.2983397    -0.0173576
  C       -3.5624210     0.6474400     0.0363070
  H       -0.5282050    -2.3191560    -0.0064230
  H       -1.1804810     1.3202100    -0.0131680
  H        3.3690000     0.7589460     0.0128930
  H        1.7714720    -3.2410880     0.0123870
  H        3.7417620    -1.7087950     0.0220870
  H       -3.7187230     0.9816890     1.0666350
  H       -4.4568090     0.1237200    -0.3002800
  H       -3.3965620     1.5279900    -0.5904610
units angstrom
no_reorient  #important for SAPT in psi4, default
symmetry c1  #important for SAPT in psi4, default
}

set PROPERTIES_ORIGIN ["COM"]
properties('MP2/aug-cc-pvtz', properties = ['dipole'])
--------------------------------------------------------------------------

    Molecular point group: c1
  Charge       = 0
  Multiplicity = 1
  Basis Set: AUG-CC-PVTZ
    Blend: AUG-CC-PVTZ
  Basis Set: (AUG-CC-PVTZ AUX)
    Blend: AUG-CC-PVTZ-JKFIT

    Orbital Energies [Eh]
    ---------------------

    Doubly Occupied:

       1A   -104.859797     2A    -20.525034     3A    -15.621199
       4A    -11.367706     5A    -11.312965     6A    -11.311256
       7A    -11.259536     8A    -11.250530     9A    -11.247756
      10A    -11.246396    11A    -11.243192    12A    -10.583606
      13A     -8.050466    14A     -8.048711    15A     -8.048611
      16A     -1.374904    17A     -1.278714    18A     -1.187974
      19A     -1.128377    20A     -1.046451    21A     -1.010002
      22A     -0.986627    23A     -0.880710    24A     -0.834854
      25A     -0.795948    26A     -0.742680    27A     -0.683086
      28A     -0.677218    29A     -0.638188    30A     -0.634390
      31A     -0.622684    32A     -0.594863    33A     -0.580461
      34A     -0.576188    35A     -0.571027    36A     -0.540588
      37A     -0.529695    38A     -0.515999    39A     -0.480274
      40A     -0.474137    41A     -0.445995    42A     -0.425799
      43A     -0.347171    44A     -0.324271

  @DF-RHF Final Energy:  -896.60235941332633

   => Energetics <=

    Nuclear Repulsion Energy =            656.7440167791644399
    One-Electron Energy =               -2532.8806778560119710
    Two-Electron Energy =                 979.5343016635212052
    Total Energy =                       -896.6023594133263259
  Basis Set: (AUG-CC-PVTZ AUX)
    Blend: AUG-CC-PVTZ-RI
    Molecular point group: c1

    Geometry (in Angstrom), charge = 0, multiplicity = 1:

       Center              X                  Y                   Z               Mass
    ------------   -----------------  -----------------  -----------------  -----------------
         CL           0.989046310520     2.283475078241    -0.006362957186    34.968852682000
         O           -2.589457689480    -1.571052921759    -0.025203957186    15.994914619570
         N           -1.203286689480     0.276928078241    -0.015125957186    14.003074004430
         C            0.074782310520    -0.300966921759    -0.004891957186    12.000000000000
         C            1.199486310520     0.547044078241    -0.000359957186    12.000000000000
         C            0.293568310520    -1.688789921759    -0.000290957186    12.000000000000
         C            2.495125310520     0.039016078241     0.010427042814    12.000000000000
         C            1.592808310520    -2.193608921759     0.010162042814    12.000000000000
         C            2.696037310520    -1.340400921759     0.015384042814    12.000000000000
         C           -2.388112189480    -0.328272621759    -0.016121557186    12.000000000000
         C           -3.597325689480     0.617507078241     0.037543042814    12.000000000000
         H           -0.563109689480    -2.349088921759    -0.005186957186     1.007825032230
         H           -1.215385689480     1.290277078241    -0.011931957186     1.007825032230
         H            3.334095310520     0.729013078241     0.014129042814     1.007825032230
         H            1.736567310520    -3.271020921759     0.013623042814     1.007825032230
         H            3.706857310520    -1.738727921759     0.023323042814     1.007825032230
         H           -3.753627689480     0.951756078241     1.067871042814     1.007825032230
         H           -4.491713689480     0.093787078241    -0.299043957186     1.007825032230
         H           -3.431466689480     1.498057078241    -0.589224957186     1.007825032230

  Basis Set: AUG-CC-PVTZ
    Blend: AUG-CC-PVTZ
  Basis Set: (AUG-CC-PVTZ AUX)
    Blend: AUG-CC-PVTZ-JKFIT
	 Reference Energy          =    -896.6023594133263259 [Eh]
	 Singles Energy            =      -0.0000000000000000 [Eh]
	 Same-Spin Energy          =      -0.5343481235884446 [Eh]
	 Opposite-Spin Energy      =      -1.6212754907727942 [Eh]
	 Correlation Energy        =      -2.1556236143612386 [Eh]
	 Total Energy              =    -898.7579830276876010 [Eh]

	 ================> DF-SCS-MP2 Energies <==================
	-----------------------------------------------------------
	 SCS Same-Spin Scale       =       0.3333333333333333 [-]
	 SCS Opposite-Spin Scale   =       1.2000000000000000 [-]
	 SCS Same-Spin Energy      =      -0.1781160411961482 [Eh]
	 SCS Opposite-Spin Energy  =      -1.9455305889273529 [Eh]
	 SCS Correlation Energy    =      -2.1236466301235009 [Eh]
	 SCS Total Energy          =    -898.7260060434498428 [Eh]
	-----------------------------------------------------------

  Dipole Moment: [D]
     X:     1.1343      Y:     2.0179      Z:     0.0882     Total:     2.3165

*** Psi4 exiting successfully. Buy a developer a beer!
