                               Psi4 1.4a3.dev225

  ==> Input File <==

--------------------------------------------------------------------------
#psi4
#
memory 32 gb

molecule  {
0 1
 Cl        1.0239510     2.3134080    -0.0075990
  O       -2.5545530    -1.5411200    -0.0264400
  N       -1.1009734     0.4372937    -0.0161779
  C        0.1096870    -0.2710340    -0.0061280
  C        1.2343910     0.5769770    -0.0015960
  C        0.3284730    -1.6588570    -0.0015270
  C        2.5300300     0.0689490     0.0091910
  C        1.6277130    -2.1636760     0.0089260
  C        2.7309420    -1.3104680     0.0141480
  C       -2.3977350    -0.3210840    -0.0173950
  C       -3.5624210     0.6474400     0.0363070
  H       -0.5282050    -2.3191560    -0.0064230
  H       -1.1804810     1.3202100    -0.0131680
  H        3.3690000     0.7589460     0.0128930
  H        1.7714720    -3.2410880     0.0123870
  H        3.7417620    -1.7087950     0.0220870
  H       -3.7187230     0.9816890     1.0666350
  H       -4.4568090     0.1237200    -0.3002800
  H       -3.3965620     1.5279900    -0.5904610
units angstrom
no_reorient  #important for SAPT in psi4, default
symmetry c1  #important for SAPT in psi4, default
}

set PROPERTIES_ORIGIN ["COM"]
properties('MP2/aug-cc-pvtz', properties = ['dipole'])
--------------------------------------------------------------------------

    Molecular point group: c1
  Charge       = 0
  Multiplicity = 1
  Basis Set: AUG-CC-PVTZ
    Blend: AUG-CC-PVTZ
  Basis Set: (AUG-CC-PVTZ AUX)
    Blend: AUG-CC-PVTZ-JKFIT

    Orbital Energies [Eh]
    ---------------------

    Doubly Occupied:

       1A   -104.851329     2A    -20.558680     3A    -15.601772
       4A    -11.389358     5A    -11.306543     6A    -11.300328
       7A    -11.252934     8A    -11.252212     9A    -11.247147
      10A    -11.239777    11A    -11.239570    12A    -10.575237
      13A     -8.042097    14A     -8.040353    15A     -8.040263
      16A     -1.397530    17A     -1.272964    18A     -1.174719
      19A     -1.122078    20A     -1.040794    21A     -1.009079
      22A     -0.988618    23A     -0.857850    24A     -0.835237
      25A     -0.794640    26A     -0.746016    27A     -0.690643
      28A     -0.671344    29A     -0.634156    30A     -0.629022
      31A     -0.625981    32A     -0.611620    33A     -0.588864
      34A     -0.573373    35A     -0.566849    36A     -0.536702
      37A     -0.525735    38A     -0.513525    39A     -0.479200
      40A     -0.466718    41A     -0.457496    42A     -0.438825
      43A     -0.342102    44A     -0.313673

  @DF-RHF Final Energy:  -896.57287607361695

   => Energetics <=

    Nuclear Repulsion Energy =            655.5805311394823320
    One-Electron Energy =               -2530.6209114082057567
    Two-Electron Energy =                 978.4675041951063577
    Total Energy =                       -896.5728760736169534
  Basis Set: (AUG-CC-PVTZ AUX)
    Blend: AUG-CC-PVTZ-RI
    Molecular point group: c1

    Geometry (in Angstrom), charge = 0, multiplicity = 1:

       Center              X                  Y                   Z               Mass
    ------------   -----------------  -----------------  -----------------  -----------------
         CL           0.986623078150     2.274284211039    -0.006375553606    34.968852682000
         O           -2.591880921850    -1.580243788961    -0.025216553606    15.994914619570
         N           -1.138301321850     0.398169911039    -0.014954453606    14.003074004430
         C            0.072359078150    -0.310157788961    -0.004904553606    12.000000000000
         C            1.197063078150     0.537853211039    -0.000372553606    12.000000000000
         C            0.291145078150    -1.697980788961    -0.000303553606    12.000000000000
         C            2.492702078150     0.029825211039     0.010414446394    12.000000000000
         C            1.590385078150    -2.202799788961     0.010149446394    12.000000000000
         C            2.693614078150    -1.349591788961     0.015371446394    12.000000000000
         C           -2.435062921850    -0.360207788961    -0.016171553606    12.000000000000
         C           -3.599748921850     0.608316211039     0.037530446394    12.000000000000
         H           -0.565532921850    -2.358279788961    -0.005199553606     1.007825032230
         H           -1.217808921850     1.281086211039    -0.011944553606     1.007825032230
         H            3.331672078150     0.719822211039     0.014116446394     1.007825032230
         H            1.734144078150    -3.280211788961     0.013610446394     1.007825032230
         H            3.704434078150    -1.747918788961     0.023310446394     1.007825032230
         H           -3.756050921850     0.942565211039     1.067858446394     1.007825032230
         H           -4.494136921850     0.084596211039    -0.299056553606     1.007825032230
         H           -3.433889921850     1.488866211039    -0.589237553606     1.007825032230

  Basis Set: AUG-CC-PVTZ
    Blend: AUG-CC-PVTZ
  Basis Set: (AUG-CC-PVTZ AUX)
    Blend: AUG-CC-PVTZ-JKFIT
	 Reference Energy          =    -896.5728760736169534 [Eh]
	 Singles Energy            =      -0.0000000000000000 [Eh]
	 Same-Spin Energy          =      -0.5340241984356640 [Eh]
	 Opposite-Spin Energy      =      -1.6220301375966342 [Eh]
	 Correlation Energy        =      -2.1560543360322981 [Eh]
	 Total Energy              =    -898.7289304096492515 [Eh]

	 ================> DF-SCS-MP2 Energies <==================
	-----------------------------------------------------------
	 SCS Same-Spin Scale       =       0.3333333333333333 [-]
	 SCS Opposite-Spin Scale   =       1.2000000000000000 [-]
	 SCS Same-Spin Energy      =      -0.1780080661452213 [Eh]
	 SCS Opposite-Spin Energy  =      -1.9464361651159610 [Eh]
	 SCS Correlation Energy    =      -2.1244442312611822 [Eh]
	 SCS Total Energy          =    -898.6973203048781897 [Eh]
	-----------------------------------------------------------

  Dipole Moment: [D]
     X:    -0.1464      Y:     1.5169      Z:     0.0918     Total:     1.5268

*** Psi4 exiting successfully. Buy a developer a beer!
