                               Psi4 1.4a3.dev225

  ==> Input File <==

--------------------------------------------------------------------------
#psi4
#
memory 32 gb

molecule  {
0 1
 Cl        1.0239510     2.3134080    -0.0075990
  O       -2.5545530    -1.5411200    -0.0264400
  N       -1.1683820     0.3068610    -0.0163620
  C        0.1096870    -0.2710340    -0.0061280
  C        1.2343910     0.5769770    -0.0015960
  C        0.3284730    -1.6588570    -0.0015270
  C        2.5300300     0.0689490     0.0091910
  C        1.6899146    -2.2385554     0.0095492
  C        2.7309420    -1.3104680     0.0141480
  C       -2.3977350    -0.3210840    -0.0173950
  C       -3.5624210     0.6474400     0.0363070
  H       -0.5282050    -2.3191560    -0.0064230
  H       -1.1804810     1.3202100    -0.0131680
  H        3.3690000     0.7589460     0.0128930
  H        1.7714720    -3.2410880     0.0123870
  H        3.7417620    -1.7087950     0.0220870
  H       -3.7187230     0.9816890     1.0666350
  H       -4.4568090     0.1237200    -0.3002800
  H       -3.3965620     1.5279900    -0.5904610
units angstrom
no_reorient  #important for SAPT in psi4, default
symmetry c1  #important for SAPT in psi4, default
}

set PROPERTIES_ORIGIN ["COM"]
properties('MP2/aug-cc-pvtz', properties = ['dipole'])
--------------------------------------------------------------------------

    Molecular point group: c1
  Charge       = 0
  Multiplicity = 1
  Basis Set: AUG-CC-PVTZ
    Blend: AUG-CC-PVTZ
  Basis Set: (AUG-CC-PVTZ AUX)
    Blend: AUG-CC-PVTZ-JKFIT

    Orbital Energies [Eh]
    ---------------------

    Doubly Occupied:

       1A   -104.857782     2A    -20.534643     3A    -15.612739
       4A    -11.370754     5A    -11.311823     6A    -11.307322
       7A    -11.257717     8A    -11.251296     9A    -11.248179
      10A    -11.247784    11A    -11.246307    12A    -10.581599
      13A     -8.048456    14A     -8.046701    15A     -8.046610
      16A     -1.389649    17A     -1.270371    18A     -1.180723
      19A     -1.119567    20A     -1.044311    21A     -1.002907
      22A     -0.989776    23A     -0.870013    24A     -0.834873
      25A     -0.787849    26A     -0.742429    27A     -0.687960
      28A     -0.672487    29A     -0.638131    30A     -0.633051
      31A     -0.629828    32A     -0.597097    33A     -0.593255
      34A     -0.573554    35A     -0.569058    36A     -0.528774
      37A     -0.528398    38A     -0.521953    39A     -0.477247
      40A     -0.470781    41A     -0.450014    42A     -0.432712
      43A     -0.336462    44A     -0.321567

  @DF-RHF Final Energy:  -896.59348745001341

   => Energetics <=

    Nuclear Repulsion Energy =            654.3931157028447387
    One-Electron Energy =               -2528.2441937875705662
    Two-Electron Energy =                 977.2575906347125283
    Total Energy =                       -896.5934874500134129
  Basis Set: (AUG-CC-PVTZ AUX)
    Blend: AUG-CC-PVTZ-RI
    Molecular point group: c1

    Geometry (in Angstrom), charge = 0, multiplicity = 1:

       Center              X                  Y                   Z               Mass
    ------------   -----------------  -----------------  -----------------  -----------------
         CL           0.987791563430     2.290405731204    -0.006404545207    34.968852682000
         O           -2.590712436570    -1.564122268796    -0.025245545207    15.994914619570
         N           -1.204541436570     0.283858731204    -0.015167545207    14.003074004430
         C            0.073527563430    -0.294036268796    -0.004933545207    12.000000000000
         C            1.198231563430     0.553974731204    -0.000401545207    12.000000000000
         C            0.292313563430    -1.681859268796    -0.000332545207    12.000000000000
         C            2.493870563430     0.045946731204     0.010385454793    12.000000000000
         C            1.653755163430    -2.261557668796     0.010743654793    12.000000000000
         C            2.694782563430    -1.333470268796     0.015342454793    12.000000000000
         C           -2.433894436570    -0.344086268796    -0.016200545207    12.000000000000
         C           -3.598580436570     0.624437731204     0.037501454793    12.000000000000
         H           -0.564364436570    -2.342158268796    -0.005228545207     1.007825032230
         H           -1.216640436570     1.297207731204    -0.011973545207     1.007825032230
         H            3.332840563430     0.735943731204     0.014087454793     1.007825032230
         H            1.735312563430    -3.264090268796     0.013581454793     1.007825032230
         H            3.705602563430    -1.731797268796     0.023281454793     1.007825032230
         H           -3.754882436570     0.958686731204     1.067829454793     1.007825032230
         H           -4.492968436570     0.100717731204    -0.299085545207     1.007825032230
         H           -3.432721436570     1.504987731204    -0.589266545207     1.007825032230

  Basis Set: AUG-CC-PVTZ
    Blend: AUG-CC-PVTZ
  Basis Set: (AUG-CC-PVTZ AUX)
    Blend: AUG-CC-PVTZ-JKFIT
	 Reference Energy          =    -896.5934874500134129 [Eh]
	 Singles Energy            =      -0.0000000000000000 [Eh]
	 Same-Spin Energy          =      -0.5341023552589453 [Eh]
	 Opposite-Spin Energy      =      -1.6217646915674679 [Eh]
	 Correlation Energy        =      -2.1558670468264132 [Eh]
	 Total Energy              =    -898.7493544968398282 [Eh]

	 ================> DF-SCS-MP2 Energies <==================
	-----------------------------------------------------------
	 SCS Same-Spin Scale       =       0.3333333333333333 [-]
	 SCS Opposite-Spin Scale   =       1.2000000000000000 [-]
	 SCS Same-Spin Energy      =      -0.1780341184196484 [Eh]
	 SCS Opposite-Spin Energy  =      -1.9461176298809615 [Eh]
	 SCS Correlation Energy    =      -2.1241517483006098 [Eh]
	 SCS Total Energy          =    -898.7176391983140320 [Eh]
	-----------------------------------------------------------

  Dipole Moment: [D]
     X:     0.5987      Y:     1.8601      Z:     0.0887     Total:     1.9561

*** Psi4 exiting successfully. Buy a developer a beer!
