                               Psi4 1.4a3.dev225

  ==> Input File <==

--------------------------------------------------------------------------
#psi4
#
memory 32 gb

molecule  {
0 1
 Cl        1.0239510     2.3134080    -0.0075990
  O       -2.5545530    -1.5411200    -0.0264400
  N       -1.1683820     0.3068610    -0.0163620
  C        0.1096870    -0.2710340    -0.0061280
  C        1.2184217     0.5649364    -0.0016603
  C        0.3284730    -1.6588570    -0.0015270
  C        2.5300300     0.0689490     0.0091910
  C        1.6277130    -2.1636760     0.0089260
  C        2.7309420    -1.3104680     0.0141480
  C       -2.3977350    -0.3210840    -0.0173950
  C       -3.5624210     0.6474400     0.0363070
  H       -0.5282050    -2.3191560    -0.0064230
  H       -1.1804810     1.3202100    -0.0131680
  H        3.3690000     0.7589460     0.0128930
  H        1.7714720    -3.2410880     0.0123870
  H        3.7417620    -1.7087950     0.0220870
  H       -3.7187230     0.9816890     1.0666350
  H       -4.4568090     0.1237200    -0.3002800
  H       -3.3965620     1.5279900    -0.5904610
units angstrom
no_reorient  #important for SAPT in psi4, default
symmetry c1  #important for SAPT in psi4, default
}

set PROPERTIES_ORIGIN ["COM"]
properties('MP2/aug-cc-pvtz', properties = ['dipole'])
--------------------------------------------------------------------------

    Molecular point group: c1
  Charge       = 0
  Multiplicity = 1
  Basis Set: AUG-CC-PVTZ
    Blend: AUG-CC-PVTZ
  Basis Set: (AUG-CC-PVTZ AUX)
    Blend: AUG-CC-PVTZ-JKFIT

    Orbital Energies [Eh]
    ---------------------

    Doubly Occupied:

       1A   -104.855433     2A    -20.535432     3A    -15.613256
       4A    -11.371681     5A    -11.308406     6A    -11.306466
       7A    -11.258497     8A    -11.248489     9A    -11.248287
      10A    -11.244724    11A    -11.240722    12A    -10.579124
      13A     -8.045961    14A     -8.044242    15A     -8.044142
      16A     -1.390594    17A     -1.272041    18A     -1.180726
      19A     -1.124224    20A     -1.045796    21A     -1.008041
      22A     -0.989313    23A     -0.872188    24A     -0.830950
      25A     -0.790740    26A     -0.735761    27A     -0.688712
      28A     -0.676370    29A     -0.636825    30A     -0.633905
      31A     -0.622979    32A     -0.597180    33A     -0.589134
      34A     -0.575420    35A     -0.570591    36A     -0.538207
      37A     -0.528177    38A     -0.514151    39A     -0.479190
      40A     -0.470100    41A     -0.451530    42A     -0.434599
      43A     -0.343688    44A     -0.321481

  @DF-RHF Final Energy:  -896.60682294922810

   => Energetics <=

    Nuclear Repulsion Energy =            656.3900859790335289
    One-Electron Energy =               -2532.2788636040090751
    Two-Electron Energy =                 979.2819546757474427
    Total Energy =                       -896.6068229492281034
  Basis Set: (AUG-CC-PVTZ AUX)
    Blend: AUG-CC-PVTZ-RI
    Molecular point group: c1

    Geometry (in Angstrom), charge = 0, multiplicity = 1:

       Center              X                  Y                   Z               Mass
    ------------   -----------------  -----------------  -----------------  -----------------
         CL           0.993341193076     2.285944581756    -0.006355737142    34.968852682000
         O           -2.585162806924    -1.568583418244    -0.025196737142    15.994914619570
         N           -1.198991806924     0.279397581756    -0.015118737142    14.003074004430
         C            0.079077193076    -0.298497418244    -0.004884737142    12.000000000000
         C            1.187811893076     0.537472981756    -0.000417037142    12.000000000000
         C            0.297863193076    -1.686320418244    -0.000283737142    12.000000000000
         C            2.499420193076     0.041485581756     0.010434262858    12.000000000000
         C            1.597103193076    -2.191139418244     0.010169262858    12.000000000000
         C            2.700332193076    -1.337931418244     0.015391262858    12.000000000000
         C           -2.428344806924    -0.348547418244    -0.016151737142    12.000000000000
         C           -3.593030806924     0.619976581756     0.037550262858    12.000000000000
         H           -0.558814806924    -2.346619418244    -0.005179737142     1.007825032230
         H           -1.211090806924     1.292746581756    -0.011924737142     1.007825032230
         H            3.338390193076     0.731482581756     0.014136262858     1.007825032230
         H            1.740862193076    -3.268551418244     0.013630262858     1.007825032230
         H            3.711152193076    -1.736258418244     0.023330262858     1.007825032230
         H           -3.749332806924     0.954225581756     1.067878262858     1.007825032230
         H           -4.487418806924     0.096256581756    -0.299036737142     1.007825032230
         H           -3.427171806924     1.500526581756    -0.589217737142     1.007825032230

  Basis Set: AUG-CC-PVTZ
    Blend: AUG-CC-PVTZ
  Basis Set: (AUG-CC-PVTZ AUX)
    Blend: AUG-CC-PVTZ-JKFIT
	 Reference Energy          =    -896.6068229492281034 [Eh]
	 Singles Energy            =      -0.0000000000000000 [Eh]
	 Same-Spin Energy          =      -0.5338101670471529 [Eh]
	 Opposite-Spin Energy      =      -1.6203314143101868 [Eh]
	 Correlation Energy        =      -2.1541415813573397 [Eh]
	 Total Energy              =    -898.7609645305853974 [Eh]

	 ================> DF-SCS-MP2 Energies <==================
	-----------------------------------------------------------
	 SCS Same-Spin Scale       =       0.3333333333333333 [-]
	 SCS Opposite-Spin Scale   =       1.2000000000000000 [-]
	 SCS Same-Spin Energy      =      -0.1779367223490509 [Eh]
	 SCS Opposite-Spin Energy  =      -1.9443976971722241 [Eh]
	 SCS Correlation Energy    =      -2.1223344195212750 [Eh]
	 SCS Total Energy          =    -898.7291573687493837 [Eh]
	-----------------------------------------------------------

  Dipole Moment: [D]
     X:     0.6108      Y:     1.8119      Z:     0.0893     Total:     1.9141

*** Psi4 exiting successfully. Buy a developer a beer!
