                               Psi4 1.4a3.dev225

  ==> Input File <==

--------------------------------------------------------------------------
#psi4
#
memory 32 gb

molecule  {
0 1
 Cl        1.0239510     2.3134080    -0.0075990
  O       -2.5545530    -1.5411200    -0.0264400
  N       -1.1683820     0.3068610    -0.0163620
  C        0.1096870    -0.2710340    -0.0061280
  C        1.2343910     0.5769770    -0.0015960
  C        0.3284730    -1.6588570    -0.0015270
  C        2.5300300     0.0689490     0.0091910
  C        1.6277130    -2.1636760     0.0089260
  C        2.7309420    -1.3104680     0.0141480
  C       -2.4105371    -0.3370474    -0.0006292
  C       -3.5624210     0.6474400     0.0363070
  H       -0.5282050    -2.3191560    -0.0064230
  H       -1.1804810     1.3202100    -0.0131680
  H        3.3690000     0.7589460     0.0128930
  H        1.7714720    -3.2410880     0.0123870
  H        3.7417620    -1.7087950     0.0220870
  H       -3.7187230     0.9816890     1.0666350
  H       -4.4568090     0.1237200    -0.3002800
  H       -3.3965620     1.5279900    -0.5904610
units angstrom
no_reorient  #important for SAPT in psi4, default
symmetry c1  #important for SAPT in psi4, default
}

set PROPERTIES_ORIGIN ["COM"]
properties('MP2/aug-cc-pvtz', properties = ['dipole'])
--------------------------------------------------------------------------

    Molecular point group: c1
  Charge       = 0
  Multiplicity = 1
  Basis Set: AUG-CC-PVTZ
    Blend: AUG-CC-PVTZ
  Basis Set: (AUG-CC-PVTZ AUX)
    Blend: AUG-CC-PVTZ-JKFIT

    Orbital Energies [Eh]
    ---------------------

    Doubly Occupied:

       1A   -104.855196     2A    -20.540310     3A    -15.610145
       4A    -11.372633     5A    -11.307506     6A    -11.306295
       7A    -11.256063     8A    -11.248705     9A    -11.247500
      10A    -11.242618    11A    -11.238747    12A    -10.579012
      13A     -8.045874    14A     -8.044129    15A     -8.044029
      16A     -1.402234    17A     -1.268156    18A     -1.179484
      19A     -1.123935    20A     -1.043618    21A     -1.008195
      22A     -0.986603    23A     -0.868199    24A     -0.828990
      25A     -0.787955    26A     -0.733528    27A     -0.691385
      28A     -0.675371    29A     -0.636255    30A     -0.634285
      31A     -0.622069    32A     -0.602723    33A     -0.590414
      34A     -0.573748    35A     -0.569362    36A     -0.537685
      37A     -0.530357    38A     -0.513144    39A     -0.480200
      40A     -0.469688    41A     -0.453449    42A     -0.436932
      43A     -0.343694    44A     -0.316764

  @DF-RHF Final Energy:  -896.60745489622218

   => Energetics <=

    Nuclear Repulsion Energy =            656.1713284591997990
    One-Electron Energy =               -2531.8632013239293883
    Two-Electron Energy =                 979.0844179685075233
    Total Energy =                       -896.6074548962221797
  Basis Set: (AUG-CC-PVTZ AUX)
    Blend: AUG-CC-PVTZ-RI
    Molecular point group: c1

    Geometry (in Angstrom), charge = 0, multiplicity = 1:

       Center              X                  Y                   Z               Mass
    ------------   -----------------  -----------------  -----------------  -----------------
         CL           0.993116342306     2.286223075251    -0.007550565677    34.968852682000
         O           -2.585387657694    -1.568304924749    -0.026391565677    15.994914619570
         N           -1.199216657694     0.279676075251    -0.016313565677    14.003074004430
         C            0.078852342306    -0.298218924749    -0.006079565677    12.000000000000
         C            1.203556342306     0.549792075251    -0.001547565677    12.000000000000
         C            0.297638342306    -1.686041924749    -0.001478565677    12.000000000000
         C            2.499195342306     0.041764075251     0.009239434323    12.000000000000
         C            1.596878342306    -2.190860924749     0.008974434323    12.000000000000
         C            2.700107342306    -1.337652924749     0.014196434323    12.000000000000
         C           -2.441371757694    -0.364232324749    -0.000580765677    12.000000000000
         C           -3.593255657694     0.620255075251     0.036355434323    12.000000000000
         H           -0.559039657694    -2.346340924749    -0.006374565677     1.007825032230
         H           -1.211315657694     1.293025075251    -0.013119565677     1.007825032230
         H            3.338165342306     0.731761075251     0.012941434323     1.007825032230
         H            1.740637342306    -3.268272924749     0.012435434323     1.007825032230
         H            3.710927342306    -1.735979924749     0.022135434323     1.007825032230
         H           -3.749557657694     0.954504075251     1.066683434323     1.007825032230
         H           -4.487643657694     0.096535075251    -0.300231565677     1.007825032230
         H           -3.427396657694     1.500805075251    -0.590412565677     1.007825032230

  Basis Set: AUG-CC-PVTZ
    Blend: AUG-CC-PVTZ
  Basis Set: (AUG-CC-PVTZ AUX)
    Blend: AUG-CC-PVTZ-JKFIT
	 Reference Energy          =    -896.6074548962221797 [Eh]
	 Singles Energy            =      -0.0000000000000000 [Eh]
	 Same-Spin Energy          =      -0.5336456371277726 [Eh]
	 Opposite-Spin Energy      =      -1.6198348622623531 [Eh]
	 Correlation Energy        =      -2.1534804993901258 [Eh]
	 Total Energy              =    -898.7609353956122504 [Eh]

	 ================> DF-SCS-MP2 Energies <==================
	-----------------------------------------------------------
	 SCS Same-Spin Scale       =       0.3333333333333333 [-]
	 SCS Opposite-Spin Scale   =       1.2000000000000000 [-]
	 SCS Same-Spin Energy      =      -0.1778818790425908 [Eh]
	 SCS Opposite-Spin Energy  =      -1.9438018347148236 [Eh]
	 SCS Correlation Energy    =      -2.1216837137574145 [Eh]
	 SCS Total Energy          =    -898.7291386099796000 [Eh]
	-----------------------------------------------------------

  Dipole Moment: [D]
     X:     0.3861      Y:     1.7711      Z:     0.1011     Total:     1.8155

*** Psi4 exiting successfully. Buy a developer a beer!
