                               Psi4 1.4a3.dev225

  ==> Input File <==

--------------------------------------------------------------------------
#psi4
#
memory 32 gb

molecule  {
0 1
 Cl        1.0239510     2.3134080    -0.0075990
  O       -2.5545530    -1.5411200    -0.0264400
  N       -1.1683820     0.3068610    -0.0163620
  C        0.0185712    -0.2298348    -0.0068576
  C        1.2343910     0.5769770    -0.0015960
  C        0.3284730    -1.6588570    -0.0015270
  C        2.5300300     0.0689490     0.0091910
  C        1.6277130    -2.1636760     0.0089260
  C        2.7309420    -1.3104680     0.0141480
  C       -2.3977350    -0.3210840    -0.0173950
  C       -3.5624210     0.6474400     0.0363070
  H       -0.5282050    -2.3191560    -0.0064230
  H       -1.1804810     1.3202100    -0.0131680
  H        3.3690000     0.7589460     0.0128930
  H        1.7714720    -3.2410880     0.0123870
  H        3.7417620    -1.7087950     0.0220870
  H       -3.7187230     0.9816890     1.0666350
  H       -4.4568090     0.1237200    -0.3002800
  H       -3.3965620     1.5279900    -0.5904610
units angstrom
no_reorient  #important for SAPT in psi4, default
symmetry c1  #important for SAPT in psi4, default
}

set PROPERTIES_ORIGIN ["COM"]
properties('MP2/aug-cc-pvtz', properties = ['dipole'])
--------------------------------------------------------------------------

    Molecular point group: c1
  Charge       = 0
  Multiplicity = 1
  Basis Set: AUG-CC-PVTZ
    Blend: AUG-CC-PVTZ
  Basis Set: (AUG-CC-PVTZ AUX)
    Blend: AUG-CC-PVTZ-JKFIT

    Orbital Energies [Eh]
    ---------------------

    Doubly Occupied:

       1A   -104.850950     2A    -20.545897     3A    -15.623324
       4A    -11.380242     5A    -11.314881     6A    -11.307809
       7A    -11.254597     8A    -11.254308     9A    -11.245644
      10A    -11.240995    11A    -11.238286    12A    -10.574998
      13A     -8.041847    14A     -8.040161    15A     -8.040042
      16A     -1.403209    17A     -1.302971    18A     -1.176439
      19A     -1.116833    20A     -1.050477    21A     -1.004161
      22A     -0.980705    23A     -0.883639    24A     -0.831075
      25A     -0.792032    26A     -0.750743    27A     -0.696153
      28A     -0.676874    29A     -0.646090    30A     -0.627525
      31A     -0.619106    32A     -0.601716    33A     -0.585620
      34A     -0.581129    35A     -0.577198    36A     -0.538135
      37A     -0.529711    38A     -0.501689    39A     -0.480104
      40A     -0.467524    41A     -0.459551    42A     -0.440511
      43A     -0.340626    44A     -0.302662

  @DF-RHF Final Energy:  -896.59088367039135

   => Energetics <=

    Nuclear Repulsion Energy =            656.4090643582483153
    One-Electron Energy =               -2532.1635122303032404
    Two-Electron Energy =                 979.1635642016635757
    Total Energy =                       -896.5908836703913494
  Basis Set: (AUG-CC-PVTZ AUX)
    Blend: AUG-CC-PVTZ-RI
    Molecular point group: c1

    Geometry (in Angstrom), charge = 0, multiplicity = 1:

       Center              X                  Y                   Z               Mass
    ------------   -----------------  -----------------  -----------------  -----------------
         CL           0.998676109832     2.282164899388    -0.006308505134    34.968852682000
         O           -2.579827890168    -1.572363100612    -0.025149505134    15.994914619570
         N           -1.193656890168     0.275617899388    -0.015071505134    14.003074004430
         C           -0.006703690168    -0.261077900612    -0.005567105134    12.000000000000
         C            1.209116109832     0.545733899388    -0.000305505134    12.000000000000
         C            0.303198109832    -1.690100100612    -0.000236505134    12.000000000000
         C            2.504755109832     0.037705899388     0.010481494866    12.000000000000
         C            1.602438109832    -2.194919100612     0.010216494866    12.000000000000
         C            2.705667109832    -1.341711100612     0.015438494866    12.000000000000
         C           -2.423009890168    -0.352327100612    -0.016104505134    12.000000000000
         C           -3.587695890168     0.616196899388     0.037597494866    12.000000000000
         H           -0.553479890168    -2.350399100612    -0.005132505134     1.007825032230
         H           -1.205755890168     1.288966899388    -0.011877505134     1.007825032230
         H            3.343725109832     0.727702899388     0.014183494866     1.007825032230
         H            1.746197109832    -3.272331100612     0.013677494866     1.007825032230
         H            3.716487109832    -1.740038100612     0.023377494866     1.007825032230
         H           -3.743997890168     0.950445899388     1.067925494866     1.007825032230
         H           -4.482083890168     0.092476899388    -0.298989505134     1.007825032230
         H           -3.421836890168     1.496746899388    -0.589170505134     1.007825032230

  Basis Set: AUG-CC-PVTZ
    Blend: AUG-CC-PVTZ
  Basis Set: (AUG-CC-PVTZ AUX)
    Blend: AUG-CC-PVTZ-JKFIT
	 Reference Energy          =    -896.5908836703913494 [Eh]
	 Singles Energy            =      -0.0000000000000000 [Eh]
	 Same-Spin Energy          =      -0.5355016548494538 [Eh]
	 Opposite-Spin Energy      =      -1.6225284389219206 [Eh]
	 Correlation Energy        =      -2.1580300937713743 [Eh]
	 Total Energy              =    -898.7489137641626940 [Eh]

	 ================> DF-SCS-MP2 Energies <==================
	-----------------------------------------------------------
	 SCS Same-Spin Scale       =       0.3333333333333333 [-]
	 SCS Opposite-Spin Scale   =       1.2000000000000000 [-]
	 SCS Same-Spin Energy      =      -0.1785005516164846 [Eh]
	 SCS Opposite-Spin Energy  =      -1.9470341267063045 [Eh]
	 SCS Correlation Energy    =      -2.1255346783227891 [Eh]
	 SCS Total Energy          =    -898.7164183487141145 [Eh]
	-----------------------------------------------------------

  Dipole Moment: [D]
     X:    -0.0475      Y:     1.9362      Z:     0.0862     Total:     1.9387

*** Psi4 exiting successfully. Buy a developer a beer!
