                               Psi4 1.4a3.dev225

  ==> Input File <==

--------------------------------------------------------------------------
#psi4
#
memory 32 gb

molecule  {
0 1
 Cl        1.0239510     2.3134080    -0.0075990
  O       -2.5545530    -1.5411200    -0.0264400
  N       -1.1683820     0.3068610    -0.0163620
  C        0.1096870    -0.2710340    -0.0061280
  C        1.2343910     0.5769770    -0.0015960
  C        0.3284730    -1.6588570    -0.0015270
  C        2.5782925     0.0751214     0.0095046
  C        1.6277130    -2.1636760     0.0089260
  C        2.7309420    -1.3104680     0.0141480
  C       -2.3977350    -0.3210840    -0.0173950
  C       -3.5624210     0.6474400     0.0363070
  H       -0.5282050    -2.3191560    -0.0064230
  H       -1.1804810     1.3202100    -0.0131680
  H        3.3690000     0.7589460     0.0128930
  H        1.7714720    -3.2410880     0.0123870
  H        3.7417620    -1.7087950     0.0220870
  H       -3.7187230     0.9816890     1.0666350
  H       -4.4568090     0.1237200    -0.3002800
  H       -3.3965620     1.5279900    -0.5904610
units angstrom
no_reorient  #important for SAPT in psi4, default
symmetry c1  #important for SAPT in psi4, default
}

set PROPERTIES_ORIGIN ["COM"]
properties('MP2/aug-cc-pvtz', properties = ['dipole'])
--------------------------------------------------------------------------

    Molecular point group: c1
  Charge       = 0
  Multiplicity = 1
  Basis Set: AUG-CC-PVTZ
    Blend: AUG-CC-PVTZ
  Basis Set: (AUG-CC-PVTZ AUX)
    Blend: AUG-CC-PVTZ-JKFIT

    Orbital Energies [Eh]
    ---------------------

    Doubly Occupied:

       1A   -104.855839     2A    -20.535457     3A    -15.613443
       4A    -11.371784     5A    -11.312251     6A    -11.308400
       7A    -11.258727     8A    -11.248658     9A    -11.248339
      10A    -11.245293    11A    -11.241560    12A    -10.579669
      13A     -8.046527    14A     -8.044789    15A     -8.044692
      16A     -1.390619    17A     -1.270893    18A     -1.178238
      19A     -1.124322    20A     -1.045477    21A     -1.007922
      22A     -0.985541    23A     -0.871060    24A     -0.829790
      25A     -0.792337    26A     -0.735985    27A     -0.689506
      28A     -0.675352    29A     -0.635121    30A     -0.633562
      31A     -0.628799    32A     -0.598938    33A     -0.588789
      34A     -0.573389    35A     -0.570338    36A     -0.537875
      37A     -0.527506    38A     -0.517222    39A     -0.479309
      40A     -0.468483    41A     -0.451217    42A     -0.434628
      43A     -0.341233    44A     -0.319621

  @DF-RHF Final Energy:  -896.60330048689275

   => Energetics <=

    Nuclear Repulsion Energy =            655.2748756914033947
    One-Electron Energy =               -2530.0393495771031667
    Two-Electron Energy =                 978.1611733988070227
    Total Energy =                       -896.6033004868927492
  Basis Set: (AUG-CC-PVTZ AUX)
    Blend: AUG-CC-PVTZ-RI
    Molecular point group: c1

    Geometry (in Angstrom), charge = 0, multiplicity = 1:

       Center              X                  Y                   Z               Mass
    ------------   -----------------  -----------------  -----------------  -----------------
         CL           0.988781149613     2.284651576242    -0.006382565604    34.968852682000
         O           -2.589722850387    -1.569876423758    -0.025223565604    15.994914619570
         N           -1.203551850387     0.278104576242    -0.015145565604    14.003074004430
         C            0.074517149613    -0.299790423758    -0.004911565604    12.000000000000
         C            1.199221149613     0.548220576242    -0.000379565604    12.000000000000
         C            0.293303149613    -1.687613423758    -0.000310565604    12.000000000000
         C            2.543122649613     0.046364976242     0.010721034396    12.000000000000
         C            1.592543149613    -2.192432423758     0.010142434396    12.000000000000
         C            2.695772149613    -1.339224423758     0.015364434396    12.000000000000
         C           -2.432904850387    -0.349840423758    -0.016178565604    12.000000000000
         C           -3.597590850387     0.618683576242     0.037523434396    12.000000000000
         H           -0.563374850387    -2.347912423758    -0.005206565604     1.007825032230
         H           -1.215650850387     1.291453576242    -0.011951565604     1.007825032230
         H            3.333830149613     0.730189576242     0.014109434396     1.007825032230
         H            1.736302149613    -3.269844423758     0.013603434396     1.007825032230
         H            3.706592149613    -1.737551423758     0.023303434396     1.007825032230
         H           -3.753892850387     0.952932576242     1.067851434396     1.007825032230
         H           -4.491978850387     0.094963576242    -0.299063565604     1.007825032230
         H           -3.431731850387     1.499233576242    -0.589244565604     1.007825032230

  Basis Set: AUG-CC-PVTZ
    Blend: AUG-CC-PVTZ
  Basis Set: (AUG-CC-PVTZ AUX)
    Blend: AUG-CC-PVTZ-JKFIT
	 Reference Energy          =    -896.6033004868927492 [Eh]
	 Singles Energy            =      -0.0000000000000000 [Eh]
	 Same-Spin Energy          =      -0.5339787056484309 [Eh]
	 Opposite-Spin Energy      =      -1.6209226841930282 [Eh]
	 Correlation Energy        =      -2.1549013898414593 [Eh]
	 Total Energy              =    -898.7582018767342333 [Eh]

	 ================> DF-SCS-MP2 Energies <==================
	-----------------------------------------------------------
	 SCS Same-Spin Scale       =       0.3333333333333333 [-]
	 SCS Opposite-Spin Scale   =       1.2000000000000000 [-]
	 SCS Same-Spin Energy      =      -0.1779929018828103 [Eh]
	 SCS Opposite-Spin Energy  =      -1.9451072210316338 [Eh]
	 SCS Correlation Energy    =      -2.1231001229144439 [Eh]
	 SCS Total Energy          =    -898.7264006098072286 [Eh]
	-----------------------------------------------------------

  Dipole Moment: [D]
     X:     0.5943      Y:     1.8594      Z:     0.0890     Total:     1.9541

*** Psi4 exiting successfully. Buy a developer a beer!
