                               Psi4 1.4a3.dev225

  ==> Input File <==

--------------------------------------------------------------------------
#psi4
#
memory 32 gb

molecule  {
0 1
 Cl        1.0239510     2.3134080    -0.0075990
  O       -2.5545530    -1.5411200    -0.0264400
  N       -1.1683820     0.3068610    -0.0163620
  C        0.1096870    -0.2710340    -0.0061280
  C        1.2343910     0.5769770    -0.0015960
  C        0.3284730    -1.6588570    -0.0015270
  C        2.5300300     0.0689490     0.0091910
  C        1.6277130    -2.1636760     0.0089260
  C        2.7597677    -1.5083785     0.0148592
  C       -2.3977350    -0.3210840    -0.0173950
  C       -3.5624210     0.6474400     0.0363070
  H       -0.5282050    -2.3191560    -0.0064230
  H       -1.1804810     1.3202100    -0.0131680
  H        3.3690000     0.7589460     0.0128930
  H        1.7714720    -3.2410880     0.0123870
  H        3.7417620    -1.7087950     0.0220870
  H       -3.7187230     0.9816890     1.0666350
  H       -4.4568090     0.1237200    -0.3002800
  H       -3.3965620     1.5279900    -0.5904610
units angstrom
no_reorient  #important for SAPT in psi4, default
symmetry c1  #important for SAPT in psi4, default
}

set PROPERTIES_ORIGIN ["COM"]
properties('MP2/aug-cc-pvtz', properties = ['dipole'])
--------------------------------------------------------------------------

    Molecular point group: c1
  Charge       = 0
  Multiplicity = 1
  Basis Set: AUG-CC-PVTZ
    Blend: AUG-CC-PVTZ
  Basis Set: (AUG-CC-PVTZ AUX)
    Blend: AUG-CC-PVTZ-JKFIT

    Orbital Energies [Eh]
    ---------------------

    Doubly Occupied:

       1A   -104.856889     2A    -20.536349     3A    -15.614604
       4A    -11.371872     5A    -11.311386     6A    -11.309815
       7A    -11.272268     8A    -11.248594     9A    -11.247171
      10A    -11.239344    11A    -11.237694    12A    -10.580760
      13A     -8.047623    14A     -8.045857    15A     -8.045750
      16A     -1.390936    17A     -1.271864    18A     -1.178192
      19A     -1.125322    20A     -1.043539    21A     -1.000942
      22A     -0.991535    23A     -0.881862    24A     -0.823191
      25A     -0.792209    26A     -0.734918    27A     -0.695940
      28A     -0.686995    29A     -0.633897    30A     -0.630311
      31A     -0.618055    32A     -0.594882    33A     -0.588963
      34A     -0.573649    35A     -0.573323    36A     -0.562909
      37A     -0.527562    38A     -0.485363    39A     -0.480868
      40A     -0.462269    41A     -0.449775    42A     -0.435762
      43A     -0.349775    44A     -0.313186

  @DF-RHF Final Energy:  -896.56556143986609

   => Energetics <=

    Nuclear Repulsion Energy =            654.0150814253624958
    One-Electron Energy =               -2527.4333422804425027
    Two-Electron Energy =                 976.8526994152139196
    Total Energy =                       -896.5655614398660873
  Basis Set: (AUG-CC-PVTZ AUX)
    Blend: AUG-CC-PVTZ-RI
    Molecular point group: c1

    Geometry (in Angstrom), charge = 0, multiplicity = 1:

       Center              X                  Y                   Z               Mass
    ------------   -----------------  -----------------  -----------------  -----------------
         CL           0.990161037033     2.299140145673    -0.006410792639    34.968852682000
         O           -2.588342962967    -1.555387854327    -0.025251792639    15.994914619570
         N           -1.202171962967     0.292593145673    -0.015173792639    14.003074004430
         C            0.075897037033    -0.285301854327    -0.004939792639    12.000000000000
         C            1.200601037033     0.562709145673    -0.000407792639    12.000000000000
         C            0.294683037033    -1.673124854327    -0.000338792639    12.000000000000
         C            2.496240037033     0.054681145673     0.010379207361    12.000000000000
         C            1.593923037033    -2.177943854327     0.010114207361    12.000000000000
         C            2.725977737033    -1.522646354327     0.016047407361    12.000000000000
         C           -2.431524962967    -0.335351854327    -0.016206792639    12.000000000000
         C           -3.596210962967     0.633172145673     0.037495207361    12.000000000000
         H           -0.561994962967    -2.333423854327    -0.005234792639     1.007825032230
         H           -1.214270962967     1.305942145673    -0.011979792639     1.007825032230
         H            3.335210037033     0.744678145673     0.014081207361     1.007825032230
         H            1.737682037033    -3.255355854327     0.013575207361     1.007825032230
         H            3.707972037033    -1.723062854327     0.023275207361     1.007825032230
         H           -3.752512962967     0.967421145673     1.067823207361     1.007825032230
         H           -4.490598962967     0.109452145673    -0.299091792639     1.007825032230
         H           -3.430351962967     1.513722145673    -0.589272792639     1.007825032230

  Basis Set: AUG-CC-PVTZ
    Blend: AUG-CC-PVTZ
  Basis Set: (AUG-CC-PVTZ AUX)
    Blend: AUG-CC-PVTZ-JKFIT
	 Reference Energy          =    -896.5655614398660873 [Eh]
	 Singles Energy            =      -0.0000000000000000 [Eh]
	 Same-Spin Energy          =      -0.5335370632495856 [Eh]
	 Opposite-Spin Energy      =      -1.6230386849349192 [Eh]
	 Correlation Energy        =      -2.1565757481845047 [Eh]
	 Total Energy              =    -898.7221371880506240 [Eh]

	 ================> DF-SCS-MP2 Energies <==================
	-----------------------------------------------------------
	 SCS Same-Spin Scale       =       0.3333333333333333 [-]
	 SCS Opposite-Spin Scale   =       1.2000000000000000 [-]
	 SCS Same-Spin Energy      =      -0.1778456877498619 [Eh]
	 SCS Opposite-Spin Energy  =      -1.9476464219219030 [Eh]
	 SCS Correlation Energy    =      -2.1254921096717649 [Eh]
	 SCS Total Energy          =    -898.6910535495378554 [Eh]
	-----------------------------------------------------------

  Dipole Moment: [D]
     X:     0.5771      Y:     1.8963      Z:     0.0888     Total:     1.9842

*** Psi4 exiting successfully. Buy a developer a beer!
