                               Psi4 1.4a3.dev225

  ==> Input File <==

--------------------------------------------------------------------------
#psi4
#
memory 32 gb

molecule  {
0 1
 Cl        1.0239510     2.3134080    -0.0075990
  O       -2.5545530    -1.5411200    -0.0264400
  N       -1.1683820     0.3068610    -0.0163620
  C        0.1096870    -0.2710340    -0.0061280
  C        1.2343910     0.5769770    -0.0015960
  C        0.3284730    -1.6588570    -0.0015270
  C        2.5300300     0.0689490     0.0091910
  C        1.6277130    -2.1636760     0.0089260
  C        2.7309420    -1.3104680     0.0141480
  C       -2.4510326    -0.3831191     0.0497153
  C       -3.5624210     0.6474400     0.0363070
  H       -0.5282050    -2.3191560    -0.0064230
  H       -1.1804810     1.3202100    -0.0131680
  H        3.3690000     0.7589460     0.0128930
  H        1.7714720    -3.2410880     0.0123870
  H        3.7417620    -1.7087950     0.0220870
  H       -3.7187230     0.9816890     1.0666350
  H       -4.4568090     0.1237200    -0.3002800
  H       -3.3965620     1.5279900    -0.5904610
units angstrom
no_reorient  #important for SAPT in psi4, default
symmetry c1  #important for SAPT in psi4, default
}

set PROPERTIES_ORIGIN ["COM"]
properties('MP2/aug-cc-pvtz', properties = ['dipole'])
--------------------------------------------------------------------------

    Molecular point group: c1
  Charge       = 0
  Multiplicity = 1
  Basis Set: AUG-CC-PVTZ
    Blend: AUG-CC-PVTZ
  Basis Set: (AUG-CC-PVTZ AUX)
    Blend: AUG-CC-PVTZ-JKFIT

    Orbital Energies [Eh]
    ---------------------

    Doubly Occupied:

       1A   -104.851243     2A    -20.554539     3A    -15.599265
       4A    -11.375563     5A    -11.303016     6A    -11.301197
       7A    -11.253107     8A    -11.250668     9A    -11.245100
      10A    -11.238269    11A    -11.235170    12A    -10.575063
      13A     -8.041926    14A     -8.040190    15A     -8.040090
      16A     -1.440414    17A     -1.256109    18A     -1.171801
      19A     -1.120169    20A     -1.040778    21A     -1.006085
      22A     -0.983240    23A     -0.858677    24A     -0.823996
      25A     -0.782796    26A     -0.726365    27A     -0.700903
      28A     -0.672109    29A     -0.643403    30A     -0.638522
      31A     -0.624037    32A     -0.610736    33A     -0.587318
      34A     -0.570575    35A     -0.566766    36A     -0.538742
      37A     -0.535618    38A     -0.510561    39A     -0.480832
      40A     -0.465772    41A     -0.454125    42A     -0.441058
      43A     -0.340841    44A     -0.310317

  @DF-RHF Final Energy:  -896.60004297469425

   => Energetics <=

    Nuclear Repulsion Energy =            655.8709862496473306
    One-Electron Energy =               -2531.3279154397896491
    Two-Electron Energy =                 978.8568862154480712
    Total Energy =                       -896.6000429746942473
  Basis Set: (AUG-CC-PVTZ AUX)
    Blend: AUG-CC-PVTZ-RI
    Molecular point group: c1

    Geometry (in Angstrom), charge = 0, multiplicity = 1:

       Center              X                  Y                   Z               Mass
    ------------   -----------------  -----------------  -----------------  -----------------
         CL           0.995991261584     2.289493868759    -0.011124700422    34.968852682000
         O           -2.582512738416    -1.565034131241    -0.029965700422    15.994914619570
         N           -1.196341738416     0.282946868759    -0.019887700422    14.003074004430
         C            0.081727261584    -0.294948131241    -0.009653700422    12.000000000000
         C            1.206431261584     0.553062868759    -0.005121700422    12.000000000000
         C            0.300513261584    -1.682771131241    -0.005052700422    12.000000000000
         C            2.502070261584     0.045034868759     0.005665299578    12.000000000000
         C            1.599753261584    -2.187590131241     0.005400299578    12.000000000000
         C            2.702982261584    -1.334382131241     0.010622299578    12.000000000000
         C           -2.478992338416    -0.407033231241     0.046189599578    12.000000000000
         C           -3.590380738416     0.623525868759     0.032781299578    12.000000000000
         H           -0.556164738416    -2.343070131241    -0.009948700422     1.007825032230
         H           -1.208440738416     1.296295868759    -0.016693700422     1.007825032230
         H            3.341040261584     0.735031868759     0.009367299578     1.007825032230
         H            1.743512261584    -3.265002131241     0.008861299578     1.007825032230
         H            3.713802261584    -1.732709131241     0.018561299578     1.007825032230
         H           -3.746682738416     0.957774868759     1.063109299578     1.007825032230
         H           -4.484768738416     0.099805868759    -0.303805700422     1.007825032230
         H           -3.424521738416     1.504075868759    -0.593986700422     1.007825032230

  Basis Set: AUG-CC-PVTZ
    Blend: AUG-CC-PVTZ
  Basis Set: (AUG-CC-PVTZ AUX)
    Blend: AUG-CC-PVTZ-JKFIT
	 Reference Energy          =    -896.6000429746942473 [Eh]
	 Singles Energy            =      -0.0000000000000000 [Eh]
	 Same-Spin Energy          =      -0.5329394286936058 [Eh]
	 Opposite-Spin Energy      =      -1.6184513997604482 [Eh]
	 Correlation Energy        =      -2.1513908284540539 [Eh]
	 Total Energy              =    -898.7514338031483021 [Eh]

	 ================> DF-SCS-MP2 Energies <==================
	-----------------------------------------------------------
	 SCS Same-Spin Scale       =       0.3333333333333333 [-]
	 SCS Opposite-Spin Scale   =       1.2000000000000000 [-]
	 SCS Same-Spin Energy      =      -0.1776464762312019 [Eh]
	 SCS Opposite-Spin Energy  =      -1.9421416797125377 [Eh]
	 SCS Correlation Energy    =      -2.1197881559437395 [Eh]
	 SCS Total Energy          =    -898.7198311306379992 [Eh]
	-----------------------------------------------------------

  Dipole Moment: [D]
     X:    -0.2646      Y:     1.4851      Z:     0.1502     Total:     1.5160

*** Psi4 exiting successfully. Buy a developer a beer!
