                               Psi4 1.4a3.dev225

  ==> Input File <==

--------------------------------------------------------------------------
#psi4
#
memory 32 gb

molecule  {
0 1
 Cl        1.0239510     2.3134080    -0.0075990
  O       -2.5545530    -1.5411200    -0.0264400
  N       -1.1683820     0.3068610    -0.0163620
  C        0.1096870    -0.2710340    -0.0061280
  C        1.2174497     0.5314491    -0.0015690
  C        0.3284730    -1.6588570    -0.0015270
  C        2.5300300     0.0689490     0.0091910
  C        1.6277130    -2.1636760     0.0089260
  C        2.7309420    -1.3104680     0.0141480
  C       -2.3977350    -0.3210840    -0.0173950
  C       -3.5624210     0.6474400     0.0363070
  H       -0.5282050    -2.3191560    -0.0064230
  H       -1.1804810     1.3202100    -0.0131680
  H        3.3690000     0.7589460     0.0128930
  H        1.7714720    -3.2410880     0.0123870
  H        3.7417620    -1.7087950     0.0220870
  H       -3.7187230     0.9816890     1.0666350
  H       -4.4568090     0.1237200    -0.3002800
  H       -3.3965620     1.5279900    -0.5904610
units angstrom
no_reorient  #important for SAPT in psi4, default
symmetry c1  #important for SAPT in psi4, default
}

set PROPERTIES_ORIGIN ["COM"]
properties('MP2/aug-cc-pvtz', properties = ['dipole'])
--------------------------------------------------------------------------

    Molecular point group: c1
  Charge       = 0
  Multiplicity = 1
  Basis Set: AUG-CC-PVTZ
    Blend: AUG-CC-PVTZ
  Basis Set: (AUG-CC-PVTZ AUX)
    Blend: AUG-CC-PVTZ-JKFIT

    Orbital Energies [Eh]
    ---------------------

    Doubly Occupied:

       1A   -104.851547     2A    -20.535862     3A    -15.613872
       4A    -11.372277     5A    -11.308485     6A    -11.305414
       7A    -11.258661     8A    -11.248979     9A    -11.248551
      10A    -11.245955    11A    -11.242049    12A    -10.574932
      13A     -8.041696    14A     -8.040070    15A     -8.039970
      16A     -1.391092    17A     -1.272975    18A     -1.180138
      19A     -1.120120    20A     -1.047936    21A     -1.009274
      22A     -0.992057    23A     -0.874111    24A     -0.831818
      25A     -0.793122    26A     -0.736658    27A     -0.690056
      28A     -0.676836    29A     -0.638524    30A     -0.634532
      31A     -0.624178    32A     -0.597721    33A     -0.585976
      34A     -0.576464    35A     -0.571053    36A     -0.538907
      37A     -0.527504    38A     -0.510549    39A     -0.476988
      40A     -0.468133    41A     -0.452479    42A     -0.435280
      43A     -0.346048    44A     -0.324531

  @DF-RHF Final Energy:  -896.60586054887358

   => Energetics <=

    Nuclear Repulsion Energy =            656.4715815691378111
    One-Electron Energy =               -2532.4481254833790445
    Two-Electron Energy =                 979.3706833653675403
    Total Energy =                       -896.6058605488735793
  Basis Set: (AUG-CC-PVTZ AUX)
    Blend: AUG-CC-PVTZ-RI
    Molecular point group: c1

    Geometry (in Angstrom), charge = 0, multiplicity = 1:

       Center              X                  Y                   Z               Mass
    ------------   -----------------  -----------------  -----------------  -----------------
         CL           0.993410198806     2.288321964041    -0.006362218853    34.968852682000
         O           -2.585093801194    -1.566206035959    -0.025203218853    15.994914619570
         N           -1.198922801194     0.281774964041    -0.015125218853    14.003074004430
         C            0.079146198806    -0.296120035959    -0.004891218853    12.000000000000
         C            1.186908898806     0.506363064041    -0.000332218853    12.000000000000
         C            0.297932198806    -1.683943035959    -0.000290218853    12.000000000000
         C            2.499489198806     0.043862964041     0.010427781147    12.000000000000
         C            1.597172198806    -2.188762035959     0.010162781147    12.000000000000
         C            2.700401198806    -1.335554035959     0.015384781147    12.000000000000
         C           -2.428275801194    -0.346170035959    -0.016158218853    12.000000000000
         C           -3.592961801194     0.622353964041     0.037543781147    12.000000000000
         H           -0.558745801194    -2.344242035959    -0.005186218853     1.007825032230
         H           -1.211021801194     1.295123964041    -0.011931218853     1.007825032230
         H            3.338459198806     0.733859964041     0.014129781147     1.007825032230
         H            1.740931198806    -3.266174035959     0.013623781147     1.007825032230
         H            3.711221198806    -1.733881035959     0.023323781147     1.007825032230
         H           -3.749263801194     0.956602964041     1.067871781147     1.007825032230
         H           -4.487349801194     0.098633964041    -0.299043218853     1.007825032230
         H           -3.427102801194     1.502903964041    -0.589224218853     1.007825032230

  Basis Set: AUG-CC-PVTZ
    Blend: AUG-CC-PVTZ
  Basis Set: (AUG-CC-PVTZ AUX)
    Blend: AUG-CC-PVTZ-JKFIT
	 Reference Energy          =    -896.6058605488735793 [Eh]
	 Singles Energy            =      -0.0000000000000000 [Eh]
	 Same-Spin Energy          =      -0.5335382000837132 [Eh]
	 Opposite-Spin Energy      =      -1.6199914980395809 [Eh]
	 Correlation Energy        =      -2.1535296981232941 [Eh]
	 Total Energy              =    -898.7593902469968725 [Eh]

	 ================> DF-SCS-MP2 Energies <==================
	-----------------------------------------------------------
	 SCS Same-Spin Scale       =       0.3333333333333333 [-]
	 SCS Opposite-Spin Scale   =       1.2000000000000000 [-]
	 SCS Same-Spin Energy      =      -0.1778460666945711 [Eh]
	 SCS Opposite-Spin Energy  =      -1.9439897976474969 [Eh]
	 SCS Correlation Energy    =      -2.1218358643420681 [Eh]
	 SCS Total Energy          =    -898.7276964132156536 [Eh]
	-----------------------------------------------------------

  Dipole Moment: [D]
     X:     0.6243      Y:     1.6573      Z:     0.0901     Total:     1.7733

*** Psi4 exiting successfully. Buy a developer a beer!
