                               Psi4 1.4a3.dev225

  ==> Input File <==

--------------------------------------------------------------------------
#psi4
#
memory 32 gb

molecule  {
0 1
 Cl        1.0239510     2.3134080    -0.0075990
  O       -2.5545530    -1.5411200    -0.0264400
  N       -1.1683820     0.3068610    -0.0163620
  C        0.1096870    -0.2710340    -0.0061280
  C        1.2529109     0.6218860    -0.0016099
  C        0.3284730    -1.6588570    -0.0015270
  C        2.5300300     0.0689490     0.0091910
  C        1.6277130    -2.1636760     0.0089260
  C        2.7309420    -1.3104680     0.0141480
  C       -2.3977350    -0.3210840    -0.0173950
  C       -3.5624210     0.6474400     0.0363070
  H       -0.5282050    -2.3191560    -0.0064230
  H       -1.1804810     1.3202100    -0.0131680
  H        3.3690000     0.7589460     0.0128930
  H        1.7714720    -3.2410880     0.0123870
  H        3.7417620    -1.7087950     0.0220870
  H       -3.7187230     0.9816890     1.0666350
  H       -4.4568090     0.1237200    -0.3002800
  H       -3.3965620     1.5279900    -0.5904610
units angstrom
no_reorient  #important for SAPT in psi4, default
symmetry c1  #important for SAPT in psi4, default
}

set PROPERTIES_ORIGIN ["COM"]
properties('MP2/aug-cc-pvtz', properties = ['dipole'])
--------------------------------------------------------------------------

    Molecular point group: c1
  Charge       = 0
  Multiplicity = 1
  Basis Set: AUG-CC-PVTZ
    Blend: AUG-CC-PVTZ
  Basis Set: (AUG-CC-PVTZ AUX)
    Blend: AUG-CC-PVTZ-JKFIT

    Orbital Energies [Eh]
    ---------------------

    Doubly Occupied:

       1A   -104.860801     2A    -20.535299     3A    -15.613396
       4A    -11.371211     5A    -11.311290     6A    -11.308810
       7A    -11.255614     8A    -11.248205     9A    -11.247680
      10A    -11.242357    11A    -11.238018    12A    -10.585181
      13A     -8.052150    14A     -8.050260    15A     -8.050160
      16A     -1.390191    17A     -1.270035    18A     -1.186776
      19A     -1.128199    20A     -1.042461    21A     -1.008549
      22A     -0.983120    23A     -0.869213    24A     -0.829484
      25A     -0.786679    26A     -0.735356    27A     -0.687278
      28A     -0.676894    29A     -0.635000    30A     -0.633047
      31A     -0.619200    32A     -0.596912    33A     -0.595419
      34A     -0.573916    35A     -0.569795    36A     -0.538823
      37A     -0.531091    38A     -0.515301    39A     -0.481539
      40A     -0.472269    41A     -0.450705    42A     -0.433578
      43A     -0.343530    44A     -0.313241

  @DF-RHF Final Energy:  -896.60331776204487

   => Energetics <=

    Nuclear Repulsion Energy =            656.0813474162771399
    One-Electron Energy =               -2531.6332631258273977
    Two-Electron Energy =                 978.9485979475053909
    Total Energy =                       -896.6033177620448669
  Basis Set: (AUG-CC-PVTZ AUX)
    Blend: AUG-CC-PVTZ-RI
    Molecular point group: c1

    Geometry (in Angstrom), charge = 0, multiplicity = 1:

       Center              X                  Y                   Z               Mass
    ------------   -----------------  -----------------  -----------------  -----------------
         CL           0.990892682354     2.281901527518    -0.006359315217    34.968852682000
         O           -2.587611317646    -1.572626472482    -0.025200315217    15.994914619570
         N           -1.201440317646     0.275354527518    -0.015122315217    14.003074004430
         C            0.076628682354    -0.302540472482    -0.004888315217    12.000000000000
         C            1.219852582354     0.590379527518    -0.000370215217    12.000000000000
         C            0.295414682354    -1.690363472482    -0.000287315217    12.000000000000
         C            2.496971682354     0.037442527518     0.010430684783    12.000000000000
         C            1.594654682354    -2.195182472482     0.010165684783    12.000000000000
         C            2.697883682354    -1.341974472482     0.015387684783    12.000000000000
         C           -2.430793317646    -0.352590472482    -0.016155315217    12.000000000000
         C           -3.595479317646     0.615933527518     0.037546684783    12.000000000000
         H           -0.561263317646    -2.350662472482    -0.005183315217     1.007825032230
         H           -1.213539317646     1.288703527518    -0.011928315217     1.007825032230
         H            3.335941682354     0.727439527518     0.014132684783     1.007825032230
         H            1.738413682354    -3.272594472482     0.013626684783     1.007825032230
         H            3.708703682354    -1.740301472482     0.023326684783     1.007825032230
         H           -3.751781317646     0.950182527518     1.067874684783     1.007825032230
         H           -4.489867317646     0.092213527518    -0.299040315217     1.007825032230
         H           -3.429620317646     1.496483527518    -0.589221315217     1.007825032230

  Basis Set: AUG-CC-PVTZ
    Blend: AUG-CC-PVTZ
  Basis Set: (AUG-CC-PVTZ AUX)
    Blend: AUG-CC-PVTZ-JKFIT
	 Reference Energy          =    -896.6033177620448669 [Eh]
	 Singles Energy            =      -0.0000000000000000 [Eh]
	 Same-Spin Energy          =      -0.5344734829351945 [Eh]
	 Opposite-Spin Energy      =      -1.6211777060245340 [Eh]
	 Correlation Energy        =      -2.1556511889597285 [Eh]
	 Total Energy              =    -898.7589689510045901 [Eh]

	 ================> DF-SCS-MP2 Energies <==================
	-----------------------------------------------------------
	 SCS Same-Spin Scale       =       0.3333333333333333 [-]
	 SCS Opposite-Spin Scale   =       1.2000000000000000 [-]
	 SCS Same-Spin Energy      =      -0.1781578276450648 [Eh]
	 SCS Opposite-Spin Energy  =      -1.9454132472294408 [Eh]
	 SCS Correlation Energy    =      -2.1235710748745054 [Eh]
	 SCS Total Energy          =    -898.7268888369193292 [Eh]
	-----------------------------------------------------------

  Dipole Moment: [D]
     X:     0.5565      Y:     2.0626      Z:     0.0878     Total:     2.1382

*** Psi4 exiting successfully. Buy a developer a beer!
