                               Psi4 1.4a3.dev225

  ==> Input File <==

--------------------------------------------------------------------------
#psi4
#
memory 32 gb

molecule  {
0 1
 Cl        1.0239510     2.3134080    -0.0075990
  O       -2.5545530    -1.5411200    -0.0264400
  N       -1.1683820     0.3068610    -0.0163620
  C        0.1096870    -0.2710340    -0.0061280
  C        1.2434549     0.5995123    -0.0015864
  C        0.3284730    -1.6588570    -0.0015270
  C        2.5300300     0.0689490     0.0091910
  C        1.6277130    -2.1636760     0.0089260
  C        2.7309420    -1.3104680     0.0141480
  C       -2.3977350    -0.3210840    -0.0173950
  C       -3.5624210     0.6474400     0.0363070
  H       -0.5282050    -2.3191560    -0.0064230
  H       -1.1804810     1.3202100    -0.0131680
  H        3.3690000     0.7589460     0.0128930
  H        1.7714720    -3.2410880     0.0123870
  H        3.7417620    -1.7087950     0.0220870
  H       -3.7187230     0.9816890     1.0666350
  H       -4.4568090     0.1237200    -0.3002800
  H       -3.3965620     1.5279900    -0.5904610
units angstrom
no_reorient  #important for SAPT in psi4, default
symmetry c1  #important for SAPT in psi4, default
}

set PROPERTIES_ORIGIN ["COM"]
properties('MP2/aug-cc-pvtz', properties = ['dipole'])
--------------------------------------------------------------------------

    Molecular point group: c1
  Charge       = 0
  Multiplicity = 1
  Basis Set: AUG-CC-PVTZ
    Blend: AUG-CC-PVTZ
  Basis Set: (AUG-CC-PVTZ AUX)
    Blend: AUG-CC-PVTZ-JKFIT

    Orbital Energies [Eh]
    ---------------------

    Doubly Occupied:

       1A   -104.858712     2A    -20.535407     3A    -15.613462
       4A    -11.371443     5A    -11.310046     6A    -11.308445
       7A    -11.256286     8A    -11.248272     9A    -11.247967
      10A    -11.243190    11A    -11.238951    12A    -10.582792
      13A     -8.049706    14A     -8.047890    15A     -8.047790
      16A     -1.390383    17A     -1.270637    18A     -1.183933
      19A     -1.126940    20A     -1.043602    21A     -1.008723
      22A     -0.985337    23A     -0.870321    24A     -0.830052
      25A     -0.788277    26A     -0.735668    27A     -0.687822
      28A     -0.676470    29A     -0.635519    30A     -0.633362
      31A     -0.620499    32A     -0.597002    33A     -0.593383
      34A     -0.574270    35A     -0.570120    36A     -0.538508
      37A     -0.529890    38A     -0.514805    39A     -0.480742
      40A     -0.471807    41A     -0.451108    42A     -0.434050
      43A     -0.344039    44A     -0.316030

  @DF-RHF Final Energy:  -896.60571298803052

   => Energetics <=

    Nuclear Repulsion Energy =            656.1672198796613884
    One-Electron Energy =               -2531.8185444724499575
    Two-Electron Energy =                 979.0456116047580508
    Total Energy =                       -896.6057129880305183
  Basis Set: (AUG-CC-PVTZ AUX)
    Blend: AUG-CC-PVTZ-RI
    Molecular point group: c1

    Geometry (in Angstrom), charge = 0, multiplicity = 1:

       Center              X                  Y                   Z               Mass
    ------------   -----------------  -----------------  -----------------  -----------------
         CL           0.991563997356     2.283489915893    -0.006360983565    34.968852682000
         O           -2.586940002644    -1.571038084107    -0.025201983565    15.994914619570
         N           -1.200769002644     0.276942915893    -0.015123983565    14.003074004430
         C            0.077299997356    -0.300952084107    -0.004889983565    12.000000000000
         C            1.211067897356     0.569594215893    -0.000348383565    12.000000000000
         C            0.296085997356    -1.688775084107    -0.000288983565    12.000000000000
         C            2.497642997356     0.039030915893     0.010429016435    12.000000000000
         C            1.595325997356    -2.193594084107     0.010164016435    12.000000000000
         C            2.698554997356    -1.340386084107     0.015386016435    12.000000000000
         C           -2.430122002644    -0.351002084107    -0.016156983565    12.000000000000
         C           -3.594808002644     0.617521915893     0.037545016435    12.000000000000
         H           -0.560592002644    -2.349074084107    -0.005184983565     1.007825032230
         H           -1.212868002644     1.290291915893    -0.011929983565     1.007825032230
         H            3.336612997356     0.729027915893     0.014131016435     1.007825032230
         H            1.739084997356    -3.271006084107     0.013625016435     1.007825032230
         H            3.709374997356    -1.738713084107     0.023325016435     1.007825032230
         H           -3.751110002644     0.951770915893     1.067873016435     1.007825032230
         H           -4.489196002644     0.093801915893    -0.299041983565     1.007825032230
         H           -3.428949002644     1.498071915893    -0.589222983565     1.007825032230

  Basis Set: AUG-CC-PVTZ
    Blend: AUG-CC-PVTZ
  Basis Set: (AUG-CC-PVTZ AUX)
    Blend: AUG-CC-PVTZ-JKFIT
	 Reference Energy          =    -896.6057129880305183 [Eh]
	 Singles Energy            =      -0.0000000000000000 [Eh]
	 Same-Spin Energy          =      -0.5342031079087871 [Eh]
	 Opposite-Spin Energy      =      -1.6207855176609169 [Eh]
	 Correlation Energy        =      -2.1549886255697039 [Eh]
	 Total Energy              =    -898.7607016136001903 [Eh]

	 ================> DF-SCS-MP2 Energies <==================
	-----------------------------------------------------------
	 SCS Same-Spin Scale       =       0.3333333333333333 [-]
	 SCS Opposite-Spin Scale   =       1.2000000000000000 [-]
	 SCS Same-Spin Energy      =      -0.1780677026362624 [Eh]
	 SCS Opposite-Spin Energy  =      -1.9449426211931002 [Eh]
	 SCS Correlation Energy    =      -2.1230103238293627 [Eh]
	 SCS Total Energy          =    -898.7287233118598806 [Eh]
	-----------------------------------------------------------

  Dipole Moment: [D]
     X:     0.5743      Y:     1.9650      Z:     0.0884     Total:     2.0491

*** Psi4 exiting successfully. Buy a developer a beer!
