                               Psi4 1.4a3.dev225

  ==> Input File <==

--------------------------------------------------------------------------
#psi4
#
memory 32 gb

molecule  {
0 1
 Cl        1.0239510     2.3134080    -0.0075990
  O       -2.5545530    -1.5411200    -0.0264400
  N       -1.1683820     0.3068610    -0.0163620
  C        0.1096870    -0.2710340    -0.0061280
  C        1.2343910     0.5769770    -0.0015960
  C        0.3284730    -1.6588570    -0.0015270
  C        2.5300300     0.0689490     0.0091910
  C        1.5345045    -2.1274599     0.0081761
  C        2.7309420    -1.3104680     0.0141480
  C       -2.3977350    -0.3210840    -0.0173950
  C       -3.5624210     0.6474400     0.0363070
  H       -0.5282050    -2.3191560    -0.0064230
  H       -1.1804810     1.3202100    -0.0131680
  H        3.3690000     0.7589460     0.0128930
  H        1.7714720    -3.2410880     0.0123870
  H        3.7417620    -1.7087950     0.0220870
  H       -3.7187230     0.9816890     1.0666350
  H       -4.4568090     0.1237200    -0.3002800
  H       -3.3965620     1.5279900    -0.5904610
units angstrom
no_reorient  #important for SAPT in psi4, default
symmetry c1  #important for SAPT in psi4, default
}

set PROPERTIES_ORIGIN ["COM"]
properties('MP2/aug-cc-pvtz', properties = ['dipole'])
--------------------------------------------------------------------------

    Molecular point group: c1
  Charge       = 0
  Multiplicity = 1
  Basis Set: AUG-CC-PVTZ
    Blend: AUG-CC-PVTZ
  Basis Set: (AUG-CC-PVTZ AUX)
    Blend: AUG-CC-PVTZ-JKFIT

    Orbital Energies [Eh]
    ---------------------

    Doubly Occupied:

       1A   -104.855498     2A    -20.536293     3A    -15.614978
       4A    -11.372764     5A    -11.310506     6A    -11.305324
       7A    -11.255961     8A    -11.249034     9A    -11.248124
      10A    -11.245713    11A    -11.228733    12A    -10.579303
      13A     -8.046165    14A     -8.044427    15A     -8.044320
      16A     -1.391585    17A     -1.272688    18A     -1.182954
      19A     -1.130496    20A     -1.044500    21A     -1.019716
      22A     -0.982468    23A     -0.870601    24A     -0.830013
      25A     -0.792237    26A     -0.732440    27A     -0.689213
      28A     -0.677859    29A     -0.638787    30A     -0.634704
      31A     -0.616965    32A     -0.598620    33A     -0.591432
      34A     -0.576389    35A     -0.570704    36A     -0.548263
      37A     -0.529094    38A     -0.494203    39A     -0.482432
      40A     -0.470799    41A     -0.451636    42A     -0.434480
      43A     -0.358336    44A     -0.312027

  @DF-RHF Final Energy:  -896.59345872048220

   => Energetics <=

    Nuclear Repulsion Energy =            657.6902852552515242
    One-Electron Energy =               -2534.8419222687398360
    Two-Electron Energy =                 980.5581782930059944
    Total Energy =                       -896.5934587204822037
  Basis Set: (AUG-CC-PVTZ AUX)
    Blend: AUG-CC-PVTZ-RI
    Molecular point group: c1

    Geometry (in Angstrom), charge = 0, multiplicity = 1:

       Center              X                  Y                   Z               Mass
    ------------   -----------------  -----------------  -----------------  -----------------
         CL           0.998824678032     2.282518667343    -0.006307063964    34.968852682000
         O           -2.579679321968    -1.572009332657    -0.025148063964    15.994914619570
         N           -1.193508321968     0.275971667343    -0.015070063964    14.003074004430
         C            0.084560678032    -0.301923332657    -0.004836063964    12.000000000000
         C            1.209264678032     0.546087667343    -0.000304063964    12.000000000000
         C            0.303346678032    -1.689746332657    -0.000235063964    12.000000000000
         C            2.504903678032     0.038059667343     0.010482936036    12.000000000000
         C            1.509378178032    -2.158349232657     0.009468036036    12.000000000000
         C            2.705815678032    -1.341357332657     0.015439936036    12.000000000000
         C           -2.422861321968    -0.351973332657    -0.016103063964    12.000000000000
         C           -3.587547321968     0.616550667343     0.037598936036    12.000000000000
         H           -0.553331321968    -2.350045332657    -0.005131063964     1.007825032230
         H           -1.205607321968     1.289320667343    -0.011876063964     1.007825032230
         H            3.343873678032     0.728056667343     0.014184936036     1.007825032230
         H            1.746345678032    -3.271977332657     0.013678936036     1.007825032230
         H            3.716635678032    -1.739684332657     0.023378936036     1.007825032230
         H           -3.743849321968     0.950799667343     1.067926936036     1.007825032230
         H           -4.481935321968     0.092830667343    -0.298988063964     1.007825032230
         H           -3.421688321968     1.497100667343    -0.589169063964     1.007825032230

  Basis Set: AUG-CC-PVTZ
    Blend: AUG-CC-PVTZ
  Basis Set: (AUG-CC-PVTZ AUX)
    Blend: AUG-CC-PVTZ-JKFIT
	 Reference Energy          =    -896.5934587204822037 [Eh]
	 Singles Energy            =      -0.0000000000000000 [Eh]
	 Same-Spin Energy          =      -0.5337567103249929 [Eh]
	 Opposite-Spin Energy      =      -1.6207153540958943 [Eh]
	 Correlation Energy        =      -2.1544720644208875 [Eh]
	 Total Energy              =    -898.7479307849031329 [Eh]

	 ================> DF-SCS-MP2 Energies <==================
	-----------------------------------------------------------
	 SCS Same-Spin Scale       =       0.3333333333333333 [-]
	 SCS Opposite-Spin Scale   =       1.2000000000000000 [-]
	 SCS Same-Spin Energy      =      -0.1779189034416643 [Eh]
	 SCS Opposite-Spin Energy  =      -1.9448584249150731 [Eh]
	 SCS Correlation Energy    =      -2.1227773283567375 [Eh]
	 SCS Total Energy          =    -898.7162360488389368 [Eh]
	-----------------------------------------------------------

  Dipole Moment: [D]
     X:     0.5843      Y:     1.8753      Z:     0.0891     Total:     1.9663

*** Psi4 exiting successfully. Buy a developer a beer!
