                               Psi4 1.4a3.dev225

  ==> Input File <==

--------------------------------------------------------------------------
#psi4
#
memory 32 gb

molecule  {
0 1
 Cl        1.0239510     2.3134080    -0.0075990
  O       -2.5545530    -1.5411200    -0.0264400
  N       -1.1683820     0.3068610    -0.0163620
  C        0.1096870    -0.2710340    -0.0061280
  C        1.2343910     0.5769770    -0.0015960
  C        0.3284730    -1.6588570    -0.0015270
  C        2.5300300     0.0689490     0.0091910
  C        1.6277130    -2.1636760     0.0089260
  C        2.7309420    -1.3104680     0.0141480
  C       -2.3977350    -0.3210840    -0.0173950
  C       -3.5624210     0.6474400     0.0363070
  H       -0.5282050    -2.3191560    -0.0064230
  H       -1.1804810     1.3202100    -0.0131680
  H        3.3690000     0.7589460     0.0128930
  H        1.7648591    -3.1915275     0.0122278
  H        3.7417620    -1.7087950     0.0220870
  H       -3.7187230     0.9816890     1.0666350
  H       -4.4568090     0.1237200    -0.3002800
  H       -3.3965620     1.5279900    -0.5904610
units angstrom
no_reorient  #important for SAPT in psi4, default
symmetry c1  #important for SAPT in psi4, default
}

set PROPERTIES_ORIGIN ["COM"]
properties('MP2/aug-cc-pvtz', properties = ['dipole'])
--------------------------------------------------------------------------

    Molecular point group: c1
  Charge       = 0
  Multiplicity = 1
  Basis Set: AUG-CC-PVTZ
    Blend: AUG-CC-PVTZ
  Basis Set: (AUG-CC-PVTZ AUX)
    Blend: AUG-CC-PVTZ-JKFIT

    Orbital Energies [Eh]
    ---------------------

    Doubly Occupied:

       1A   -104.856379     2A    -20.535445     3A    -15.613405
       4A    -11.371601     5A    -11.308816     6A    -11.307675
       7A    -11.256719     8A    -11.248281     9A    -11.244000
      10A    -11.242184    11A    -11.239468    12A    -10.580194
      13A     -8.047055    14A     -8.045308    15A     -8.045208
      16A     -1.390502    17A     -1.271175    18A     -1.181777
      19A     -1.125509    20A     -1.044750    21A     -1.009911
      22A     -0.988246    23A     -0.871488    24A     -0.832917
      25A     -0.789977    26A     -0.739734    27A     -0.688682
      28A     -0.676389    29A     -0.636162    30A     -0.633618
      31A     -0.624273    32A     -0.597652    33A     -0.593594
      34A     -0.574663    35A     -0.570343    36A     -0.538347
      37A     -0.528765    38A     -0.516648    39A     -0.479562
      40A     -0.470838    41A     -0.451369    42A     -0.434399
      43A     -0.344426    44A     -0.318651

  @DF-RHF Final Energy:  -896.60615832735493

   => Energetics <=

    Nuclear Repulsion Energy =            656.5368110086126308
    One-Electron Energy =               -2532.5537319827462852
    Two-Electron Energy =                 979.4107626467787213
    Total Energy =                       -896.6061583273549331
  Basis Set: (AUG-CC-PVTZ AUX)
    Blend: AUG-CC-PVTZ-RI
    Molecular point group: c1

    Geometry (in Angstrom), charge = 0, multiplicity = 1:

       Center              X                  Y                   Z               Mass
    ------------   -----------------  -----------------  -----------------  -----------------
         CL           0.992246904696     2.284794276160    -0.006359352809    34.968852682000
         O           -2.586257095304    -1.569733723840    -0.025200352809    15.994914619570
         N           -1.200086095304     0.278247276160    -0.015122352809    14.003074004430
         C            0.077982904696    -0.299647723840    -0.004888352809    12.000000000000
         C            1.202686904696     0.548363276160    -0.000356352809    12.000000000000
         C            0.296768904696    -1.687470723840    -0.000287352809    12.000000000000
         C            2.498325904696     0.040335276160     0.010430647191    12.000000000000
         C            1.596008904696    -2.192289723840     0.010165647191    12.000000000000
         C            2.699237904696    -1.339081723840     0.015387647191    12.000000000000
         C           -2.429439095304    -0.349697723840    -0.016155352809    12.000000000000
         C           -3.594125095304     0.618826276160     0.037546647191    12.000000000000
         H           -0.559909095304    -2.347769723840    -0.005183352809     1.007825032230
         H           -1.212185095304     1.291596276160    -0.011928352809     1.007825032230
         H            3.337295904696     0.730332276160     0.014132647191     1.007825032230
         H            1.733155004696    -3.220141223840     0.013467447191     1.007825032230
         H            3.710057904696    -1.737408723840     0.023326647191     1.007825032230
         H           -3.750427095304     0.953075276160     1.067874647191     1.007825032230
         H           -4.488513095304     0.095106276160    -0.299040352809     1.007825032230
         H           -3.428266095304     1.499376276160    -0.589221352809     1.007825032230

  Basis Set: AUG-CC-PVTZ
    Blend: AUG-CC-PVTZ
  Basis Set: (AUG-CC-PVTZ AUX)
    Blend: AUG-CC-PVTZ-JKFIT
	 Reference Energy          =    -896.6061583273549331 [Eh]
	 Singles Energy            =      -0.0000000000000000 [Eh]
	 Same-Spin Energy          =      -0.5338796176975569 [Eh]
	 Opposite-Spin Energy      =      -1.6201652867274807 [Eh]
	 Correlation Energy        =      -2.1540449044250378 [Eh]
	 Total Energy              =    -898.7602032317799967 [Eh]

	 ================> DF-SCS-MP2 Energies <==================
	-----------------------------------------------------------
	 SCS Same-Spin Scale       =       0.3333333333333333 [-]
	 SCS Opposite-Spin Scale   =       1.2000000000000000 [-]
	 SCS Same-Spin Energy      =      -0.1779598725658523 [Eh]
	 SCS Opposite-Spin Energy  =      -1.9441983440729769 [Eh]
	 SCS Correlation Energy    =      -2.1221582166388293 [Eh]
	 SCS Total Energy          =    -898.7283165439937420 [Eh]
	-----------------------------------------------------------

  Dipole Moment: [D]
     X:     0.5971      Y:     1.8517      Z:     0.0890     Total:     1.9476

*** Psi4 exiting successfully. Buy a developer a beer!
