                               Psi4 1.4a3.dev225

  ==> Input File <==

--------------------------------------------------------------------------
#psi4
#
memory 32 gb

molecule  {
0 1
 Cl        1.0239510     2.3134080    -0.0075990
  O       -2.5545530    -1.5411200    -0.0264400
  N       -1.1683820     0.3068610    -0.0163620
  C        0.1096870    -0.2710340    -0.0061280
  C        1.2343910     0.5769770    -0.0015960
  C        0.3284730    -1.6588570    -0.0015270
  C        2.5300300     0.0689490     0.0091910
  C        1.6277130    -2.1636760     0.0089260
  C        2.7309420    -1.3104680     0.0141480
  C       -2.3086801    -0.2755954    -0.0173202
  C       -3.5624210     0.6474400     0.0363070
  H       -0.5282050    -2.3191560    -0.0064230
  H       -1.1804810     1.3202100    -0.0131680
  H        3.3690000     0.7589460     0.0128930
  H        1.7714720    -3.2410880     0.0123870
  H        3.7417620    -1.7087950     0.0220870
  H       -3.7187230     0.9816890     1.0666350
  H       -4.4568090     0.1237200    -0.3002800
  H       -3.3965620     1.5279900    -0.5904610
units angstrom
no_reorient  #important for SAPT in psi4, default
symmetry c1  #important for SAPT in psi4, default
}

set PROPERTIES_ORIGIN ["COM"]
properties('MP2/aug-cc-pvtz', properties = ['dipole'])
--------------------------------------------------------------------------

    Molecular point group: c1
  Charge       = 0
  Multiplicity = 1
  Basis Set: AUG-CC-PVTZ
    Blend: AUG-CC-PVTZ
  Basis Set: (AUG-CC-PVTZ AUX)
    Blend: AUG-CC-PVTZ-JKFIT

    Orbital Energies [Eh]
    ---------------------

    Doubly Occupied:

       1A   -104.863114     2A    -20.514242     3A    -15.628288
       4A    -11.363108     5A    -11.317200     6A    -11.314220
       7A    -11.262034     8A    -11.252884     9A    -11.251372
      10A    -11.246483    11A    -11.244860    12A    -10.586919
      13A     -8.053776    14A     -8.052015    15A     -8.051915
      16A     -1.369053    17A     -1.278702    18A     -1.193784
      19A     -1.131596    20A     -1.049859    21A     -1.011904
      22A     -0.983618    23A     -0.890410    24A     -0.839248
      25A     -0.802459    26A     -0.749587    27A     -0.684017
      28A     -0.671856    29A     -0.640760    30A     -0.638062
      31A     -0.623881    32A     -0.597515    33A     -0.576561
      34A     -0.571355    35A     -0.562762    36A     -0.542849
      37A     -0.532586    38A     -0.518032    39A     -0.481934
      40A     -0.477178    41A     -0.437254    42A     -0.415444
      43A     -0.349735    44A     -0.329652

  @DF-RHF Final Energy:  -896.59063511577574

   => Energetics <=

    Nuclear Repulsion Energy =            657.2807806160176369
    One-Electron Energy =               -2533.8346716772412037
    Two-Electron Energy =                 979.9632559454478269
    Total Energy =                       -896.5906351157757399
  Basis Set: (AUG-CC-PVTZ AUX)
    Blend: AUG-CC-PVTZ-RI
    Molecular point group: c1

    Geometry (in Angstrom), charge = 0, multiplicity = 1:

       Center              X                  Y                   Z               Mass
    ------------   -----------------  -----------------  -----------------  -----------------
         CL           0.985885152351     2.281860379657    -0.006365612345    34.968852682000
         O           -2.592618847649    -1.572667620343    -0.025206612345    15.994914619570
         N           -1.206447847649     0.275313379657    -0.015128612345    14.003074004430
         C            0.071621152351    -0.302581620343    -0.004894612345    12.000000000000
         C            1.196325152351     0.545429379657    -0.000362612345    12.000000000000
         C            0.290407152351    -1.690404620343    -0.000293612345    12.000000000000
         C            2.491964152351     0.037401379657     0.010424387655    12.000000000000
         C            1.589647152351    -2.195223620343     0.010159387655    12.000000000000
         C            2.692876152351    -1.342015620343     0.015381387655    12.000000000000
         C           -2.346745947649    -0.307143020343    -0.016086812345    12.000000000000
         C           -3.600486847649     0.615892379657     0.037540387655    12.000000000000
         H           -0.566270847649    -2.350703620343    -0.005189612345     1.007825032230
         H           -1.218546847649     1.288662379657    -0.011934612345     1.007825032230
         H            3.330934152351     0.727398379657     0.014126387655     1.007825032230
         H            1.733406152351    -3.272635620343     0.013620387655     1.007825032230
         H            3.703696152351    -1.740342620343     0.023320387655     1.007825032230
         H           -3.756788847649     0.950141379657     1.067868387655     1.007825032230
         H           -4.494874847649     0.092172379657    -0.299046612345     1.007825032230
         H           -3.434627847649     1.496442379657    -0.589227612345     1.007825032230

  Basis Set: AUG-CC-PVTZ
    Blend: AUG-CC-PVTZ
  Basis Set: (AUG-CC-PVTZ AUX)
    Blend: AUG-CC-PVTZ-JKFIT
	 Reference Energy          =    -896.5906351157757399 [Eh]
	 Singles Energy            =      -0.0000000000000000 [Eh]
	 Same-Spin Energy          =      -0.5347831667252194 [Eh]
	 Opposite-Spin Energy      =      -1.6222059104875846 [Eh]
	 Correlation Energy        =      -2.1569890772128040 [Eh]
	 Total Energy              =    -898.7476241929884964 [Eh]

	 ================> DF-SCS-MP2 Energies <==================
	-----------------------------------------------------------
	 SCS Same-Spin Scale       =       0.3333333333333333 [-]
	 SCS Opposite-Spin Scale   =       1.2000000000000000 [-]
	 SCS Same-Spin Energy      =      -0.1782610555750731 [Eh]
	 SCS Opposite-Spin Energy  =      -1.9466470925851014 [Eh]
	 SCS Correlation Energy    =      -2.1249081481601744 [Eh]
	 SCS Total Energy          =    -898.7155432639359560 [Eh]
	-----------------------------------------------------------

  Dipole Moment: [D]
     X:     1.6537      Y:     2.1762      Z:     0.0882     Total:     2.7347

*** Psi4 exiting successfully. Buy a developer a beer!
