                               Psi4 1.4a3.dev225

  ==> Input File <==

--------------------------------------------------------------------------
#psi4
#
memory 32 gb

molecule  {
0 1
 Cl        1.0239510     2.3134080    -0.0075990
  O       -2.5545530    -1.5411200    -0.0264400
  N       -1.1683820     0.3068610    -0.0163620
  C        0.1096870    -0.2710340    -0.0061280
  C        1.2343910     0.5769770    -0.0015960
  C        0.3284730    -1.6588570    -0.0015270
  C        2.5300300     0.0689490     0.0091910
  C        1.6277130    -2.1636760     0.0089260
  C        2.7309420    -1.3104680     0.0141480
  C       -2.3977350    -0.3210840    -0.0173950
  C       -3.5624210     0.6474400     0.0363070
  H       -0.5282050    -2.3191560    -0.0064230
  H       -1.1804810     1.3202100    -0.0131680
  H        3.5234682     0.8859858     0.0135746
  H        1.7714720    -3.2410880     0.0123870
  H        3.7417620    -1.7087950     0.0220870
  H       -3.7187230     0.9816890     1.0666350
  H       -4.4568090     0.1237200    -0.3002800
  H       -3.3965620     1.5279900    -0.5904610
units angstrom
no_reorient  #important for SAPT in psi4, default
symmetry c1  #important for SAPT in psi4, default
}

set PROPERTIES_ORIGIN ["COM"]
properties('MP2/aug-cc-pvtz', properties = ['dipole'])
--------------------------------------------------------------------------

    Molecular point group: c1
  Charge       = 0
  Multiplicity = 1
  Basis Set: AUG-CC-PVTZ
    Blend: AUG-CC-PVTZ
  Basis Set: (AUG-CC-PVTZ AUX)
    Blend: AUG-CC-PVTZ-JKFIT

    Orbital Energies [Eh]
    ---------------------

    Doubly Occupied:

       1A   -104.856283     2A    -20.535952     3A    -15.614141
       4A    -11.372140     5A    -11.310647     6A    -11.309392
       7A    -11.277458     8A    -11.249599     9A    -11.248644
      10A    -11.245818    11A    -11.240582    12A    -10.580087
      13A     -8.046944    14A     -8.045188    15A     -8.045090
      16A     -1.391027    17A     -1.271928    18A     -1.181499
      19A     -1.125686    20A     -1.043965    21A     -1.005858
      22A     -0.988409    23A     -0.869165    24A     -0.829766
      25A     -0.783470    26A     -0.734020    27A     -0.684195
      28A     -0.676744    29A     -0.637287    30A     -0.634136
      31A     -0.610821    32A     -0.594737    33A     -0.581093
      34A     -0.575427    35A     -0.570648    36A     -0.532858
      37A     -0.529264    38A     -0.504356    39A     -0.479989
      40A     -0.470979    41A     -0.452292    42A     -0.434568
      43A     -0.345518    44A     -0.319749

  @DF-RHF Final Energy:  -896.58437121893439

   => Energetics <=

    Nuclear Repulsion Energy =            655.2835217396511780
    One-Electron Energy =               -2530.0609502263705508
    Two-Electron Energy =                 978.1930572677849796
    Total Energy =                       -896.5843712189343933
  Basis Set: (AUG-CC-PVTZ AUX)
    Blend: AUG-CC-PVTZ-RI
    Molecular point group: c1

    Geometry (in Angstrom), charge = 0, multiplicity = 1:

       Center              X                  Y                   Z               Mass
    ------------   -----------------  -----------------  -----------------  -----------------
         CL           0.991286471038     2.284332311799    -0.006364366015    34.968852682000
         O           -2.587217528962    -1.570195688201    -0.025205366015    15.994914619570
         N           -1.201046528962     0.277785311799    -0.015127366015    14.003074004430
         C            0.077022471038    -0.300109688201    -0.004893366015    12.000000000000
         C            1.201726471038     0.547901311799    -0.000361366015    12.000000000000
         C            0.295808471038    -1.687932688201    -0.000292366015    12.000000000000
         C            2.497365471038     0.039873311799     0.010425633985    12.000000000000
         C            1.595048471038    -2.192751688201     0.010160633985    12.000000000000
         C            2.698277471038    -1.339543688201     0.015382633985    12.000000000000
         C           -2.430399528962    -0.350159688201    -0.016160366015    12.000000000000
         C           -3.595085528962     0.618364311799     0.037541633985    12.000000000000
         H           -0.560869528962    -2.348231688201    -0.005188366015     1.007825032230
         H           -1.213145528962     1.291134311799    -0.011933366015     1.007825032230
         H            3.490803671038     0.856910111799     0.014809233985     1.007825032230
         H            1.738807471038    -3.270163688201     0.013621633985     1.007825032230
         H            3.709097471038    -1.737870688201     0.023321633985     1.007825032230
         H           -3.751387528962     0.952613311799     1.067869633985     1.007825032230
         H           -4.489473528962     0.094644311799    -0.299045366015     1.007825032230
         H           -3.429226528962     1.498914311799    -0.589226366015     1.007825032230

  Basis Set: AUG-CC-PVTZ
    Blend: AUG-CC-PVTZ
  Basis Set: (AUG-CC-PVTZ AUX)
    Blend: AUG-CC-PVTZ-JKFIT
	 Reference Energy          =    -896.5843712189343933 [Eh]
	 Singles Energy            =      -0.0000000000000000 [Eh]
	 Same-Spin Energy          =      -0.5345767086189641 [Eh]
	 Opposite-Spin Energy      =      -1.6226566019750708 [Eh]
	 Correlation Energy        =      -2.1572333105940347 [Eh]
	 Total Energy              =    -898.7416045295284448 [Eh]

	 ================> DF-SCS-MP2 Energies <==================
	-----------------------------------------------------------
	 SCS Same-Spin Scale       =       0.3333333333333333 [-]
	 SCS Opposite-Spin Scale   =       1.2000000000000000 [-]
	 SCS Same-Spin Energy      =      -0.1781922362063214 [Eh]
	 SCS Opposite-Spin Energy  =      -1.9471879223700848 [Eh]
	 SCS Correlation Energy    =      -2.1253801585764061 [Eh]
	 SCS Total Energy          =    -898.7097513775107700 [Eh]
	-----------------------------------------------------------

  Dipole Moment: [D]
     X:     0.5517      Y:     1.8389      Z:     0.0888     Total:     1.9219

*** Psi4 exiting successfully. Buy a developer a beer!
