                               Psi4 1.4a3.dev225

  ==> Input File <==

--------------------------------------------------------------------------
#psi4
#
memory 32 gb

molecule  {
0 1
 Cl        1.0239510     2.3134080    -0.0075990
  O       -2.5545530    -1.5411200    -0.0264400
  N       -1.1683820     0.3068610    -0.0163620
  C        0.1096870    -0.2710340    -0.0061280
  C        1.2343910     0.5769770    -0.0015960
  C        0.3284730    -1.6588570    -0.0015270
  C        2.5300300     0.0689490     0.0091910
  C        1.6277130    -2.1636760     0.0089260
  C        2.7309420    -1.3104680     0.0141480
  C       -2.3977350    -0.3210840    -0.0173950
  C       -3.5624210     0.6474400     0.0363070
  H       -0.3697995    -2.1970623    -0.0055177
  H       -1.1804810     1.3202100    -0.0131680
  H        3.3690000     0.7589460     0.0128930
  H        1.7714720    -3.2410880     0.0123870
  H        3.7417620    -1.7087950     0.0220870
  H       -3.7187230     0.9816890     1.0666350
  H       -4.4568090     0.1237200    -0.3002800
  H       -3.3965620     1.5279900    -0.5904610
units angstrom
no_reorient  #important for SAPT in psi4, default
symmetry c1  #important for SAPT in psi4, default
}

set PROPERTIES_ORIGIN ["COM"]
properties('MP2/aug-cc-pvtz', properties = ['dipole'])
--------------------------------------------------------------------------

    Molecular point group: c1
  Charge       = 0
  Multiplicity = 1
  Basis Set: AUG-CC-PVTZ
    Blend: AUG-CC-PVTZ
  Basis Set: (AUG-CC-PVTZ AUX)
    Blend: AUG-CC-PVTZ-JKFIT

    Orbital Energies [Eh]
    ---------------------

    Doubly Occupied:

       1A   -104.856480     2A    -20.535556     3A    -15.613614
       4A    -11.371156     5A    -11.308966     6A    -11.307826
       7A    -11.257811     8A    -11.248826     9A    -11.248151
      10A    -11.244144    11A    -11.220125    12A    -10.580297
      13A     -8.047158    14A     -8.045412    15A     -8.045312
      16A     -1.389942    17A     -1.271607    18A     -1.182206
      19A     -1.127761    20A     -1.047825    21A     -1.015761
      22A     -0.987614    23A     -0.882158    24A     -0.834741
      25A     -0.796584    26A     -0.736068    27A     -0.698070
      28A     -0.686252    29A     -0.636703    30A     -0.636315
      31A     -0.633478    32A     -0.599765    33A     -0.592904
      34A     -0.574873    35A     -0.571179    36A     -0.541887
      37A     -0.528687    38A     -0.518501    39A     -0.479864
      40A     -0.471406    41A     -0.451350    42A     -0.437767
      43A     -0.345605    44A     -0.318997

  @DF-RHF Final Energy:  -896.57125921091972

   => Energetics <=

    Nuclear Repulsion Energy =            657.3306292184627182
    One-Electron Energy =               -2533.9503671176371427
    Two-Electron Energy =                 980.0484786882547041
    Total Energy =                       -896.5712592109197203
  Basis Set: (AUG-CC-PVTZ AUX)
    Blend: AUG-CC-PVTZ-RI
    Molecular point group: c1

    Geometry (in Angstrom), charge = 0, multiplicity = 1:

       Center              X                  Y                   Z               Mass
    ------------   -----------------  -----------------  -----------------  -----------------
         CL           0.991262995190     2.284361802539    -0.006365699809    34.968852682000
         O           -2.587241004810    -1.570166197461    -0.025206699809    15.994914619570
         N           -1.201070004810     0.277814802539    -0.015128699809    14.003074004430
         C            0.076998995190    -0.300080197461    -0.004894699809    12.000000000000
         C            1.201702995190     0.547930802539    -0.000362699809    12.000000000000
         C            0.295784995190    -1.687903197461    -0.000293699809    12.000000000000
         C            2.497341995190     0.039902802539     0.010424300191    12.000000000000
         C            1.595024995190    -2.192722197461     0.010159300191    12.000000000000
         C            2.698253995190    -1.339514197461     0.015381300191    12.000000000000
         C           -2.430423004810    -0.350130197461    -0.016161699809    12.000000000000
         C           -3.595109004810     0.618393802539     0.037540300191    12.000000000000
         H           -0.402487504810    -2.226108497461    -0.004284399809     1.007825032230
         H           -1.213169004810     1.291163802539    -0.011934699809     1.007825032230
         H            3.336311995190     0.729899802539     0.014126300191     1.007825032230
         H            1.738783995190    -3.270134197461     0.013620300191     1.007825032230
         H            3.709073995190    -1.737841197461     0.023320300191     1.007825032230
         H           -3.751411004810     0.952642802539     1.067868300191     1.007825032230
         H           -4.489497004810     0.094673802539    -0.299046699809     1.007825032230
         H           -3.429250004810     1.498943802539    -0.589227699809     1.007825032230

  Basis Set: AUG-CC-PVTZ
    Blend: AUG-CC-PVTZ
  Basis Set: (AUG-CC-PVTZ AUX)
    Blend: AUG-CC-PVTZ-JKFIT
	 Reference Energy          =    -896.5712592109197203 [Eh]
	 Singles Energy            =      -0.0000000000000000 [Eh]
	 Same-Spin Energy          =      -0.5333253874111346 [Eh]
	 Opposite-Spin Energy      =      -1.6197042925740501 [Eh]
	 Correlation Energy        =      -2.1530296799851847 [Eh]
	 Total Energy              =    -898.7242888909048588 [Eh]

	 ================> DF-SCS-MP2 Energies <==================
	-----------------------------------------------------------
	 SCS Same-Spin Scale       =       0.3333333333333333 [-]
	 SCS Opposite-Spin Scale   =       1.2000000000000000 [-]
	 SCS Same-Spin Energy      =      -0.1777751291370449 [Eh]
	 SCS Opposite-Spin Energy  =      -1.9436451510888602 [Eh]
	 SCS Correlation Energy    =      -2.1214202802259048 [Eh]
	 SCS Total Energy          =    -898.6926794911456682 [Eh]
	-----------------------------------------------------------

  Dipole Moment: [D]
     X:     0.6842      Y:     1.8978      Z:     0.0897     Total:     2.0194

*** Psi4 exiting successfully. Buy a developer a beer!
