                               Psi4 1.4a3.dev225

  ==> Input File <==

--------------------------------------------------------------------------
#psi4
#
memory 32 gb

molecule  {
0 1
 Cl        1.0239510     2.3134080    -0.0075990
  O       -2.5545530    -1.5411200    -0.0264400
  N       -1.1683820     0.3068610    -0.0163620
  C        0.1096870    -0.2710340    -0.0061280
  C        1.2343910     0.5769770    -0.0015960
  C        0.3284730    -1.6588570    -0.0015270
  C        2.5300300     0.0689490     0.0091910
  C        1.6277130    -2.1636760     0.0089260
  C        2.6913904    -1.3410562     0.0139608
  C       -2.3977350    -0.3210840    -0.0173950
  C       -3.5624210     0.6474400     0.0363070
  H       -0.5282050    -2.3191560    -0.0064230
  H       -1.1804810     1.3202100    -0.0131680
  H        3.3690000     0.7589460     0.0128930
  H        1.7714720    -3.2410880     0.0123870
  H        3.7417620    -1.7087950     0.0220870
  H       -3.7187230     0.9816890     1.0666350
  H       -4.4568090     0.1237200    -0.3002800
  H       -3.3965620     1.5279900    -0.5904610
units angstrom
no_reorient  #important for SAPT in psi4, default
symmetry c1  #important for SAPT in psi4, default
}

set PROPERTIES_ORIGIN ["COM"]
properties('MP2/aug-cc-pvtz', properties = ['dipole'])
--------------------------------------------------------------------------

    Molecular point group: c1
  Charge       = 0
  Multiplicity = 1
  Basis Set: AUG-CC-PVTZ
    Blend: AUG-CC-PVTZ
  Basis Set: (AUG-CC-PVTZ AUX)
    Blend: AUG-CC-PVTZ-JKFIT

    Orbital Energies [Eh]
    ---------------------

    Doubly Occupied:

       1A   -104.856680     2A    -20.535176     3A    -15.613065
       4A    -11.371213     5A    -11.309852     6A    -11.307301
       7A    -11.259674     8A    -11.248066     9A    -11.243889
      10A    -11.241679    11A    -11.239458    12A    -10.580536
      13A     -8.047395    14A     -8.045644    15A     -8.045548
      16A     -1.390158    17A     -1.271046    18A     -1.182716
      19A     -1.128710    20A     -1.043996    21A     -1.008527
      22A     -0.989909    23A     -0.873681    24A     -0.827003
      25A     -0.790549    26A     -0.736254    27A     -0.688811
      28A     -0.673696    29A     -0.636321    30A     -0.633416
      31A     -0.622331    32A     -0.596347    33A     -0.592553
      34A     -0.574916    35A     -0.569658    36A     -0.538249
      37A     -0.528884    38A     -0.511429    39A     -0.481411
      40A     -0.469890    41A     -0.452626    42A     -0.434343
      43A     -0.344849    44A     -0.319947

  @DF-RHF Final Energy:  -896.60375184331019

   => Energetics <=

    Nuclear Repulsion Energy =            656.7514052975594723
    One-Electron Energy =               -2532.9955113034825445
    Two-Electron Energy =                 979.6403541626129936
    Total Energy =                       -896.6037518433101923
  Basis Set: (AUG-CC-PVTZ AUX)
    Blend: AUG-CC-PVTZ-RI
    Molecular point group: c1

    Geometry (in Angstrom), charge = 0, multiplicity = 1:

       Center              X                  Y                   Z               Mass
    ------------   -----------------  -----------------  -----------------  -----------------
         CL           0.995015384255     2.287261341712    -0.006347012035    34.968852682000
         O           -2.583488615745    -1.567266658288    -0.025188012035    15.994914619570
         N           -1.197317615745     0.280714341712    -0.015110012035    14.003074004430
         C            0.080751384255    -0.297180658288    -0.004876012035    12.000000000000
         C            1.205455384255     0.550830341712    -0.000344012035    12.000000000000
         C            0.299537384255    -1.685003658288    -0.000275012035    12.000000000000
         C            2.501094384255     0.042802341712     0.010442987965    12.000000000000
         C            1.598777384255    -2.189822658288     0.010177987965    12.000000000000
         C            2.662454784255    -1.367202858288     0.015212787965    12.000000000000
         C           -2.426670615745    -0.347230658288    -0.016143012035    12.000000000000
         C           -3.591356615745     0.621293341712     0.037558987965    12.000000000000
         H           -0.557140615745    -2.345302658288    -0.005171012035     1.007825032230
         H           -1.209416615745     1.294063341712    -0.011916012035     1.007825032230
         H            3.340064384255     0.732799341712     0.014144987965     1.007825032230
         H            1.742536384255    -3.267234658288     0.013638987965     1.007825032230
         H            3.712826384255    -1.734941658288     0.023338987965     1.007825032230
         H           -3.747658615745     0.955542341712     1.067886987965     1.007825032230
         H           -4.485744615745     0.097573341712    -0.299028012035     1.007825032230
         H           -3.425497615745     1.501843341712    -0.589209012035     1.007825032230

  Basis Set: AUG-CC-PVTZ
    Blend: AUG-CC-PVTZ
  Basis Set: (AUG-CC-PVTZ AUX)
    Blend: AUG-CC-PVTZ-JKFIT
	 Reference Energy          =    -896.6037518433101923 [Eh]
	 Singles Energy            =      -0.0000000000000000 [Eh]
	 Same-Spin Energy          =      -0.5340299162126115 [Eh]
	 Opposite-Spin Energy      =      -1.6205313406895607 [Eh]
	 Correlation Energy        =      -2.1545612569021722 [Eh]
	 Total Energy              =    -898.7583131002123764 [Eh]

	 ================> DF-SCS-MP2 Energies <==================
	-----------------------------------------------------------
	 SCS Same-Spin Scale       =       0.3333333333333333 [-]
	 SCS Opposite-Spin Scale   =       1.2000000000000000 [-]
	 SCS Same-Spin Energy      =      -0.1780099720708705 [Eh]
	 SCS Opposite-Spin Energy  =      -1.9446376088274728 [Eh]
	 SCS Correlation Energy    =      -2.1226475808983434 [Eh]
	 SCS Total Energy          =    -898.7263994242085801 [Eh]
	-----------------------------------------------------------

  Dipole Moment: [D]
     X:     0.5955      Y:     1.8720      Z:     0.0888     Total:     1.9665

*** Psi4 exiting successfully. Buy a developer a beer!
