                               Psi4 1.4a3.dev225

  ==> Input File <==

--------------------------------------------------------------------------
#psi4
#
memory 32 gb

molecule  {
0 1
 Cl        1.0239510     2.3134080    -0.0075990
  O       -2.5545530    -1.5411200    -0.0264400
  N       -1.1683820     0.3068610    -0.0163620
  C        0.1096870    -0.2710340    -0.0061280
  C        1.2343910     0.5769770    -0.0015960
  C        0.3284730    -1.6588570    -0.0015270
  C        2.5300300     0.0689490     0.0091910
  C        1.6277130    -2.1636760     0.0089260
  C        2.7309420    -1.3104680     0.0141480
  C       -2.3501117    -0.2543303    -0.0842437
  C       -3.5624210     0.6474400     0.0363070
  H       -0.5282050    -2.3191560    -0.0064230
  H       -1.1804810     1.3202100    -0.0131680
  H        3.3690000     0.7589460     0.0128930
  H        1.7714720    -3.2410880     0.0123870
  H        3.7417620    -1.7087950     0.0220870
  H       -3.7187230     0.9816890     1.0666350
  H       -4.4568090     0.1237200    -0.3002800
  H       -3.3965620     1.5279900    -0.5904610
units angstrom
no_reorient  #important for SAPT in psi4, default
symmetry c1  #important for SAPT in psi4, default
}

set PROPERTIES_ORIGIN ["COM"]
properties('MP2/aug-cc-pvtz', properties = ['dipole'])
--------------------------------------------------------------------------

    Molecular point group: c1
  Charge       = 0
  Multiplicity = 1
  Basis Set: AUG-CC-PVTZ
    Blend: AUG-CC-PVTZ
  Basis Set: (AUG-CC-PVTZ AUX)
    Blend: AUG-CC-PVTZ-JKFIT

    Orbital Energies [Eh]
    ---------------------

    Doubly Occupied:

       1A   -104.861495     2A    -20.516255     3A    -15.626391
       4A    -11.367639     5A    -11.315561     6A    -11.313337
       7A    -11.260681     8A    -11.251369     9A    -11.249737
      10A    -11.248074    11A    -11.244613    12A    -10.585305
      13A     -8.052164    14A     -8.050404    15A     -8.050305
      16A     -1.360197    17A     -1.270443    18A     -1.190430
      19A     -1.129979    20A     -1.051062    21A     -1.011933
      22A     -0.990805    23A     -0.884928    24A     -0.837051
      25A     -0.797762    26A     -0.745945    27A     -0.683883
      28A     -0.674371    29A     -0.639462    30A     -0.635768
      31A     -0.622874    32A     -0.596305    33A     -0.580768
      34A     -0.575305    35A     -0.561467    36A     -0.541514
      37A     -0.528853    38A     -0.516846    39A     -0.480129
      40A     -0.475486    41A     -0.434555    42A     -0.420523
      43A     -0.348204    44A     -0.326811

  @DF-RHF Final Energy:  -896.58994409118930

   => Energetics <=

    Nuclear Repulsion Energy =            656.5755880572222623
    One-Electron Energy =               -2532.5170830017054868
    Two-Electron Energy =                 979.3515508532938156
    Total Energy =                       -896.5899440911892952
  Basis Set: (AUG-CC-PVTZ AUX)
    Blend: AUG-CC-PVTZ-RI
    Molecular point group: c1

    Geometry (in Angstrom), charge = 0, multiplicity = 1:

       Center              X                  Y                   Z               Mass
    ------------   -----------------  -----------------  -----------------  -----------------
         CL           0.988826528690     2.280350694731    -0.001614475545    34.968852682000
         O           -2.589677471310    -1.574177305269    -0.020455475545    15.994914619570
         N           -1.203506471310     0.273803694731    -0.010377475545    14.003074004430
         C            0.074562528690    -0.304091305269    -0.000143475545    12.000000000000
         C            1.199266528690     0.543919694731     0.004388524455    12.000000000000
         C            0.293348528690    -1.691914305269     0.004457524455    12.000000000000
         C            2.494905528690     0.035891694731     0.015175524455    12.000000000000
         C            1.592588528690    -2.196733305269     0.014910524455    12.000000000000
         C            2.695817528690    -1.343525305269     0.020132524455    12.000000000000
         C           -2.385236171310    -0.287387605269    -0.078259175545    12.000000000000
         C           -3.597545471310     0.614382694731     0.042291524455    12.000000000000
         H           -0.563329471310    -2.352213305269    -0.000438475545     1.007825032230
         H           -1.215605471310     1.287152694731    -0.007183475545     1.007825032230
         H            3.333875528690     0.725888694731     0.018877524455     1.007825032230
         H            1.736347528690    -3.274145305269     0.018371524455     1.007825032230
         H            3.706637528690    -1.741852305269     0.028071524455     1.007825032230
         H           -3.753847471310     0.948631694731     1.072619524455     1.007825032230
         H           -4.491933471310     0.090662694731    -0.294295475545     1.007825032230
         H           -3.431686471310     1.494932694731    -0.584476475545     1.007825032230

  Basis Set: AUG-CC-PVTZ
    Blend: AUG-CC-PVTZ
  Basis Set: (AUG-CC-PVTZ AUX)
    Blend: AUG-CC-PVTZ-JKFIT
	 Reference Energy          =    -896.5899440911892952 [Eh]
	 Singles Energy            =      -0.0000000000000000 [Eh]
	 Same-Spin Energy          =      -0.5354610028504490 [Eh]
	 Opposite-Spin Energy      =      -1.6235644847799013 [Eh]
	 Correlation Energy        =      -2.1590254876303501 [Eh]
	 Total Energy              =    -898.7489695788196968 [Eh]

	 ================> DF-SCS-MP2 Energies <==================
	-----------------------------------------------------------
	 SCS Same-Spin Scale       =       0.3333333333333333 [-]
	 SCS Opposite-Spin Scale   =       1.2000000000000000 [-]
	 SCS Same-Spin Energy      =      -0.1784870009501496 [Eh]
	 SCS Opposite-Spin Energy  =      -1.9482773817358816 [Eh]
	 SCS Correlation Energy    =      -2.1267643826860314 [Eh]
	 SCS Total Energy          =    -898.7167084738753147 [Eh]
	-----------------------------------------------------------

  Dipole Moment: [D]
     X:     1.3551      Y:     2.2311      Z:     0.0632     Total:     2.6111

*** Psi4 exiting successfully. Buy a developer a beer!
