                               Psi4 1.4a3.dev225

  ==> Input File <==

--------------------------------------------------------------------------
#psi4
#
memory 32 gb

molecule  {
0 1
 Cl        1.0239510     2.3134080    -0.0075990
  O       -2.5545530    -1.5411200    -0.0264400
  N       -1.1683820     0.3068610    -0.0163620
  C        0.1096870    -0.2710340    -0.0061280
  C        1.2343910     0.5769770    -0.0015960
  C        0.3284730    -1.6588570    -0.0015270
  C        2.5300300     0.0689490     0.0091910
  C        1.6277130    -2.1636760     0.0089260
  C        2.6518388    -1.3716443     0.0137736
  C       -2.3977350    -0.3210840    -0.0173950
  C       -3.5624210     0.6474400     0.0363070
  H       -0.5282050    -2.3191560    -0.0064230
  H       -1.1804810     1.3202100    -0.0131680
  H        3.3690000     0.7589460     0.0128930
  H        1.7714720    -3.2410880     0.0123870
  H        3.7417620    -1.7087950     0.0220870
  H       -3.7187230     0.9816890     1.0666350
  H       -4.4568090     0.1237200    -0.3002800
  H       -3.3965620     1.5279900    -0.5904610
units angstrom
no_reorient  #important for SAPT in psi4, default
symmetry c1  #important for SAPT in psi4, default
}

set PROPERTIES_ORIGIN ["COM"]
properties('MP2/aug-cc-pvtz', properties = ['dipole'])
--------------------------------------------------------------------------

    Molecular point group: c1
  Charge       = 0
  Multiplicity = 1
  Basis Set: AUG-CC-PVTZ
    Blend: AUG-CC-PVTZ
  Basis Set: (AUG-CC-PVTZ AUX)
    Blend: AUG-CC-PVTZ-JKFIT

    Orbital Energies [Eh]
    ---------------------

    Doubly Occupied:

       1A   -104.856842     2A    -20.534856     3A    -15.612634
       4A    -11.370764     5A    -11.311052     6A    -11.306423
       7A    -11.262261     8A    -11.247806     9A    -11.242779
      10A    -11.239364    11A    -11.234555    12A    -10.580739
      13A     -8.047597    14A     -8.045842    15A     -8.045751
      16A     -1.389755    17A     -1.270826    18A     -1.183814
      19A     -1.133052    20A     -1.043969    21A     -1.008790
      22A     -0.991286    23A     -0.876184    24A     -0.822824
      25A     -0.791169    26A     -0.736559    27A     -0.689140
      28A     -0.671728    29A     -0.636775    30A     -0.633148
      31A     -0.622789    32A     -0.596867    33A     -0.593398
      34A     -0.575109    35A     -0.568836    36A     -0.539718
      37A     -0.528964    38A     -0.504650    39A     -0.483674
      40A     -0.467892    41A     -0.454012    42A     -0.434125
      43A     -0.347100    44A     -0.319770

  @DF-RHF Final Energy:  -896.59316993202981

   => Energetics <=

    Nuclear Repulsion Energy =            657.2784454682791875
    One-Electron Energy =               -2534.0328532807734518
    Two-Electron Energy =                 980.1612378804644550
    Total Energy =                       -896.5931699320298094
  Basis Set: (AUG-CC-PVTZ AUX)
    Blend: AUG-CC-PVTZ-RI
    Molecular point group: c1

    Geometry (in Angstrom), charge = 0, multiplicity = 1:

       Center              X                  Y                   Z               Mass
    ------------   -----------------  -----------------  -----------------  -----------------
         CL           0.997823292721     2.289432899498    -0.006333722042    34.968852682000
         O           -2.580680707279    -1.565095100502    -0.025174722042    15.994914619570
         N           -1.194509707279     0.282885899498    -0.015096722042    14.003074004430
         C            0.083559292721    -0.295009100502    -0.004862722042    12.000000000000
         C            1.208263292721     0.553001899498    -0.000330722042    12.000000000000
         C            0.302345292721    -1.682832100502    -0.000261722042    12.000000000000
         C            2.503902292721     0.044973899498     0.010456277958    12.000000000000
         C            1.601585292721    -2.187651100502     0.010191277958    12.000000000000
         C            2.625711092721    -1.395619400502     0.015038877958    12.000000000000
         C           -2.423862707279    -0.345059100502    -0.016129722042    12.000000000000
         C           -3.588548707279     0.623464899498     0.037572277958    12.000000000000
         H           -0.554332707279    -2.343131100502    -0.005157722042     1.007825032230
         H           -1.206608707279     1.296234899498    -0.011902722042     1.007825032230
         H            3.342872292721     0.734970899498     0.014158277958     1.007825032230
         H            1.745344292721    -3.265063100502     0.013652277958     1.007825032230
         H            3.715634292721    -1.732770100502     0.023352277958     1.007825032230
         H           -3.744850707279     0.957713899498     1.067900277958     1.007825032230
         H           -4.482936707279     0.099744899498    -0.299014722042     1.007825032230
         H           -3.422689707279     1.504014899498    -0.589195722042     1.007825032230

  Basis Set: AUG-CC-PVTZ
    Blend: AUG-CC-PVTZ
  Basis Set: (AUG-CC-PVTZ AUX)
    Blend: AUG-CC-PVTZ-JKFIT
	 Reference Energy          =    -896.5931699320298094 [Eh]
	 Singles Energy            =      -0.0000000000000000 [Eh]
	 Same-Spin Energy          =      -0.5340092595006489 [Eh]
	 Opposite-Spin Energy      =      -1.6208556233330405 [Eh]
	 Correlation Energy        =      -2.1548648828336896 [Eh]
	 Total Energy              =    -898.7480348148634448 [Eh]

	 ================> DF-SCS-MP2 Energies <==================
	-----------------------------------------------------------
	 SCS Same-Spin Scale       =       0.3333333333333333 [-]
	 SCS Opposite-Spin Scale   =       1.2000000000000000 [-]
	 SCS Same-Spin Energy      =      -0.1780030865002163 [Eh]
	 SCS Opposite-Spin Energy  =      -1.9450267479996484 [Eh]
	 SCS Correlation Energy    =      -2.1230298344998646 [Eh]
	 SCS Total Energy          =    -898.7161997665297122 [Eh]
	-----------------------------------------------------------

  Dipole Moment: [D]
     X:     0.5953      Y:     1.8812      Z:     0.0886     Total:     1.9752

*** Psi4 exiting successfully. Buy a developer a beer!
