                               Psi4 1.4a3.dev225

  ==> Input File <==

--------------------------------------------------------------------------
#psi4
#
memory 32 gb

molecule  {
0 1
 Cl        1.0239510     2.3134080    -0.0075990
  O       -2.5545530    -1.5411200    -0.0264400
  N       -1.1683820     0.3068610    -0.0163620
  C        0.1096870    -0.2710340    -0.0061280
  C        1.2343910     0.5769770    -0.0015960
  C        0.3284730    -1.6588570    -0.0015270
  C        2.5300300     0.0689490     0.0091910
  C        1.6129911    -2.1442919     0.0087741
  C        2.7309420    -1.3104680     0.0141480
  C       -2.3977350    -0.3210840    -0.0173950
  C       -3.5624210     0.6474400     0.0363070
  H       -0.5282050    -2.3191560    -0.0064230
  H       -1.1804810     1.3202100    -0.0131680
  H        3.3690000     0.7589460     0.0128930
  H        1.7714720    -3.2410880     0.0123870
  H        3.7417620    -1.7087950     0.0220870
  H       -3.7187230     0.9816890     1.0666350
  H       -4.4568090     0.1237200    -0.3002800
  H       -3.3965620     1.5279900    -0.5904610
units angstrom
no_reorient  #important for SAPT in psi4, default
symmetry c1  #important for SAPT in psi4, default
}

set PROPERTIES_ORIGIN ["COM"]
properties('MP2/aug-cc-pvtz', properties = ['dipole'])
--------------------------------------------------------------------------

    Molecular point group: c1
  Charge       = 0
  Multiplicity = 1
  Basis Set: AUG-CC-PVTZ
    Blend: AUG-CC-PVTZ
  Basis Set: (AUG-CC-PVTZ AUX)
    Blend: AUG-CC-PVTZ-JKFIT

    Orbital Energies [Eh]
    ---------------------

    Doubly Occupied:

       1A   -104.856217     2A    -20.535790     3A    -15.613795
       4A    -11.371962     5A    -11.309012     6A    -11.307438
       7A    -11.256907     8A    -11.248514     9A    -11.247602
      10A    -11.243729    11A    -11.237736    12A    -10.580030
      13A     -8.046892    14A     -8.045145    15A     -8.045043
      16A     -1.390864    17A     -1.271630    18A     -1.182397
      19A     -1.126808    20A     -1.045177    21A     -1.010716
      22A     -0.987000    23A     -0.872013    24A     -0.829902
      25A     -0.790574    26A     -0.734399    27A     -0.688809
      28A     -0.677340    29A     -0.636944    30A     -0.633940
      31A     -0.620081    32A     -0.597305    33A     -0.589652
      34A     -0.575236    35A     -0.570837    36A     -0.541863
      37A     -0.529034    38A     -0.509056    39A     -0.480537
      40A     -0.470905    41A     -0.451999    42A     -0.434842
      43A     -0.346877    44A     -0.318212

  @DF-RHF Final Energy:  -896.60636776921751

   => Energetics <=

    Nuclear Repulsion Energy =            656.7504123714229536
    One-Electron Energy =               -2532.9920344001134254
    Two-Electron Energy =                 979.6352542594729584
    Total Energy =                       -896.6063677692175133
  Basis Set: (AUG-CC-PVTZ AUX)
    Blend: AUG-CC-PVTZ-RI
    Molecular point group: c1

    Geometry (in Angstrom), charge = 0, multiplicity = 1:

       Center              X                  Y                   Z               Mass
    ------------   -----------------  -----------------  -----------------  -----------------
         CL           0.993252635722     2.283713630766    -0.006349518107    34.968852682000
         O           -2.585251364278    -1.570814369234    -0.025190518107    15.994914619570
         N           -1.199080364278     0.277166630766    -0.015112518107    14.003074004430
         C            0.078988635722    -0.300728369234    -0.004878518107    12.000000000000
         C            1.203692635722     0.547282630766    -0.000346518107    12.000000000000
         C            0.297774635722    -1.688551369234    -0.000277518107    12.000000000000
         C            2.499331635722     0.039254630766     0.010440481893    12.000000000000
         C            1.582292735722    -2.173986269234     0.010023581893    12.000000000000
         C            2.700243635722    -1.340162369234     0.015397481893    12.000000000000
         C           -2.428433364278    -0.350778369234    -0.016145518107    12.000000000000
         C           -3.593119364278     0.617745630766     0.037556481893    12.000000000000
         H           -0.558903364278    -2.348850369234    -0.005173518107     1.007825032230
         H           -1.211179364278     1.290515630766    -0.011918518107     1.007825032230
         H            3.338301635722     0.729251630766     0.014142481893     1.007825032230
         H            1.740773635722    -3.270782369234     0.013636481893     1.007825032230
         H            3.711063635722    -1.738489369234     0.023336481893     1.007825032230
         H           -3.749421364278     0.951994630766     1.067884481893     1.007825032230
         H           -4.487507364278     0.094025630766    -0.299030518107     1.007825032230
         H           -3.427260364278     1.498295630766    -0.589211518107     1.007825032230

  Basis Set: AUG-CC-PVTZ
    Blend: AUG-CC-PVTZ
  Basis Set: (AUG-CC-PVTZ AUX)
    Blend: AUG-CC-PVTZ-JKFIT
	 Reference Energy          =    -896.6063677692175133 [Eh]
	 Singles Energy            =      -0.0000000000000000 [Eh]
	 Same-Spin Energy          =      -0.5339609899084360 [Eh]
	 Opposite-Spin Energy      =      -1.6203659258031284 [Eh]
	 Correlation Energy        =      -2.1543269157115645 [Eh]
	 Total Energy              =    -898.7606946849290352 [Eh]

	 ================> DF-SCS-MP2 Energies <==================
	-----------------------------------------------------------
	 SCS Same-Spin Scale       =       0.3333333333333333 [-]
	 SCS Opposite-Spin Scale   =       1.2000000000000000 [-]
	 SCS Same-Spin Energy      =      -0.1779869966361453 [Eh]
	 SCS Opposite-Spin Energy  =      -1.9444391109637540 [Eh]
	 SCS Correlation Energy    =      -2.1224261075998991 [Eh]
	 SCS Total Energy          =    -898.7287938768174627 [Eh]
	-----------------------------------------------------------

  Dipole Moment: [D]
     X:     0.5888      Y:     1.8736      Z:     0.0890     Total:     1.9659

*** Psi4 exiting successfully. Buy a developer a beer!
