                               Psi4 1.4a3.dev225

  ==> Input File <==

--------------------------------------------------------------------------
#psi4
#
memory 32 gb

molecule  {
0 1
 Cl        1.0239510     2.3134080    -0.0075990
  O       -2.5545530    -1.5411200    -0.0264400
  N       -1.1683820     0.3068610    -0.0163620
  C        0.1096870    -0.2710340    -0.0061280
  C        1.2343910     0.5769770    -0.0015960
  C        0.3284730    -1.6588570    -0.0015270
  C        2.5300300     0.0689490     0.0091910
  C        1.6581603    -2.2016586     0.0092346
  C        2.7309420    -1.3104680     0.0141480
  C       -2.3977350    -0.3210840    -0.0173950
  C       -3.5624210     0.6474400     0.0363070
  H       -0.5282050    -2.3191560    -0.0064230
  H       -1.1804810     1.3202100    -0.0131680
  H        3.3690000     0.7589460     0.0128930
  H        1.7714720    -3.2410880     0.0123870
  H        3.7417620    -1.7087950     0.0220870
  H       -3.7187230     0.9816890     1.0666350
  H       -4.4568090     0.1237200    -0.3002800
  H       -3.3965620     1.5279900    -0.5904610
units angstrom
no_reorient  #important for SAPT in psi4, default
symmetry c1  #important for SAPT in psi4, default
}

set PROPERTIES_ORIGIN ["COM"]
properties('MP2/aug-cc-pvtz', properties = ['dipole'])
--------------------------------------------------------------------------

    Molecular point group: c1
  Charge       = 0
  Multiplicity = 1
  Basis Set: AUG-CC-PVTZ
    Blend: AUG-CC-PVTZ
  Basis Set: (AUG-CC-PVTZ AUX)
    Blend: AUG-CC-PVTZ-JKFIT

    Orbital Energies [Eh]
    ---------------------

    Doubly Occupied:

       1A   -104.857092     2A    -20.535065     3A    -15.613128
       4A    -11.371203     5A    -11.310187     6A    -11.307764
       7A    -11.257318     8A    -11.249720     9A    -11.248051
      10A    -11.245015    11A    -11.244184    12A    -10.580909
      13A     -8.047768    14A     -8.046017    15A     -8.045921
      16A     -1.390099    17A     -1.270803    18A     -1.181139
      19A     -1.122169    20A     -1.044497    21A     -1.005602
      22A     -0.988727    23A     -0.870654    24A     -0.832457
      25A     -0.788692    26A     -0.739229    27A     -0.688012
      28A     -0.674365    29A     -0.635713    30A     -0.633331
      31A     -0.626381    32A     -0.597145    33A     -0.592724
      34A     -0.574111    35A     -0.569697    36A     -0.530652
      37A     -0.528659    38A     -0.522146    39A     -0.478347
      40A     -0.470929    41A     -0.450706    42A     -0.433671
      43A     -0.340333    44A     -0.320205

  @DF-RHF Final Energy:  -896.60333930701472

   => Energetics <=

    Nuclear Repulsion Energy =            655.3087115540282639
    One-Electron Energy =               -2530.1030344684168085
    Two-Electron Energy =                 978.1909836073737097
    Total Energy =                       -896.6033393070147213
  Basis Set: (AUG-CC-PVTZ AUX)
    Blend: AUG-CC-PVTZ-RI
    Molecular point group: c1

    Geometry (in Angstrom), charge = 0, multiplicity = 1:

       Center              X                  Y                   Z               Mass
    ------------   -----------------  -----------------  -----------------  -----------------
         CL           0.990045913893     2.287786296413    -0.006382210636    34.968852682000
         O           -2.588458086107    -1.566741703587    -0.025223210636    15.994914619570
         N           -1.202287086107     0.281239296413    -0.015145210636    14.003074004430
         C            0.075781913893    -0.296655703587    -0.004911210636    12.000000000000
         C            1.200485913893     0.551355296413    -0.000379210636    12.000000000000
         C            0.294567913893    -1.684478703587    -0.000310210636    12.000000000000
         C            2.496124913893     0.043327296413     0.010407789364    12.000000000000
         C            1.624255213893    -2.227280303587     0.010451389364    12.000000000000
         C            2.697036913893    -1.336089703587     0.015364789364    12.000000000000
         C           -2.431640086107    -0.346705703587    -0.016178210636    12.000000000000
         C           -3.596326086107     0.621818296413     0.037523789364    12.000000000000
         H           -0.562110086107    -2.344777703587    -0.005206210636     1.007825032230
         H           -1.214386086107     1.294588296413    -0.011951210636     1.007825032230
         H            3.335094913893     0.733324296413     0.014109789364     1.007825032230
         H            1.737566913893    -3.266709703587     0.013603789364     1.007825032230
         H            3.707856913893    -1.734416703587     0.023303789364     1.007825032230
         H           -3.752628086107     0.956067296413     1.067851789364     1.007825032230
         H           -4.490714086107     0.098098296413    -0.299063210636     1.007825032230
         H           -3.430467086107     1.502368296413    -0.589244210636     1.007825032230

  Basis Set: AUG-CC-PVTZ
    Blend: AUG-CC-PVTZ
  Basis Set: (AUG-CC-PVTZ AUX)
    Blend: AUG-CC-PVTZ-JKFIT
	 Reference Energy          =    -896.6033393070147213 [Eh]
	 Singles Energy            =      -0.0000000000000000 [Eh]
	 Same-Spin Energy          =      -0.5339979266216381 [Eh]
	 Opposite-Spin Energy      =      -1.6209237357037494 [Eh]
	 Correlation Energy        =      -2.1549216623253873 [Eh]
	 Total Energy              =    -898.7582609693400855 [Eh]

	 ================> DF-SCS-MP2 Energies <==================
	-----------------------------------------------------------
	 SCS Same-Spin Scale       =       0.3333333333333333 [-]
	 SCS Opposite-Spin Scale   =       1.2000000000000000 [-]
	 SCS Same-Spin Energy      =      -0.1779993088738794 [Eh]
	 SCS Opposite-Spin Energy  =      -1.9451084828444991 [Eh]
	 SCS Correlation Energy    =      -2.1231077917183785 [Eh]
	 SCS Total Energy          =    -898.7264470987330469 [Eh]
	-----------------------------------------------------------

  Dipole Moment: [D]
     X:     0.5958      Y:     1.8574      Z:     0.0888     Total:     1.9526

*** Psi4 exiting successfully. Buy a developer a beer!
