                               Psi4 1.4a3.dev225

  ==> Input File <==

--------------------------------------------------------------------------
#psi4
#
memory 32 gb

molecule  {
0 1
 Cl        1.0239510     2.3134080    -0.0075990
  O       -2.5545530    -1.5411200    -0.0264400
  N       -1.1683820     0.3068610    -0.0163620
  C        0.1096870    -0.2710340    -0.0061280
  C        1.2343910     0.5769770    -0.0015960
  C        0.3440453    -1.7576365    -0.0011995
  C        2.5300300     0.0689490     0.0091910
  C        1.6277130    -2.1636760     0.0089260
  C        2.7309420    -1.3104680     0.0141480
  C       -2.3977350    -0.3210840    -0.0173950
  C       -3.5624210     0.6474400     0.0363070
  H       -0.5282050    -2.3191560    -0.0064230
  H       -1.1804810     1.3202100    -0.0131680
  H        3.3690000     0.7589460     0.0128930
  H        1.7714720    -3.2410880     0.0123870
  H        3.7417620    -1.7087950     0.0220870
  H       -3.7187230     0.9816890     1.0666350
  H       -4.4568090     0.1237200    -0.3002800
  H       -3.3965620     1.5279900    -0.5904610
units angstrom
no_reorient  #important for SAPT in psi4, default
symmetry c1  #important for SAPT in psi4, default
}

set PROPERTIES_ORIGIN ["COM"]
properties('MP2/aug-cc-pvtz', properties = ['dipole'])
--------------------------------------------------------------------------

    Molecular point group: c1
  Charge       = 0
  Multiplicity = 1
  Basis Set: AUG-CC-PVTZ
    Blend: AUG-CC-PVTZ
  Basis Set: (AUG-CC-PVTZ AUX)
    Blend: AUG-CC-PVTZ-JKFIT

    Orbital Energies [Eh]
    ---------------------

    Doubly Occupied:

       1A   -104.855674     2A    -20.537839     3A    -15.616583
       4A    -11.373474     5A    -11.317693     6A    -11.306128
       7A    -11.257609     8A    -11.249580     9A    -11.244279
      10A    -11.243667    11A    -11.242131    12A    -10.579496
      13A     -8.046358    14A     -8.044617    15A     -8.044509
      16A     -1.392448    17A     -1.270830    18A     -1.180709
      19A     -1.124803    20A     -1.040746    21A     -1.015845
      22A     -0.983265    23A     -0.874826    24A     -0.824990
      25A     -0.792805    26A     -0.733429    27A     -0.690925
      28A     -0.684554    29A     -0.636104    30A     -0.634428
      31A     -0.618897    32A     -0.598460    33A     -0.592871
      34A     -0.572857    35A     -0.571406    36A     -0.547258
      37A     -0.529388    38A     -0.499982    39A     -0.478857
      40A     -0.471221    41A     -0.454109    42A     -0.438556
      43A     -0.351426    44A     -0.310708

  @DF-RHF Final Energy:  -896.59557301618599

   => Energetics <=

    Nuclear Repulsion Energy =            654.7151136948341446
    One-Electron Energy =               -2528.8686973928929547
    Two-Electron Energy =                 977.5580106818728154
    Total Energy =                       -896.5955730161859947
  Basis Set: (AUG-CC-PVTZ AUX)
    Blend: AUG-CC-PVTZ-RI
    Molecular point group: c1

    Geometry (in Angstrom), charge = 0, multiplicity = 1:

       Center              X                  Y                   Z               Mass
    ------------   -----------------  -----------------  -----------------  -----------------
         CL           0.991101942940     2.292102484133    -0.006383552415    34.968852682000
         O           -2.587402057060    -1.562425515867    -0.025224552415    15.994914619570
         N           -1.201231057060     0.285555484133    -0.015146552415    14.003074004430
         C            0.076837942940    -0.292339515867    -0.004912552415    12.000000000000
         C            1.201541942940     0.555671484133    -0.000380552415    12.000000000000
         C            0.311196242940    -1.778942015867     0.000015947585    12.000000000000
         C            2.497180942940     0.047643484133     0.010406447585    12.000000000000
         C            1.594863942940    -2.184981515867     0.010141447585    12.000000000000
         C            2.698092942940    -1.331773515867     0.015363447585    12.000000000000
         C           -2.430584057060    -0.342389515867    -0.016179552415    12.000000000000
         C           -3.595270057060     0.626134484133     0.037522447585    12.000000000000
         H           -0.561054057060    -2.340461515867    -0.005207552415     1.007825032230
         H           -1.213330057060     1.298904484133    -0.011952552415     1.007825032230
         H            3.336150942940     0.737640484133     0.014108447585     1.007825032230
         H            1.738622942940    -3.262393515867     0.013602447585     1.007825032230
         H            3.708912942940    -1.730100515867     0.023302447585     1.007825032230
         H           -3.751572057060     0.960383484133     1.067850447585     1.007825032230
         H           -4.489658057060     0.102414484133    -0.299064552415     1.007825032230
         H           -3.429411057060     1.506684484133    -0.589245552415     1.007825032230

  Basis Set: AUG-CC-PVTZ
    Blend: AUG-CC-PVTZ
  Basis Set: (AUG-CC-PVTZ AUX)
    Blend: AUG-CC-PVTZ-JKFIT
	 Reference Energy          =    -896.5955730161859947 [Eh]
	 Singles Energy            =      -0.0000000000000000 [Eh]
	 Same-Spin Energy          =      -0.5337225450214991 [Eh]
	 Opposite-Spin Energy      =      -1.6209549097693428 [Eh]
	 Correlation Energy        =      -2.1546774547908418 [Eh]
	 Total Energy              =    -898.7502504709768800 [Eh]

	 ================> DF-SCS-MP2 Energies <==================
	-----------------------------------------------------------
	 SCS Same-Spin Scale       =       0.3333333333333333 [-]
	 SCS Opposite-Spin Scale   =       1.2000000000000000 [-]
	 SCS Same-Spin Energy      =      -0.1779075150071663 [Eh]
	 SCS Opposite-Spin Energy  =      -1.9451458917232112 [Eh]
	 SCS Correlation Energy    =      -2.1230534067303775 [Eh]
	 SCS Total Energy          =    -898.7186264229163726 [Eh]
	-----------------------------------------------------------

  Dipole Moment: [D]
     X:     0.5211      Y:     1.8754      Z:     0.0889     Total:     1.9485

*** Psi4 exiting successfully. Buy a developer a beer!
