                               Psi4 1.4a3.dev225

  ==> Input File <==

--------------------------------------------------------------------------
#psi4
#
memory 32 gb

molecule  {
0 1
 Cl        1.0239510     2.3134080    -0.0075990
  O       -2.5545530    -1.5411200    -0.0264400
  N       -1.1683820     0.3068610    -0.0163620
  C        0.1096870    -0.2710340    -0.0061280
  C        1.2343910     0.5769770    -0.0015960
  C        0.3284730    -1.6588570    -0.0015270
  C        2.5300300     0.0689490     0.0091910
  C        1.6277130    -2.1636760     0.0089260
  C        2.7309420    -1.3104680     0.0141480
  C       -2.3977350    -0.3210840    -0.0173950
  C       -3.5624210     0.6474400     0.0363070
  H       -0.5282050    -2.3191560    -0.0064230
  H       -1.1804810     1.3202100    -0.0131680
  H        3.3535532     0.7462420     0.0128248
  H        1.7714720    -3.2410880     0.0123870
  H        3.7417620    -1.7087950     0.0220870
  H       -3.7187230     0.9816890     1.0666350
  H       -4.4568090     0.1237200    -0.3002800
  H       -3.3965620     1.5279900    -0.5904610
units angstrom
no_reorient  #important for SAPT in psi4, default
symmetry c1  #important for SAPT in psi4, default
}

set PROPERTIES_ORIGIN ["COM"]
properties('MP2/aug-cc-pvtz', properties = ['dipole'])
--------------------------------------------------------------------------

    Molecular point group: c1
  Charge       = 0
  Multiplicity = 1
  Basis Set: AUG-CC-PVTZ
    Blend: AUG-CC-PVTZ
  Basis Set: (AUG-CC-PVTZ AUX)
    Blend: AUG-CC-PVTZ-JKFIT

    Orbital Energies [Eh]
    ---------------------

    Doubly Occupied:

       1A   -104.856519     2A    -20.535506     3A    -15.613518
       4A    -11.371666     5A    -11.308901     6A    -11.307767
       7A    -11.254771     8A    -11.248331     9A    -11.248172
      10A    -11.243938    11A    -11.239897    12A    -10.580334
      13A     -8.047195    14A     -8.045448    15A     -8.045348
      16A     -1.390566    17A     -1.271286    18A     -1.181988
      19A     -1.125145    20A     -1.045100    21A     -1.009399
      22A     -0.987516    23A     -0.871952    24A     -0.830841
      25A     -0.790833    26A     -0.736289    27A     -0.689105
      28A     -0.676298    29A     -0.636237    30A     -0.633687
      31A     -0.623671    32A     -0.597682    33A     -0.591268
      34A     -0.574775    35A     -0.570420    36A     -0.538909
      37A     -0.528858    38A     -0.514378    39A     -0.479716
      40A     -0.470929    41A     -0.451485    42A     -0.434478
      43A     -0.344570    44A     -0.318785

  @DF-RHF Final Energy:  -896.60709257261237

   => Energetics <=

    Nuclear Repulsion Energy =            656.3698337621239034
    One-Electron Energy =               -2532.2269040279684305
    Two-Electron Energy =                 979.2499776932320401
    Total Energy =                       -896.6070925726123733
  Basis Set: (AUG-CC-PVTZ AUX)
    Blend: AUG-CC-PVTZ-RI
    Molecular point group: c1

    Geometry (in Angstrom), charge = 0, multiplicity = 1:

       Center              X                  Y                   Z               Mass
    ------------   -----------------  -----------------  -----------------  -----------------
         CL           0.992299576144     2.285165523448    -0.006359895390    34.968852682000
         O           -2.586204423856    -1.569362476552    -0.025200895390    15.994914619570
         N           -1.200033423856     0.278618523448    -0.015122895390    14.003074004430
         C            0.078035576144    -0.299276476552    -0.004888895390    12.000000000000
         C            1.202739576144     0.548734523448    -0.000356895390    12.000000000000
         C            0.296821576144    -1.687099476552    -0.000287895390    12.000000000000
         C            2.498378576144     0.040706523448     0.010430104610    12.000000000000
         C            1.596061576144    -2.191918476552     0.010165104610    12.000000000000
         C            2.699290576144    -1.338710476552     0.015387104610    12.000000000000
         C           -2.429386423856    -0.349326476552    -0.016155895390    12.000000000000
         C           -3.594072423856     0.619197523448     0.037546104610    12.000000000000
         H           -0.559856423856    -2.347398476552    -0.005183895390     1.007825032230
         H           -1.212132423856     1.291967523448    -0.011928895390     1.007825032230
         H            3.321901776144     0.717999523448     0.014063904610     1.007825032230
         H            1.739820576144    -3.269330476552     0.013626104610     1.007825032230
         H            3.710110576144    -1.737037476552     0.023326104610     1.007825032230
         H           -3.750374423856     0.953446523448     1.067874104610     1.007825032230
         H           -4.488460423856     0.095477523448    -0.299040895390     1.007825032230
         H           -3.428213423856     1.499747523448    -0.589221895390     1.007825032230

  Basis Set: AUG-CC-PVTZ
    Blend: AUG-CC-PVTZ
  Basis Set: (AUG-CC-PVTZ AUX)
    Blend: AUG-CC-PVTZ-JKFIT
	 Reference Energy          =    -896.6070925726123733 [Eh]
	 Singles Energy            =      -0.0000000000000000 [Eh]
	 Same-Spin Energy          =      -0.5339102549283012 [Eh]
	 Opposite-Spin Energy      =      -1.6203237717394767 [Eh]
	 Correlation Energy        =      -2.1542340266677780 [Eh]
	 Total Energy              =    -898.7613265992800962 [Eh]

	 ================> DF-SCS-MP2 Energies <==================
	-----------------------------------------------------------
	 SCS Same-Spin Scale       =       0.3333333333333333 [-]
	 SCS Opposite-Spin Scale   =       1.2000000000000000 [-]
	 SCS Same-Spin Energy      =      -0.1779700849761004 [Eh]
	 SCS Opposite-Spin Energy  =      -1.9443885260873719 [Eh]
	 SCS Correlation Energy    =      -2.1223586110634725 [Eh]
	 SCS Total Energy          =    -898.7294511836757920 [Eh]
	-----------------------------------------------------------

  Dipole Moment: [D]
     X:     0.5931      Y:     1.8665      Z:     0.0889     Total:     1.9605

*** Psi4 exiting successfully. Buy a developer a beer!
