                               Psi4 1.4a3.dev225

  ==> Input File <==

--------------------------------------------------------------------------
#psi4
#
memory 32 gb

molecule  {
0 1
 Cl        1.0239510     2.3134080    -0.0075990
  O       -2.5545530    -1.5411200    -0.0264400
  N       -1.1683820     0.3068610    -0.0163620
  C        0.1096870    -0.2710340    -0.0061280
  C        1.2343910     0.5769770    -0.0015960
  C        0.3284730    -1.6588570    -0.0015270
  C        2.5300300     0.0689490     0.0091910
  C        1.6277130    -2.1636760     0.0089260
  C        2.7309420    -1.3104680     0.0141480
  C       -2.3977350    -0.3210840    -0.0173950
  C       -3.5624210     0.6474400     0.0363070
  H       -0.5282050    -2.3191560    -0.0064230
  H       -1.1804810     1.3202100    -0.0131680
  H        3.3690000     0.7589460     0.0128930
  H        1.7714720    -3.2410880     0.0123870
  H        3.7417620    -1.7087950     0.0220870
  H       -3.7187230     0.9816890     1.0666350
  H       -4.4978463     0.0996901    -0.3157236
  H       -3.3965620     1.5279900    -0.5904610
units angstrom
no_reorient  #important for SAPT in psi4, default
symmetry c1  #important for SAPT in psi4, default
}

set PROPERTIES_ORIGIN ["COM"]
properties('MP2/aug-cc-pvtz', properties = ['dipole'])
--------------------------------------------------------------------------

    Molecular point group: c1
  Charge       = 0
  Multiplicity = 1
  Basis Set: AUG-CC-PVTZ
    Blend: AUG-CC-PVTZ
  Basis Set: (AUG-CC-PVTZ AUX)
    Blend: AUG-CC-PVTZ-JKFIT

    Orbital Energies [Eh]
    ---------------------

    Doubly Occupied:

       1A   -104.856593     2A    -20.535463     3A    -15.613865
       4A    -11.371993     5A    -11.309159     6A    -11.308025
       7A    -11.257106     8A    -11.253814     9A    -11.248358
      10A    -11.244166    11A    -11.240032    12A    -10.580407
      13A     -8.047268    14A     -8.045521    15A     -8.045421
      16A     -1.390564    17A     -1.271521    18A     -1.182008
      19A     -1.125266    20A     -1.043946    21A     -1.008336
      22A     -0.985649    23A     -0.870927    24A     -0.830470
      25A     -0.789662    26A     -0.735667    27A     -0.688576
      28A     -0.676153    29A     -0.636437    30A     -0.633571
      31A     -0.621196    32A     -0.597393    33A     -0.591083
      34A     -0.575031    35A     -0.561020    36A     -0.537990
      37A     -0.528457    38A     -0.514034    39A     -0.479782
      40A     -0.471025    41A     -0.451587    42A     -0.434621
      43A     -0.344707    44A     -0.318981

  @DF-RHF Final Energy:  -896.60474060586330

   => Energetics <=

    Nuclear Repulsion Energy =            656.0316859730810393
    One-Electron Energy =               -2531.5671504582437592
    Two-Electron Energy =                 978.9307238792994212
    Total Energy =                       -896.6047406058632987
  Basis Set: (AUG-CC-PVTZ AUX)
    Blend: AUG-CC-PVTZ-RI
    Molecular point group: c1

    Geometry (in Angstrom), charge = 0, multiplicity = 1:

       Center              X                  Y                   Z               Mass
    ------------   -----------------  -----------------  -----------------  -----------------
         CL           0.992452157530     2.285233053254    -0.006268220751    34.968852682000
         O           -2.586051842470    -1.569294946746    -0.025109220751    15.994914619570
         N           -1.199880842470     0.278686053254    -0.015031220751    14.003074004430
         C            0.078188157530    -0.299208946746    -0.004797220751    12.000000000000
         C            1.202892157530     0.548802053254    -0.000265220751    12.000000000000
         C            0.296974157530    -1.687031946746    -0.000196220751    12.000000000000
         C            2.498531157530     0.040774053254     0.010521779249    12.000000000000
         C            1.596214157530    -2.191850946746     0.010256779249    12.000000000000
         C            2.699443157530    -1.338642946746     0.015478779249    12.000000000000
         C           -2.429233842470    -0.349258946746    -0.016064220751    12.000000000000
         C           -3.593919842470     0.619265053254     0.037637779249    12.000000000000
         H           -0.559703842470    -2.347330946746    -0.005092220751     1.007825032230
         H           -1.211979842470     1.292035053254    -0.011837220751     1.007825032230
         H            3.337501157530     0.730771053254     0.014223779249     1.007825032230
         H            1.739973157530    -3.269262946746     0.013717779249     1.007825032230
         H            3.710263157530    -1.736969946746     0.023417779249     1.007825032230
         H           -3.750221842470     0.953514053254     1.067965779249     1.007825032230
         H           -4.529345142470     0.071515153254    -0.314392820751     1.007825032230
         H           -3.428060842470     1.499815053254    -0.589130220751     1.007825032230

  Basis Set: AUG-CC-PVTZ
    Blend: AUG-CC-PVTZ
  Basis Set: (AUG-CC-PVTZ AUX)
    Blend: AUG-CC-PVTZ-JKFIT
	 Reference Energy          =    -896.6047406058632987 [Eh]
	 Singles Energy            =      -0.0000000000000000 [Eh]
	 Same-Spin Energy          =      -0.5339757822884352 [Eh]
	 Opposite-Spin Energy      =      -1.6208211820671887 [Eh]
	 Correlation Energy        =      -2.1547969643556240 [Eh]
	 Total Energy              =    -898.7595375702188676 [Eh]

	 ================> DF-SCS-MP2 Energies <==================
	-----------------------------------------------------------
	 SCS Same-Spin Scale       =       0.3333333333333333 [-]
	 SCS Opposite-Spin Scale   =       1.2000000000000000 [-]
	 SCS Same-Spin Energy      =      -0.1779919274294784 [Eh]
	 SCS Opposite-Spin Energy  =      -1.9449854184806263 [Eh]
	 SCS Correlation Energy    =      -2.1229773459101047 [Eh]
	 SCS Total Energy          =    -898.7277179517734567 [Eh]
	-----------------------------------------------------------

  Dipole Moment: [D]
     X:     0.6061      Y:     1.8617      Z:     0.0907     Total:     1.9600

*** Psi4 exiting successfully. Buy a developer a beer!
