                               Psi4 1.4a3.dev225

  ==> Input File <==

--------------------------------------------------------------------------
#psi4
#
memory 32 gb

molecule  {
0 1
 Cl        1.0239510     2.3134080    -0.0075990
  O       -2.5545530    -1.5411200    -0.0264400
  N       -1.1683820     0.3068610    -0.0163620
  C        0.2919187    -0.3534323    -0.0046688
  C        1.2343910     0.5769770    -0.0015960
  C        0.3284730    -1.6588570    -0.0015270
  C        2.5300300     0.0689490     0.0091910
  C        1.6277130    -2.1636760     0.0089260
  C        2.7309420    -1.3104680     0.0141480
  C       -2.3977350    -0.3210840    -0.0173950
  C       -3.5624210     0.6474400     0.0363070
  H       -0.5282050    -2.3191560    -0.0064230
  H       -1.1804810     1.3202100    -0.0131680
  H        3.3690000     0.7589460     0.0128930
  H        1.7714720    -3.2410880     0.0123870
  H        3.7417620    -1.7087950     0.0220870
  H       -3.7187230     0.9816890     1.0666350
  H       -4.4568090     0.1237200    -0.3002800
  H       -3.3965620     1.5279900    -0.5904610
units angstrom
no_reorient  #important for SAPT in psi4, default
symmetry c1  #important for SAPT in psi4, default
}

set PROPERTIES_ORIGIN ["COM"]
properties('MP2/aug-cc-pvtz', properties = ['dipole'])
--------------------------------------------------------------------------

    Molecular point group: c1
  Charge       = 0
  Multiplicity = 1
  Basis Set: AUG-CC-PVTZ
    Blend: AUG-CC-PVTZ
  Basis Set: (AUG-CC-PVTZ AUX)
    Blend: AUG-CC-PVTZ-JKFIT

    Orbital Energies [Eh]
    ---------------------

    Doubly Occupied:

       1A   -104.867271     2A    -20.519063     3A    -15.592375
       4A    -11.356461     5A    -11.308983     6A    -11.303132
       7A    -11.262916     8A    -11.254915     9A    -11.251010
      10A    -11.237842    11A    -11.237497    12A    -10.590543
      13A     -8.057426    14A     -8.055555    15A     -8.055478
      16A     -1.372784    17A     -1.242579    18A     -1.181744
      19A     -1.142840    20A     -1.047222    21A     -1.021695
      22A     -0.989133    23A     -0.869978    24A     -0.833620
      25A     -0.777552    26A     -0.719051    27A     -0.681909
      28A     -0.665050    29A     -0.652498    30A     -0.622463
      31A     -0.617232    32A     -0.603801    33A     -0.580245
      34A     -0.579311    35A     -0.562308    36A     -0.535113
      37A     -0.520712    38A     -0.519832    39A     -0.490192
      40A     -0.473110    41A     -0.428190    42A     -0.419385
      43A     -0.354819    44A     -0.343227

  @DF-RHF Final Energy:  -896.56542904590310

   => Energetics <=

    Nuclear Repulsion Energy =            656.4852056710994930
    One-Electron Energy =               -2532.5051432938607832
    Two-Electron Energy =                 979.4545085768581885
    Total Energy =                       -896.5654290459031017
  Basis Set: (AUG-CC-PVTZ AUX)
    Blend: AUG-CC-PVTZ-RI
    Molecular point group: c1

    Geometry (in Angstrom), charge = 0, multiplicity = 1:

       Center              X                  Y                   Z               Mass
    ------------   -----------------  -----------------  -----------------  -----------------
         CL           0.979270200603     2.290939524603    -0.006463895814    34.968852682000
         O           -2.599233799397    -1.563588475397    -0.025304895814    15.994914619570
         N           -1.213062799397     0.284392524603    -0.015226895814    14.003074004430
         C            0.247237900603    -0.375900775397    -0.003533695814    12.000000000000
         C            1.189710200603     0.554508524603    -0.000460895814    12.000000000000
         C            0.283792200603    -1.681325475397    -0.000391895814    12.000000000000
         C            2.485349200603     0.046480524603     0.010326104186    12.000000000000
         C            1.583032200603    -2.186144475397     0.010061104186    12.000000000000
         C            2.686261200603    -1.332936475397     0.015283104186    12.000000000000
         C           -2.442415799397    -0.343552475397    -0.016259895814    12.000000000000
         C           -3.607101799397     0.624971524603     0.037442104186    12.000000000000
         H           -0.572885799397    -2.341624475397    -0.005287895814     1.007825032230
         H           -1.225161799397     1.297741524603    -0.012032895814     1.007825032230
         H            3.324319200603     0.736477524603     0.014028104186     1.007825032230
         H            1.726791200603    -3.263556475397     0.013522104186     1.007825032230
         H            3.697081200603    -1.731263475397     0.023222104186     1.007825032230
         H           -3.763403799397     0.959220524603     1.067770104186     1.007825032230
         H           -4.501489799397     0.101251524603    -0.299144895814     1.007825032230
         H           -3.441242799397     1.505521524603    -0.589325895814     1.007825032230

  Basis Set: AUG-CC-PVTZ
    Blend: AUG-CC-PVTZ
  Basis Set: (AUG-CC-PVTZ AUX)
    Blend: AUG-CC-PVTZ-JKFIT
	 Reference Energy          =    -896.5654290459031017 [Eh]
	 Singles Energy            =      -0.0000000000000000 [Eh]
	 Same-Spin Energy          =      -0.5335974242272853 [Eh]
	 Opposite-Spin Energy      =      -1.6211675345237055 [Eh]
	 Correlation Energy        =      -2.1547649587509907 [Eh]
	 Total Energy              =    -898.7201940046541040 [Eh]

	 ================> DF-SCS-MP2 Energies <==================
	-----------------------------------------------------------
	 SCS Same-Spin Scale       =       0.3333333333333333 [-]
	 SCS Opposite-Spin Scale   =       1.2000000000000000 [-]
	 SCS Same-Spin Energy      =      -0.1778658080757617 [Eh]
	 SCS Opposite-Spin Energy  =      -1.9454010414284466 [Eh]
	 SCS Correlation Energy    =      -2.1232668495042084 [Eh]
	 SCS Total Energy          =    -898.6886958954073634 [Eh]
	-----------------------------------------------------------

  Dipole Moment: [D]
     X:     1.7355      Y:     1.7504      Z:     0.0934     Total:     2.4667

*** Psi4 exiting successfully. Buy a developer a beer!
