                               Psi4 1.4a3.dev225

  ==> Input File <==

--------------------------------------------------------------------------
#psi4
#
memory 32 gb

molecule  {
0 1
 Cl        1.0239510     2.3134080    -0.0075990
  O       -2.5545530    -1.5411200    -0.0264400
  N       -1.1683820     0.3068610    -0.0163620
  C        0.1096870    -0.2710340    -0.0061280
  C        1.2343910     0.5769770    -0.0015960
  C        0.3284730    -1.6588570    -0.0015270
  C        2.5300300     0.0689490     0.0091910
  C        1.6277130    -2.1636760     0.0089260
  C        2.7309420    -1.3104680     0.0141480
  C       -2.4797291    -0.4122719     0.0832664
  C       -3.5624210     0.6474400     0.0363070
  H       -0.5282050    -2.3191560    -0.0064230
  H       -1.1804810     1.3202100    -0.0131680
  H        3.3690000     0.7589460     0.0128930
  H        1.7714720    -3.2410880     0.0123870
  H        3.7417620    -1.7087950     0.0220870
  H       -3.7187230     0.9816890     1.0666350
  H       -4.4568090     0.1237200    -0.3002800
  H       -3.3965620     1.5279900    -0.5904610
units angstrom
no_reorient  #important for SAPT in psi4, default
symmetry c1  #important for SAPT in psi4, default
}

set PROPERTIES_ORIGIN ["COM"]
properties('MP2/aug-cc-pvtz', properties = ['dipole'])
--------------------------------------------------------------------------

    Molecular point group: c1
  Charge       = 0
  Multiplicity = 1
  Basis Set: AUG-CC-PVTZ
    Blend: AUG-CC-PVTZ
  Basis Set: (AUG-CC-PVTZ AUX)
    Blend: AUG-CC-PVTZ-JKFIT

    Orbital Energies [Eh]
    ---------------------

    Doubly Occupied:

       1A   -104.848522     2A    -20.564038     3A    -15.591387
       4A    -11.377835     5A    -11.299870     6A    -11.297674
       7A    -11.252868     8A    -11.251036     9A    -11.243411
      10A    -11.235365    11A    -11.232742    12A    -10.572345
      13A     -8.039209    14A     -8.037479    15A     -8.037379
      16A     -1.466478    17A     -1.247493    18A     -1.166304
      19A     -1.117585    20A     -1.039872    21A     -1.004578
      22A     -0.980626    23A     -0.852792    24A     -0.820596
      25A     -0.780437    26A     -0.721863    27A     -0.707094
      28A     -0.670298    29A     -0.653168    30A     -0.643866
      31A     -0.623748    32A     -0.610811    33A     -0.585052
      34A     -0.568859    35A     -0.566201    36A     -0.545819
      37A     -0.534074    38A     -0.508595    39A     -0.479639
      40A     -0.463007    41A     -0.452017    42A     -0.440943
      43A     -0.338852    44A     -0.305865

  @DF-RHF Final Energy:  -896.58808309498068

   => Energetics <=

    Nuclear Repulsion Energy =            655.6375868601857064
    One-Electron Energy =               -2530.8959556251311369
    Two-Electron Energy =                 978.6702856699646418
    Total Energy =                       -896.5880830949806750
  Basis Set: (AUG-CC-PVTZ AUX)
    Blend: AUG-CC-PVTZ-RI
    Molecular point group: c1

    Geometry (in Angstrom), charge = 0, multiplicity = 1:

       Center              X                  Y                   Z               Mass
    ------------   -----------------  -----------------  -----------------  -----------------
         CL           0.998028527973     2.291563529504    -0.013506612095    34.968852682000
         O           -2.580475472027    -1.562964470496    -0.032347612095    15.994914619570
         N           -1.194304472027     0.285016529504    -0.022269612095    14.003074004430
         C            0.083764527973    -0.292878470496    -0.012035612095    12.000000000000
         C            1.208468527973     0.555132529504    -0.007503612095    12.000000000000
         C            0.302550527973    -1.680701470496    -0.007434612095    12.000000000000
         C            2.504107527973     0.047104529504     0.003283387905    12.000000000000
         C            1.601790527973    -2.185520470496     0.003018387905    12.000000000000
         C            2.705019527973    -1.332312470496     0.008240387905    12.000000000000
         C           -2.505651572027    -0.434116370496     0.077358787905    12.000000000000
         C           -3.588343472027     0.625595529504     0.030399387905    12.000000000000
         H           -0.554127472027    -2.341000470496    -0.012330612095     1.007825032230
         H           -1.206403472027     1.298365529504    -0.019075612095     1.007825032230
         H            3.343077527973     0.737101529504     0.006985387905     1.007825032230
         H            1.745549527973    -3.262932470496     0.006479387905     1.007825032230
         H            3.715839527973    -1.730639470496     0.016179387905     1.007825032230
         H           -3.744645472027     0.959844529504     1.060727387905     1.007825032230
         H           -4.482731472027     0.101875529504    -0.306187612095     1.007825032230
         H           -3.422484472027     1.506145529504    -0.596368612095     1.007825032230

  Basis Set: AUG-CC-PVTZ
    Blend: AUG-CC-PVTZ
  Basis Set: (AUG-CC-PVTZ AUX)
    Blend: AUG-CC-PVTZ-JKFIT
	 Reference Energy          =    -896.5880830949806750 [Eh]
	 Singles Energy            =      -0.0000000000000000 [Eh]
	 Same-Spin Energy          =      -0.5326875981325159 [Eh]
	 Opposite-Spin Energy      =      -1.6179991891060093 [Eh]
	 Correlation Energy        =      -2.1506867872385254 [Eh]
	 Total Energy              =    -898.7387698822192306 [Eh]

	 ================> DF-SCS-MP2 Energies <==================
	-----------------------------------------------------------
	 SCS Same-Spin Scale       =       0.3333333333333333 [-]
	 SCS Opposite-Spin Scale   =       1.2000000000000000 [-]
	 SCS Same-Spin Energy      =      -0.1775625327108386 [Eh]
	 SCS Opposite-Spin Energy  =      -1.9415990269272110 [Eh]
	 SCS Correlation Energy    =      -2.1191615596380498 [Eh]
	 SCS Total Energy          =    -898.7072446546187621 [Eh]
	-----------------------------------------------------------

  Dipole Moment: [D]
     X:    -0.7247      Y:     1.2937      Z:     0.1923     Total:     1.4953

*** Psi4 exiting successfully. Buy a developer a beer!
