                               Psi4 1.4a2.dev612

  ==> Input File <==

--------------------------------------------------------------------------
#psi4
#
memory 32 gb

molecule  {
0 1
  N        1.7773000    -0.9706020    -0.3863220
  C        1.0080060     0.0962300     0.0271750
  C       -0.4507830     0.0432590     0.0183630
  C        1.8938950     1.0905280     0.4329840
  C       -1.1961700     1.1987140    -0.2700270
  C       -1.1363230    -1.1523850     0.2941990
  C        3.1117900    -0.6733570    -0.2771830
  C        3.2093430     0.6071710     0.2411150
  C       -2.5895110     1.1608830    -0.2689850
  C       -2.5303830    -1.1922690     0.2696200
  C       -3.2626170    -0.0361670    -0.0095020
  H        1.3994420    -1.7974010    -0.8317830
  H        1.6076040     2.0422160     0.8629880
  H       -0.6710613     2.0971533    -0.6039809
  H       -0.5746270    -2.0444360     0.5668450
  H        3.8716190    -1.3816710    -0.5776140
  H        4.1315670     1.1252340     0.4699550
  H       -3.1528190     2.0640850    -0.4925600
  H       -3.0466780    -2.1247140     0.4868240
  H       -4.3493910    -0.0663800    -0.0199320
units angstrom
no_reorient  #important for SAPT in psi4, default
symmetry c1  #important for SAPT in psi4, default
}

set PROPERTIES_ORIGIN ["COM"]
properties('MP2/aug-cc-pvtz', properties = ['dipole'])
--------------------------------------------------------------------------

    Molecular point group: c1
  Charge       = 0
  Multiplicity = 1
  Basis Set: AUG-CC-PVTZ
    Blend: AUG-CC-PVTZ
  Basis Set: (AUG-CC-PVTZ AUX)
    Blend: AUG-CC-PVTZ-JKFIT

    Orbital Energies [Eh]
    ---------------------

    Doubly Occupied:

       1A    -15.608215     2A    -11.261992     3A    -11.256706
       4A    -11.253212     5A    -11.242108     6A    -11.240844
       7A    -11.240476     8A    -11.238158     9A    -11.237756
      10A    -11.213884    11A    -11.212790    12A     -1.294138
      13A     -1.156136    14A     -1.048857    15A     -1.042893
      16A     -1.016677    17A     -0.959201    18A     -0.837785
      19A     -0.831901    20A     -0.788588    21A     -0.764917
      22A     -0.735140    23A     -0.679524    24A     -0.633025
      25A     -0.629713    26A     -0.593336    27A     -0.588984
      28A     -0.582455    29A     -0.569230    30A     -0.549521
      31A     -0.537237    32A     -0.503697    33A     -0.501171
      34A     -0.493867    35A     -0.363327    36A     -0.350204
      37A     -0.341256    38A     -0.273490

  @DF-RHF Final Energy:  -438.50821543822724

   => Energetics <=

    Nuclear Repulsion Energy =            536.8029534031924186
    One-Electron Energy =               -1657.2775160887654238
    Two-Electron Energy =                 681.9663472473456522
    Total Energy =                       -438.5082154382272392
  Basis Set: (AUG-CC-PVTZ AUX)
    Blend: AUG-CC-PVTZ-RI
    Molecular point group: c1

    Geometry (in Angstrom), charge = 0, multiplicity = 1:

       Center              X                  Y                   Z               Mass
    ------------   -----------------  -----------------  -----------------  -----------------
         N            1.771819281261    -0.970834652363    -0.385924056612    14.003074004430
         C            1.002525281261     0.095997347637     0.027572943388    12.000000000000
         C           -0.456263718739     0.043026347637     0.018760943388    12.000000000000
         C            1.888414281261     1.090295347637     0.433381943388    12.000000000000
         C           -1.201650718739     1.198481347637    -0.269629056612    12.000000000000
         C           -1.141803718739    -1.152617652363     0.294596943388    12.000000000000
         C            3.106309281261    -0.673589652363    -0.276785056612    12.000000000000
         C            3.203862281261     0.606938347637     0.241512943388    12.000000000000
         C           -2.594991718739     1.160650347637    -0.268587056612    12.000000000000
         C           -2.535863718739    -1.192501652363     0.270017943388    12.000000000000
         C           -3.268097718739    -0.036399652363    -0.009104056612    12.000000000000
         H            1.393961281261    -1.797633652363    -0.831385056612     1.007825032230
         H            1.602123281261     2.041983347637     0.863385943388     1.007825032230
         H           -0.676542018739     2.096920647637    -0.603582956612     1.007825032230
         H           -0.580107718739    -2.044668652363     0.567242943388     1.007825032230
         H            3.866138281261    -1.381903652363    -0.577216056612     1.007825032230
         H            4.126086281261     1.125001347637     0.470352943388     1.007825032230
         H           -3.158299718739     2.063852347637    -0.492162056612     1.007825032230
         H           -3.052158718739    -2.124946652363     0.487221943388     1.007825032230
         H           -4.354871718739    -0.066612652363    -0.019534056612     1.007825032230

  Basis Set: AUG-CC-PVTZ
    Blend: AUG-CC-PVTZ
  Basis Set: (AUG-CC-PVTZ AUX)
    Blend: AUG-CC-PVTZ-JKFIT
	 Reference Energy          =    -438.5082154382272392 [Eh]
	 Singles Energy            =      -0.0000000000000000 [Eh]
	 Same-Spin Energy          =      -0.4953052871027602 [Eh]
	 Opposite-Spin Energy      =      -1.5253971965990141 [Eh]
	 Correlation Energy        =      -2.0207024837017742 [Eh]
	 Total Energy              =    -440.5289179219290077 [Eh]

	 ================> DF-SCS-MP2 Energies <==================
	-----------------------------------------------------------
	 SCS Same-Spin Scale       =       0.3333333333333333 [-]
	 SCS Opposite-Spin Scale   =       1.2000000000000000 [-]
	 SCS Same-Spin Energy      =      -0.1651017623675867 [Eh]
	 SCS Opposite-Spin Energy  =      -1.8304766359188167 [Eh]
	 SCS Correlation Energy    =      -1.9955783982864035 [Eh]
	 SCS Total Energy          =    -440.5037938365136370 [Eh]
	-----------------------------------------------------------

  Dipole Moment: [D]
     X:    -0.4547      Y:    -1.3396      Z:    -0.7020     Total:     1.5793

*** Psi4 exiting successfully. Buy a developer a beer!
