                               Psi4 1.4a2.dev612

  ==> Input File <==

--------------------------------------------------------------------------
#psi4
#
memory 32 gb

molecule  {
0 1
  N        1.7773000    -0.9706020    -0.3863220
  C        1.0080060     0.0962300     0.0271750
  C       -0.4507830     0.0432590     0.0183630
  C        1.8938950     1.0905280     0.4329840
  C       -1.1961700     1.1987140    -0.2700270
  C       -1.1363230    -1.1523850     0.2941990
  C        3.1117900    -0.6733570    -0.2771830
  C        3.2093430     0.6071710     0.2411150
  C       -2.5895110     1.1608830    -0.2689850
  C       -2.5303830    -1.1922690     0.2696200
  C       -3.2626170    -0.0361670    -0.0095020
  H        1.3994420    -1.7974010    -0.8317830
  H        1.6076040     2.0422160     0.8629880
  H       -0.6712930     2.1216380    -0.5070250
  H       -0.5746270    -2.0444360     0.5668450
  H        3.8710970    -1.3627874    -0.6239080
  H        4.1315670     1.1252340     0.4699550
  H       -3.1528190     2.0640850    -0.4925600
  H       -3.0466780    -2.1247140     0.4868240
  H       -4.3493910    -0.0663800    -0.0199320
units angstrom
no_reorient  #important for SAPT in psi4, default
symmetry c1  #important for SAPT in psi4, default
}

set PROPERTIES_ORIGIN ["COM"]
properties('MP2/aug-cc-pvtz', properties = ['dipole'])
--------------------------------------------------------------------------

    Molecular point group: c1
  Charge       = 0
  Multiplicity = 1
  Basis Set: AUG-CC-PVTZ
    Blend: AUG-CC-PVTZ
  Basis Set: (AUG-CC-PVTZ AUX)
    Blend: AUG-CC-PVTZ-JKFIT

    Orbital Energies [Eh]
    ---------------------

    Doubly Occupied:

       1A    -15.608360     2A    -11.262189     3A    -11.256770
       4A    -11.253262     5A    -11.241999     6A    -11.240722
       7A    -11.240448     8A    -11.237914     9A    -11.237639
      10A    -11.213979    11A    -11.212880    12A     -1.294220
      13A     -1.156149    14A     -1.048943    15A     -1.042945
      16A     -1.016772    17A     -0.959208    18A     -0.837832
      19A     -0.832211    20A     -0.788653    21A     -0.764947
      22A     -0.735240    23A     -0.679858    24A     -0.633080
      25A     -0.629687    26A     -0.593591    27A     -0.589010
      28A     -0.583410    29A     -0.568949    30A     -0.549540
      31A     -0.536504    32A     -0.504719    33A     -0.500808
      34A     -0.494343    35A     -0.363586    36A     -0.350267
      37A     -0.341338    38A     -0.273314

  @DF-RHF Final Energy:  -438.50874441459035

   => Energetics <=

    Nuclear Repulsion Energy =            536.8251466418023483
    One-Electron Energy =               -1657.3172112077327256
    Two-Electron Energy =                 681.9833201513400809
    Total Energy =                       -438.5087444145902964
  Basis Set: (AUG-CC-PVTZ AUX)
    Blend: AUG-CC-PVTZ-RI
    Molecular point group: c1

    Geometry (in Angstrom), charge = 0, multiplicity = 1:

       Center              X                  Y                   Z               Mass
    ------------   -----------------  -----------------  -----------------  -----------------
         N            1.771824590404    -0.971140143307    -0.386280924454    14.003074004430
         C            1.002530590404     0.095691856693     0.027216075546    12.000000000000
         C           -0.456258409596     0.042720856693     0.018404075546    12.000000000000
         C            1.888419590404     1.089989856693     0.433025075546    12.000000000000
         C           -1.201645409596     1.198175856693    -0.269985924454    12.000000000000
         C           -1.141798409596    -1.152923143307     0.294240075546    12.000000000000
         C            3.106314590404    -0.673895143307    -0.277141924454    12.000000000000
         C            3.203867590404     0.606632856693     0.241156075546    12.000000000000
         C           -2.594986409596     1.160344856693    -0.268943924454    12.000000000000
         C           -2.535858409596    -1.192807143307     0.269661075546    12.000000000000
         C           -3.268092409596    -0.036705143307    -0.009460924454    12.000000000000
         H            1.393966590404    -1.797939143307    -0.831741924454     1.007825032230
         H            1.602128590404     2.041677856693     0.863029075546     1.007825032230
         H           -0.676768409596     2.121099856693    -0.506983924454     1.007825032230
         H           -0.580102409596    -2.044974143307     0.566886075546     1.007825032230
         H            3.865621590404    -1.363325543307    -0.623866924454     1.007825032230
         H            4.126091590404     1.124695856693     0.469996075546     1.007825032230
         H           -3.158294409596     2.063546856693    -0.492518924454     1.007825032230
         H           -3.052153409596    -2.125252143307     0.486865075546     1.007825032230
         H           -4.354866409596    -0.066918143307    -0.019890924454     1.007825032230

  Basis Set: AUG-CC-PVTZ
    Blend: AUG-CC-PVTZ
  Basis Set: (AUG-CC-PVTZ AUX)
    Blend: AUG-CC-PVTZ-JKFIT
	 Reference Energy          =    -438.5087444145903532 [Eh]
	 Singles Energy            =      -0.0000000000000000 [Eh]
	 Same-Spin Energy          =      -0.4952717790555082 [Eh]
	 Opposite-Spin Energy      =      -1.5253598264963839 [Eh]
	 Correlation Energy        =      -2.0206316055518920 [Eh]
	 Total Energy              =    -440.5293760201422515 [Eh]

	 ================> DF-SCS-MP2 Energies <==================
	-----------------------------------------------------------
	 SCS Same-Spin Scale       =       0.3333333333333333 [-]
	 SCS Opposite-Spin Scale   =       1.2000000000000000 [-]
	 SCS Same-Spin Energy      =      -0.1650905930185027 [Eh]
	 SCS Opposite-Spin Energy  =      -1.8304317917956605 [Eh]
	 SCS Correlation Energy    =      -1.9955223848141632 [Eh]
	 SCS Total Energy          =    -440.5042667994044905 [Eh]
	-----------------------------------------------------------

  Dipole Moment: [D]
     X:    -0.4486      Y:    -1.3003      Z:    -0.6879     Total:     1.5380

*** Psi4 exiting successfully. Buy a developer a beer!
