                               Psi4 1.4a2.dev612

  ==> Input File <==

--------------------------------------------------------------------------
#psi4
#
memory 32 gb

molecule  {
0 1
  N        1.7773000    -0.9706020    -0.3863220
  C        1.0080060     0.0962300     0.0271750
  C       -0.4507830     0.0432590     0.0183630
  C        1.8938950     1.0905280     0.4329840
  C       -1.1961700     1.1987140    -0.2700270
  C       -1.1363230    -1.1523850     0.2941990
  C        3.1117900    -0.6733570    -0.2771830
  C        3.2093430     0.6071710     0.2411150
  C       -2.5895110     1.1608830    -0.2689850
  C       -2.5303830    -1.1922690     0.2696200
  C       -3.2626170    -0.0361670    -0.0095020
  H        1.3994420    -1.7974010    -0.8317830
  H        1.6077279     2.0224516     0.9089157
  H       -0.6712930     2.1216380    -0.5070250
  H       -0.5746270    -2.0444360     0.5668450
  H        3.8716190    -1.3816710    -0.5776140
  H        4.1315670     1.1252340     0.4699550
  H       -3.1528190     2.0640850    -0.4925600
  H       -3.0466780    -2.1247140     0.4868240
  H       -4.3493910    -0.0663800    -0.0199320
units angstrom
no_reorient  #important for SAPT in psi4, default
symmetry c1  #important for SAPT in psi4, default
}

set PROPERTIES_ORIGIN ["COM"]
properties('MP2/aug-cc-pvtz', properties = ['dipole'])
--------------------------------------------------------------------------

    Molecular point group: c1
  Charge       = 0
  Multiplicity = 1
  Basis Set: AUG-CC-PVTZ
    Blend: AUG-CC-PVTZ
  Basis Set: (AUG-CC-PVTZ AUX)
    Blend: AUG-CC-PVTZ-JKFIT

    Orbital Energies [Eh]
    ---------------------

    Doubly Occupied:

       1A    -15.608345     2A    -11.262183     3A    -11.256642
       4A    -11.253197     5A    -11.242023     6A    -11.240701
       7A    -11.240501     8A    -11.237933     9A    -11.237656
      10A    -11.213969    11A    -11.212877    12A     -1.294208
      13A     -1.156159    14A     -1.048907    15A     -1.042906
      16A     -1.016778    17A     -0.959230    18A     -0.837840
      19A     -0.832181    20A     -0.788558    21A     -0.764766
      22A     -0.735299    23A     -0.679898    24A     -0.633254
      25A     -0.629790    26A     -0.593420    27A     -0.589034
      28A     -0.582775    29A     -0.568950    30A     -0.549549
      31A     -0.536638    32A     -0.504566    33A     -0.500793
      34A     -0.494355    35A     -0.363432    36A     -0.350252
      37A     -0.341332    38A     -0.273441

  @DF-RHF Final Energy:  -438.50867875435955

   => Energetics <=

    Nuclear Repulsion Energy =            536.8192052794928486
    One-Electron Energy =               -1657.3070994368865740
    Two-Electron Energy =                 681.9792154030342317
    Total Energy =                       -438.5086787543596074
  Basis Set: (AUG-CC-PVTZ AUX)
    Blend: AUG-CC-PVTZ-RI
    Molecular point group: c1

    Geometry (in Angstrom), charge = 0, multiplicity = 1:

       Center              X                  Y                   Z               Mass
    ------------   -----------------  -----------------  -----------------  -----------------
         N            1.771820040616    -0.970867902661    -0.386930543973    14.003074004430
         C            1.002526040616     0.095964097339     0.026566456027    12.000000000000
         C           -0.456262959384     0.042993097339     0.017754456027    12.000000000000
         C            1.888415040616     1.090262097339     0.432375456027    12.000000000000
         C           -1.201649959384     1.198448097339    -0.270635543973    12.000000000000
         C           -1.141802959384    -1.152650902661     0.293590456027    12.000000000000
         C            3.106310040616    -0.673622902661    -0.277791543973    12.000000000000
         C            3.203863040616     0.606905097339     0.240506456027    12.000000000000
         C           -2.594990959384     1.160617097339    -0.269593543973    12.000000000000
         C           -2.535862959384    -1.192534902661     0.269011456027    12.000000000000
         C           -3.268096959384    -0.036432902661    -0.010110543973    12.000000000000
         H            1.393962040616    -1.797666902661    -0.832391543973     1.007825032230
         H            1.602247940616     2.022185697339     0.908307156027     1.007825032230
         H           -0.676772959384     2.121372097339    -0.507633543973     1.007825032230
         H           -0.580106959384    -2.044701902661     0.566236456027     1.007825032230
         H            3.866139040616    -1.381936902661    -0.578222543973     1.007825032230
         H            4.126087040616     1.124968097339     0.469346456027     1.007825032230
         H           -3.158298959384     2.063819097339    -0.493168543973     1.007825032230
         H           -3.052157959384    -2.124979902661     0.486215456027     1.007825032230
         H           -4.354870959384    -0.066645902661    -0.020540543973     1.007825032230

  Basis Set: AUG-CC-PVTZ
    Blend: AUG-CC-PVTZ
  Basis Set: (AUG-CC-PVTZ AUX)
    Blend: AUG-CC-PVTZ-JKFIT
	 Reference Energy          =    -438.5086787543595506 [Eh]
	 Singles Energy            =      -0.0000000000000000 [Eh]
	 Same-Spin Energy          =      -0.4952745076593403 [Eh]
	 Opposite-Spin Energy      =      -1.5253676234154181 [Eh]
	 Correlation Energy        =      -2.0206421310747587 [Eh]
	 Total Energy              =    -440.5293208854342879 [Eh]

	 ================> DF-SCS-MP2 Energies <==================
	-----------------------------------------------------------
	 SCS Same-Spin Scale       =       0.3333333333333333 [-]
	 SCS Opposite-Spin Scale   =       1.2000000000000000 [-]
	 SCS Same-Spin Energy      =      -0.1650915025531134 [Eh]
	 SCS Opposite-Spin Energy  =      -1.8304411480985017 [Eh]
	 SCS Correlation Energy    =      -1.9955326506516151 [Eh]
	 SCS Total Energy          =    -440.5042114050111763 [Eh]
	-----------------------------------------------------------

  Dipole Moment: [D]
     X:    -0.4506      Y:    -1.3368      Z:    -0.6136     Total:     1.5384

*** Psi4 exiting successfully. Buy a developer a beer!
