                               Psi4 1.4a2.dev612

  ==> Input File <==

--------------------------------------------------------------------------
#psi4
#
memory 32 gb

molecule  {
0 1
  N        1.7773000    -0.9706020    -0.3863220
  C        1.0080060     0.0962300     0.0271750
  C       -0.4507830     0.0432590     0.0183630
  C        1.8938950     1.0905280     0.4329840
  C       -1.1961700     1.1987140    -0.2700270
  C       -1.1363230    -1.1523850     0.2941990
  C        3.1117900    -0.6733570    -0.2771830
  C        3.2093430     0.6071710     0.2411150
  C       -2.5895110     1.1608830    -0.2689850
  C       -2.5303830    -1.1922690     0.2696200
  C       -3.2626170    -0.0361670    -0.0095020
  H        1.3994420    -1.7974010    -0.8317830
  H        1.6076040     2.0422160     0.8629880
  H       -0.6712930     2.1216380    -0.5070250
  H       -0.5746270    -2.0444360     0.5668450
  H        3.8716190    -1.3816710    -0.5776140
  H        4.1296851     1.0494243     0.6550208
  H       -3.1528190     2.0640850    -0.4925600
  H       -3.0466780    -2.1247140     0.4868240
  H       -4.3493910    -0.0663800    -0.0199320
units angstrom
no_reorient  #important for SAPT in psi4, default
symmetry c1  #important for SAPT in psi4, default
}

set PROPERTIES_ORIGIN ["COM"]
properties('MP2/aug-cc-pvtz', properties = ['dipole'])
--------------------------------------------------------------------------

    Molecular point group: c1
  Charge       = 0
  Multiplicity = 1
  Basis Set: AUG-CC-PVTZ
    Blend: AUG-CC-PVTZ
  Basis Set: (AUG-CC-PVTZ AUX)
    Blend: AUG-CC-PVTZ-JKFIT

    Orbital Energies [Eh]
    ---------------------

    Doubly Occupied:

       1A    -15.608956     2A    -11.262414     3A    -11.257325
       4A    -11.253406     5A    -11.242131     6A    -11.240789
       7A    -11.240584     8A    -11.237949     9A    -11.237681
      10A    -11.215285    11A    -11.213487    12A     -1.294699
      13A     -1.156252    14A     -1.049123    15A     -1.042882
      16A     -1.016850    17A     -0.959365    18A     -0.838004
      19A     -0.832215    20A     -0.787467    21A     -0.764296
      22A     -0.735347    23A     -0.679906    24A     -0.633395
      25A     -0.629688    26A     -0.592889    27A     -0.589753
      28A     -0.583129    29A     -0.570200    30A     -0.544664
      31A     -0.536644    32A     -0.504615    33A     -0.501058
      34A     -0.494232    35A     -0.363772    36A     -0.350656
      37A     -0.341419    38A     -0.273276

  @DF-RHF Final Energy:  -438.50638114518142

   => Energetics <=

    Nuclear Repulsion Energy =            536.7597872692930423
    One-Electron Energy =               -1657.1807235561609559
    Two-Electron Energy =                 681.9145551416863782
    Total Energy =                       -438.5063811451814217
  Basis Set: (AUG-CC-PVTZ AUX)
    Blend: AUG-CC-PVTZ-RI
    Molecular point group: c1

    Geometry (in Angstrom), charge = 0, multiplicity = 1:

       Center              X                  Y                   Z               Mass
    ------------   -----------------  -----------------  -----------------  -----------------
         N            1.771834169685    -0.970473113573    -0.387910647632    14.003074004430
         C            1.002540169685     0.096358886427     0.025586352368    12.000000000000
         C           -0.456248830315     0.043387886427     0.016774352368    12.000000000000
         C            1.888429169685     1.090656886427     0.431395352368    12.000000000000
         C           -1.201635830315     1.198842886427    -0.271615647632    12.000000000000
         C           -1.141788830315    -1.152256113573     0.292610352368    12.000000000000
         C            3.106324169685    -0.673228113573    -0.278771647632    12.000000000000
         C            3.203877169685     0.607299886427     0.239526352368    12.000000000000
         C           -2.594976830315     1.161011886427    -0.270573647632    12.000000000000
         C           -2.535848830315    -1.192140113573     0.268031352368    12.000000000000
         C           -3.268082830315    -0.036038113573    -0.011090647632    12.000000000000
         H            1.393976169685    -1.797272113573    -0.833371647632     1.007825032230
         H            1.602138169685     2.042344886427     0.861399352368     1.007825032230
         H           -0.676758830315     2.121766886427    -0.508613647632     1.007825032230
         H           -0.580092830315    -2.044307113573     0.565256352368     1.007825032230
         H            3.866153169685    -1.381542113573    -0.579202647632     1.007825032230
         H            4.124219269685     1.049553186427     0.653432152368     1.007825032230
         H           -3.158284830315     2.064213886427    -0.494148647632     1.007825032230
         H           -3.052143830315    -2.124585113573     0.485235352368     1.007825032230
         H           -4.354856830315    -0.066251113573    -0.021520647632     1.007825032230

  Basis Set: AUG-CC-PVTZ
    Blend: AUG-CC-PVTZ
  Basis Set: (AUG-CC-PVTZ AUX)
    Blend: AUG-CC-PVTZ-JKFIT
	 Reference Energy          =    -438.5063811451814217 [Eh]
	 Singles Energy            =      -0.0000000000000000 [Eh]
	 Same-Spin Energy          =      -0.4953963111116670 [Eh]
	 Opposite-Spin Energy      =      -1.5256742335141904 [Eh]
	 Correlation Energy        =      -2.0210705446258572 [Eh]
	 Total Energy              =    -440.5274516898072648 [Eh]

	 ================> DF-SCS-MP2 Energies <==================
	-----------------------------------------------------------
	 SCS Same-Spin Scale       =       0.3333333333333333 [-]
	 SCS Opposite-Spin Scale   =       1.2000000000000000 [-]
	 SCS Same-Spin Energy      =      -0.1651321037038890 [Eh]
	 SCS Opposite-Spin Energy  =      -1.8308090802170285 [Eh]
	 SCS Correlation Energy    =      -1.9959411839209176 [Eh]
	 SCS Total Energy          =    -440.5023223291023555 [Eh]
	-----------------------------------------------------------

  Dipole Moment: [D]
     X:    -0.4851      Y:    -1.3958      Z:    -0.5109     Total:     1.5635

*** Psi4 exiting successfully. Buy a developer a beer!
