                               Psi4 1.4a2.dev612

  ==> Input File <==

--------------------------------------------------------------------------
#psi4
#
memory 32 gb

molecule  {
0 1
  N        1.7773000    -0.9706020    -0.3863220
  C        1.0080060     0.0962300     0.0271750
  C       -0.4507830     0.0432590     0.0183630
  C        1.8938950     1.0905280     0.4329840
  C       -1.1961700     1.1987140    -0.2700270
  C       -1.1363230    -1.1523850     0.2941990
  C        3.1117900    -0.6733570    -0.2771830
  C        3.2093430     0.6071710     0.2411150
  C       -2.5895110     1.1608830    -0.2689850
  C       -2.5303830    -1.1922690     0.2696200
  C       -3.2626170    -0.0361670    -0.0095020
  H        1.3994420    -1.7974010    -0.8317830
  H        1.6080995     1.9631584     1.0466988
  H       -0.6712930     2.1216380    -0.5070250
  H       -0.5746270    -2.0444360     0.5668450
  H        3.8716190    -1.3816710    -0.5776140
  H        4.1315670     1.1252340     0.4699550
  H       -3.1528190     2.0640850    -0.4925600
  H       -3.0466780    -2.1247140     0.4868240
  H       -4.3493910    -0.0663800    -0.0199320
units angstrom
no_reorient  #important for SAPT in psi4, default
symmetry c1  #important for SAPT in psi4, default
}

set PROPERTIES_ORIGIN ["COM"]
properties('MP2/aug-cc-pvtz', properties = ['dipole'])
--------------------------------------------------------------------------

    Molecular point group: c1
  Charge       = 0
  Multiplicity = 1
  Basis Set: AUG-CC-PVTZ
    Blend: AUG-CC-PVTZ
  Basis Set: (AUG-CC-PVTZ AUX)
    Blend: AUG-CC-PVTZ-JKFIT

    Orbital Energies [Eh]
    ---------------------

    Doubly Occupied:

       1A    -15.608813     2A    -11.262871     3A    -11.256789
       4A    -11.253197     5A    -11.242152     6A    -11.240807
       7A    -11.240613     8A    -11.238095     9A    -11.237698
      10A    -11.214881    11A    -11.213429    12A     -1.294602
      13A     -1.156280    14A     -1.048879    15A     -1.042910
      16A     -1.016854    17A     -0.959268    18A     -0.837742
      19A     -0.832167    20A     -0.788174    21A     -0.762945
      22A     -0.735289    23A     -0.680001    24A     -0.633320
      25A     -0.630038    26A     -0.592598    27A     -0.589504
      28A     -0.582425    29A     -0.568319    30A     -0.548677
      31A     -0.533827    32A     -0.504598    33A     -0.500892
      34A     -0.494387    35A     -0.363447    36A     -0.350215
      37A     -0.341374    38A     -0.273762

  @DF-RHF Final Energy:  -438.50621051851954

   => Energetics <=

    Nuclear Repulsion Energy =            536.7343989079305402
    One-Electron Energy =               -1657.1375425850528700
    Two-Electron Energy =                 681.8969331586029057
    Total Energy =                       -438.5062105185195378
  Basis Set: (AUG-CC-PVTZ AUX)
    Blend: AUG-CC-PVTZ-RI
    Molecular point group: c1

    Geometry (in Angstrom), charge = 0, multiplicity = 1:

       Center              X                  Y                   Z               Mass
    ------------   -----------------  -----------------  -----------------  -----------------
         N            1.771817423026    -0.970450235018    -0.387901102867    14.003074004430
         C            1.002523423026     0.096381764982     0.025595897133    12.000000000000
         C           -0.456265576974     0.043410764982     0.016783897133    12.000000000000
         C            1.888412423026     1.090679764982     0.431404897133    12.000000000000
         C           -1.201652576974     1.198865764982    -0.271606102867    12.000000000000
         C           -1.141805576974    -1.152233235018     0.292619897133    12.000000000000
         C            3.106307423026    -0.673205235018    -0.278762102867    12.000000000000
         C            3.203860423026     0.607322764982     0.239535897133    12.000000000000
         C           -2.594993576974     1.161034764982    -0.270564102867    12.000000000000
         C           -2.535865576974    -1.192117235018     0.268040897133    12.000000000000
         C           -3.268099576974    -0.036015235018    -0.011081102867    12.000000000000
         H            1.393959423026    -1.797249235018    -0.833362102867     1.007825032230
         H            1.602616923026     1.963310164982     1.045119697133     1.007825032230
         H           -0.676775576974     2.121789764982    -0.508604102867     1.007825032230
         H           -0.580109576974    -2.044284235018     0.565265897133     1.007825032230
         H            3.866136423026    -1.381519235018    -0.579193102867     1.007825032230
         H            4.126084423026     1.125385764982     0.468375897133     1.007825032230
         H           -3.158301576974     2.064236764982    -0.494139102867     1.007825032230
         H           -3.052160576974    -2.124562235018     0.485244897133     1.007825032230
         H           -4.354873576974    -0.066228235018    -0.021511102867     1.007825032230

  Basis Set: AUG-CC-PVTZ
    Blend: AUG-CC-PVTZ
  Basis Set: (AUG-CC-PVTZ AUX)
    Blend: AUG-CC-PVTZ-JKFIT
	 Reference Energy          =    -438.5062105185195378 [Eh]
	 Singles Energy            =      -0.0000000000000000 [Eh]
	 Same-Spin Energy          =      -0.4954227411214676 [Eh]
	 Opposite-Spin Energy      =      -1.5257032989226396 [Eh]
	 Correlation Energy        =      -2.0211260400441073 [Eh]
	 Total Energy              =    -440.5273365585636611 [Eh]

	 ================> DF-SCS-MP2 Energies <==================
	-----------------------------------------------------------
	 SCS Same-Spin Scale       =       0.3333333333333333 [-]
	 SCS Opposite-Spin Scale   =       1.2000000000000000 [-]
	 SCS Same-Spin Energy      =      -0.1651409137071558 [Eh]
	 SCS Opposite-Spin Energy  =      -1.8308439587071674 [Eh]
	 SCS Correlation Energy    =      -1.9959848724143232 [Eh]
	 SCS Total Energy          =    -440.5021953909338777 [Eh]
	-----------------------------------------------------------

  Dipole Moment: [D]
     X:    -0.4472      Y:    -1.4116      Z:    -0.5234     Total:     1.5705

*** Psi4 exiting successfully. Buy a developer a beer!
