                               Psi4 1.4a2.dev612

  ==> Input File <==

--------------------------------------------------------------------------
#psi4
#
memory 32 gb

molecule  {
0 1
  N        1.7773000    -0.9706020    -0.3863220
  C        1.0080060     0.0962300     0.0271750
  C       -0.4507830     0.0432590     0.0183630
  C        1.8938950     1.0905280     0.4329840
  C       -1.1961700     1.1987140    -0.2700270
  C       -1.1363230    -1.1523850     0.2941990
  C        3.1117900    -0.6733570    -0.2771830
  C        3.2093430     0.6071710     0.2411150
  C       -2.5895110     1.1608830    -0.2689850
  C       -2.5303830    -1.1922690     0.2696200
  C       -3.2626170    -0.0361670    -0.0095020
  H        1.3994420    -1.7974010    -0.8317830
  H        1.6076040     2.0422160     0.8629880
  H       -0.6711772     2.1093957    -0.5555030
  H       -0.5746270    -2.0444360     0.5668450
  H        3.8716190    -1.3816710    -0.5776140
  H        4.1315670     1.1252340     0.4699550
  H       -3.1528190     2.0640850    -0.4925600
  H       -3.0466780    -2.1247140     0.4868240
  H       -4.3493910    -0.0663800    -0.0199320
units angstrom
no_reorient  #important for SAPT in psi4, default
symmetry c1  #important for SAPT in psi4, default
}

set PROPERTIES_ORIGIN ["COM"]
properties('MP2/aug-cc-pvtz', properties = ['dipole'])
--------------------------------------------------------------------------

    Molecular point group: c1
  Charge       = 0
  Multiplicity = 1
  Basis Set: AUG-CC-PVTZ
    Blend: AUG-CC-PVTZ
  Basis Set: (AUG-CC-PVTZ AUX)
    Blend: AUG-CC-PVTZ-JKFIT

    Orbital Energies [Eh]
    ---------------------

    Doubly Occupied:

       1A    -15.608243     2A    -11.262051     3A    -11.256663
       4A    -11.253199     5A    -11.242040     6A    -11.240759
       7A    -11.240467     8A    -11.237967     9A    -11.237688
      10A    -11.213903    11A    -11.212805    12A     -1.294146
      13A     -1.156140    14A     -1.048887    15A     -1.042898
      16A     -1.016747    17A     -0.959216    18A     -0.837828
      19A     -0.832106    20A     -0.788602    21A     -0.764943
      22A     -0.735248    23A     -0.679786    24A     -0.633170
      25A     -0.629704    26A     -0.593493    27A     -0.588936
      28A     -0.582714    29A     -0.569276    30A     -0.549502
      31A     -0.537121    32A     -0.504032    33A     -0.500913
      34A     -0.494373    35A     -0.363382    36A     -0.350217
      37A     -0.341311    38A     -0.273434

  @DF-RHF Final Energy:  -438.50871156471101

   => Energetics <=

    Nuclear Repulsion Energy =            536.8210725141140074
    One-Electron Energy =               -1657.3117440255361998
    Two-Electron Energy =                 681.9819599467110720
    Total Energy =                       -438.5087115647110068
  Basis Set: (AUG-CC-PVTZ AUX)
    Blend: AUG-CC-PVTZ-RI
    Molecular point group: c1

    Geometry (in Angstrom), charge = 0, multiplicity = 1:

       Center              X                  Y                   Z               Mass
    ------------   -----------------  -----------------  -----------------  -----------------
         N            1.771820097673    -0.970920889138    -0.386265540124    14.003074004430
         C            1.002526097673     0.095911110862     0.027231459876    12.000000000000
         C           -0.456262902327     0.042940110862     0.018419459876    12.000000000000
         C            1.888415097673     1.090209110862     0.433040459876    12.000000000000
         C           -1.201649902327     1.198395110862    -0.269970540124    12.000000000000
         C           -1.141802902327    -1.152703889138     0.294255459876    12.000000000000
         C            3.106310097673    -0.673675889138    -0.277126540124    12.000000000000
         C            3.203863097673     0.606852110862     0.241171459876    12.000000000000
         C           -2.594990902327     1.160564110862    -0.268928540124    12.000000000000
         C           -2.535862902327    -1.192587889138     0.269676459876    12.000000000000
         C           -3.268096902327    -0.036485889138    -0.009445540124    12.000000000000
         H            1.393962097673    -1.797719889138    -0.831726540124     1.007825032230
         H            1.602124097673     2.041897110862     0.863044459876     1.007825032230
         H           -0.676657102327     2.109076810862    -0.555446540124     1.007825032230
         H           -0.580106902327    -2.044754889138     0.566901459876     1.007825032230
         H            3.866139097673    -1.381989889138    -0.577557540124     1.007825032230
         H            4.126087097673     1.124915110862     0.470011459876     1.007825032230
         H           -3.158298902327     2.063766110862    -0.492503540124     1.007825032230
         H           -3.052157902327    -2.125032889138     0.486880459876     1.007825032230
         H           -4.354870902327    -0.066698889138    -0.019875540124     1.007825032230

  Basis Set: AUG-CC-PVTZ
    Blend: AUG-CC-PVTZ
  Basis Set: (AUG-CC-PVTZ AUX)
    Blend: AUG-CC-PVTZ-JKFIT
	 Reference Energy          =    -438.5087115647110068 [Eh]
	 Singles Energy            =      -0.0000000000000000 [Eh]
	 Same-Spin Energy          =      -0.4952702557707735 [Eh]
	 Opposite-Spin Energy      =      -1.5253452628654138 [Eh]
	 Correlation Energy        =      -2.0206155186361876 [Eh]
	 Total Energy              =    -440.5293270833471979 [Eh]

	 ================> DF-SCS-MP2 Energies <==================
	-----------------------------------------------------------
	 SCS Same-Spin Scale       =       0.3333333333333333 [-]
	 SCS Opposite-Spin Scale   =       1.2000000000000000 [-]
	 SCS Same-Spin Energy      =      -0.1650900852569245 [Eh]
	 SCS Opposite-Spin Energy  =      -1.8304143154384964 [Eh]
	 SCS Correlation Energy    =      -1.9955044006954210 [Eh]
	 SCS Total Energy          =    -440.5042159654064449 [Eh]
	-----------------------------------------------------------

  Dipole Moment: [D]
     X:    -0.4522      Y:    -1.3277      Z:    -0.6752     Total:     1.5567

*** Psi4 exiting successfully. Buy a developer a beer!
