                               Psi4 1.4a2.dev612

  ==> Input File <==

--------------------------------------------------------------------------
#psi4
#
memory 32 gb

molecule  {
0 1
  N        1.7773000    -0.9706020    -0.3863220
  C        1.0080060     0.0962300     0.0271750
  C       -0.4507830     0.0432590     0.0183630
  C        1.8938950     1.0905280     0.4329840
  C       -1.1961700     1.1987140    -0.2700270
  C       -1.1363230    -1.1523850     0.2941990
  C        3.1117900    -0.6733570    -0.2771830
  C        3.2093430     0.6071710     0.2411150
  C       -2.5895110     1.1608830    -0.2689850
  C       -2.5303830    -1.1922690     0.2696200
  C       -3.2626170    -0.0361670    -0.0095020
  H        1.3994420    -1.7974010    -0.8317830
  H        1.6083472     1.9236296     1.1385542
  H       -0.6712930     2.1216380    -0.5070250
  H       -0.5746270    -2.0444360     0.5668450
  H        3.8716190    -1.3816710    -0.5776140
  H        4.1315670     1.1252340     0.4699550
  H       -3.1528190     2.0640850    -0.4925600
  H       -3.0466780    -2.1247140     0.4868240
  H       -4.3493910    -0.0663800    -0.0199320
units angstrom
no_reorient  #important for SAPT in psi4, default
symmetry c1  #important for SAPT in psi4, default
}

set PROPERTIES_ORIGIN ["COM"]
properties('MP2/aug-cc-pvtz', properties = ['dipole'])
--------------------------------------------------------------------------

    Molecular point group: c1
  Charge       = 0
  Multiplicity = 1
  Basis Set: AUG-CC-PVTZ
    Blend: AUG-CC-PVTZ
  Basis Set: (AUG-CC-PVTZ AUX)
    Blend: AUG-CC-PVTZ-JKFIT

    Orbital Energies [Eh]
    ---------------------

    Doubly Occupied:

       1A    -15.609331     2A    -11.263694     3A    -11.256970
       4A    -11.253268     5A    -11.242316     6A    -11.241034
       7A    -11.240674     8A    -11.238312     9A    -11.237787
      10A    -11.216437    11A    -11.213777    12A     -1.295060
      13A     -1.156441    14A     -1.048893    15A     -1.042919
      16A     -1.016970    17A     -0.959330    18A     -0.837687
      19A     -0.832223    20A     -0.787892    21A     -0.760823
      22A     -0.735308    23A     -0.680144    24A     -0.633415
      25A     -0.630148    26A     -0.591885    27A     -0.589780
      28A     -0.582274    29A     -0.568342    30A     -0.547691
      31A     -0.529882    32A     -0.504667    33A     -0.501044
      34A     -0.494448    35A     -0.363497    36A     -0.350117
      37A     -0.341447    38A     -0.274094

  @DF-RHF Final Energy:  -438.50264122214980

   => Energetics <=

    Nuclear Repulsion Energy =            536.6374167408949916
    One-Electron Energy =               -1656.9400707598861118
    Two-Electron Energy =                 681.8000127968414290
    Total Energy =                       -438.5026412221498049
  Basis Set: (AUG-CC-PVTZ AUX)
    Blend: AUG-CC-PVTZ-RI
    Molecular point group: c1

    Geometry (in Angstrom), charge = 0, multiplicity = 1:

       Center              X                  Y                   Z               Mass
    ------------   -----------------  -----------------  -----------------  -----------------
         N            1.771815678200    -0.970171789923    -0.388548142129    14.003074004430
         C            1.002521678200     0.096660210077     0.024948857871    12.000000000000
         C           -0.456267321800     0.043689210077     0.016136857871    12.000000000000
         C            1.888410678200     1.090958210077     0.430757857871    12.000000000000
         C           -1.201654321800     1.199144210077    -0.272253142129    12.000000000000
         C           -1.141807321800    -1.151954789923     0.291972857871    12.000000000000
         C            3.106305678200    -0.672926789923    -0.279409142129    12.000000000000
         C            3.203858678200     0.607601210077     0.238888857871    12.000000000000
         C           -2.594995321800     1.161313210077    -0.271211142129    12.000000000000
         C           -2.535867321800    -1.191838789923     0.267393857871    12.000000000000
         C           -3.268101321800    -0.035736789923    -0.011728142129    12.000000000000
         H            1.393957678200    -1.796970789923    -0.834009142129     1.007825032230
         H            1.602862878200     1.924059810077     1.136328057871     1.007825032230
         H           -0.676777321800     2.122068210077    -0.509251142129     1.007825032230
         H           -0.580111321800    -2.044005789923     0.564618857871     1.007825032230
         H            3.866134678200    -1.381240789923    -0.579840142129     1.007825032230
         H            4.126082678200     1.125664210077     0.467728857871     1.007825032230
         H           -3.158303321800     2.064515210077    -0.494786142129     1.007825032230
         H           -3.052162321800    -2.124283789923     0.484597857871     1.007825032230
         H           -4.354875321800    -0.065949789923    -0.022158142129     1.007825032230

  Basis Set: AUG-CC-PVTZ
    Blend: AUG-CC-PVTZ
  Basis Set: (AUG-CC-PVTZ AUX)
    Blend: AUG-CC-PVTZ-JKFIT
	 Reference Energy          =    -438.5026412221498049 [Eh]
	 Singles Energy            =      -0.0000000000000000 [Eh]
	 Same-Spin Energy          =      -0.4955886381702232 [Eh]
	 Opposite-Spin Energy      =      -1.5261334942840072 [Eh]
	 Correlation Energy        =      -2.0217221324542303 [Eh]
	 Total Energy              =    -440.5243633546040201 [Eh]

	 ================> DF-SCS-MP2 Energies <==================
	-----------------------------------------------------------
	 SCS Same-Spin Scale       =       0.3333333333333333 [-]
	 SCS Opposite-Spin Scale   =       1.2000000000000000 [-]
	 SCS Same-Spin Energy      =      -0.1651962127234077 [Eh]
	 SCS Opposite-Spin Energy  =      -1.8313601931408086 [Eh]
	 SCS Correlation Energy    =      -1.9965564058642162 [Eh]
	 SCS Total Energy          =    -440.4991976280140307 [Eh]
	-----------------------------------------------------------

  Dipole Moment: [D]
     X:    -0.4429      Y:    -1.4771      Z:    -0.4739     Total:     1.6132

*** Psi4 exiting successfully. Buy a developer a beer!
