                               Psi4 1.4a2.dev612

  ==> Input File <==

--------------------------------------------------------------------------
#psi4
#
memory 32 gb

molecule  {
0 1
  N        1.7773000    -0.9706020    -0.3863220
  C        1.0080060     0.0962300     0.0271750
  C       -0.4507830     0.0432590     0.0183630
  C        1.8938950     1.0905280     0.4329840
  C       -1.1961700     1.1987140    -0.2700270
  C       -1.1406962    -1.0824902     0.5859105
  C        3.1117900    -0.6733570    -0.2771830
  C        3.2093430     0.6071710     0.2411150
  C       -2.5895110     1.1608830    -0.2689850
  C       -2.5303830    -1.1922690     0.2696200
  C       -3.2626170    -0.0361670    -0.0095020
  H        1.3994420    -1.7974010    -0.8317830
  H        1.6076040     2.0422160     0.8629880
  H       -0.6712930     2.1216380    -0.5070250
  H       -0.5746270    -2.0444360     0.5668450
  H        3.8716190    -1.3816710    -0.5776140
  H        4.1315670     1.1252340     0.4699550
  H       -3.1528190     2.0640850    -0.4925600
  H       -3.0466780    -2.1247140     0.4868240
  H       -4.3493910    -0.0663800    -0.0199320
units angstrom
no_reorient  #important for SAPT in psi4, default
symmetry c1  #important for SAPT in psi4, default
}

set PROPERTIES_ORIGIN ["COM"]
properties('MP2/aug-cc-pvtz', properties = ['dipole'])
--------------------------------------------------------------------------

    Molecular point group: c1
  Charge       = 0
  Multiplicity = 1
  Basis Set: AUG-CC-PVTZ
    Blend: AUG-CC-PVTZ
  Basis Set: (AUG-CC-PVTZ AUX)
    Blend: AUG-CC-PVTZ-JKFIT

    Orbital Energies [Eh]
    ---------------------

    Doubly Occupied:

       1A    -15.609209     2A    -11.261947     3A    -11.258769
       4A    -11.257203     5A    -11.248065     6A    -11.247004
       7A    -11.243828     8A    -11.237503     9A    -11.237328
      10A    -11.214472    11A    -11.213377    12A     -1.294509
      13A     -1.152638    14A     -1.048876    15A     -1.042215
      16A     -1.012831    17A     -0.958574    18A     -0.835534
      19A     -0.829163    20A     -0.788726    21A     -0.765816
      22A     -0.732698    23A     -0.676780    24A     -0.632586
      25A     -0.623537    26A     -0.592464    27A     -0.585272
      28A     -0.579407    29A     -0.568935    30A     -0.550534
      31A     -0.537955    32A     -0.504407    33A     -0.497042
      34A     -0.486165    35A     -0.357431    36A     -0.349534
      37A     -0.339588    38A     -0.277212

  @DF-RHF Final Energy:  -438.48136121729209

   => Energetics <=

    Nuclear Repulsion Energy =            535.6653719534659785
    One-Electron Energy =               -1654.9952016748625283
    Two-Electron Energy =                 680.8484685041044031
    Total Energy =                       -438.4813612172920330
  Basis Set: (AUG-CC-PVTZ AUX)
    Blend: AUG-CC-PVTZ-RI
    Molecular point group: c1

    Geometry (in Angstrom), charge = 0, multiplicity = 1:

       Center              X                  Y                   Z               Mass
    ------------   -----------------  -----------------  -----------------  -----------------
         N            1.772187706674    -0.976869410007    -0.411073735628    14.003074004430
         C            1.002893706674     0.089962589993     0.002423264372    12.000000000000
         C           -0.455895293326     0.036991589993    -0.006388735628    12.000000000000
         C            1.888782706674     1.084260589993     0.408232264372    12.000000000000
         C           -1.201282293326     1.192446589993    -0.294778735628    12.000000000000
         C           -1.145808493326    -1.088757610007     0.561158764372    12.000000000000
         C            3.106677706674    -0.679624410007    -0.301934735628    12.000000000000
         C            3.204230706674     0.600903589993     0.216363264372    12.000000000000
         C           -2.594623293326     1.154615589993    -0.293736735628    12.000000000000
         C           -2.535495293326    -1.198536410007     0.244868264372    12.000000000000
         C           -3.267729293326    -0.042434410007    -0.034253735628    12.000000000000
         H            1.394329706674    -1.803668410007    -0.856534735628     1.007825032230
         H            1.602491706674     2.035948589993     0.838236264372     1.007825032230
         H           -0.676405293326     2.115370589993    -0.531776735628     1.007825032230
         H           -0.579739293326    -2.050703410007     0.542093264372     1.007825032230
         H            3.866506706674    -1.387938410007    -0.602365735628     1.007825032230
         H            4.126454706674     1.118966589993     0.445203264372     1.007825032230
         H           -3.157931293326     2.057817589993    -0.517311735628     1.007825032230
         H           -3.051790293326    -2.130981410007     0.462072264372     1.007825032230
         H           -4.354503293326    -0.072647410007    -0.044683735628     1.007825032230

  Basis Set: AUG-CC-PVTZ
    Blend: AUG-CC-PVTZ
  Basis Set: (AUG-CC-PVTZ AUX)
    Blend: AUG-CC-PVTZ-JKFIT
	 Reference Energy          =    -438.4813612172920898 [Eh]
	 Singles Energy            =      -0.0000000000000000 [Eh]
	 Same-Spin Energy          =      -0.4964688377436177 [Eh]
	 Opposite-Spin Energy      =      -1.5291602096114709 [Eh]
	 Correlation Energy        =      -2.0256290473550886 [Eh]
	 Total Energy              =    -440.5069902646471860 [Eh]

	 ================> DF-SCS-MP2 Energies <==================
	-----------------------------------------------------------
	 SCS Same-Spin Scale       =       0.3333333333333333 [-]
	 SCS Opposite-Spin Scale   =       1.2000000000000000 [-]
	 SCS Same-Spin Energy      =      -0.1654896125812059 [Eh]
	 SCS Opposite-Spin Energy  =      -1.8349922515337651 [Eh]
	 SCS Correlation Energy    =      -2.0004818641149709 [Eh]
	 SCS Total Energy          =    -440.4818430814070780 [Eh]
	-----------------------------------------------------------

  Dipole Moment: [D]
     X:    -0.4902      Y:    -1.2289      Z:    -0.8551     Total:     1.5753

*** Psi4 exiting successfully. Buy a developer a beer!
