                               Psi4 1.4a2.dev612

  ==> Input File <==

--------------------------------------------------------------------------
#psi4
#
memory 32 gb

molecule  {
0 1
  N        1.7773000    -0.9706020    -0.3863220
  C        1.0080060     0.0962300     0.0271750
  C       -0.4507830     0.0432590     0.0183630
  C        1.8938270     1.1274703     0.3400579
  C       -1.1961700     1.1987140    -0.2700270
  C       -1.1363230    -1.1523850     0.2941990
  C        3.1117900    -0.6733570    -0.2771830
  C        3.2093430     0.6071710     0.2411150
  C       -2.5895110     1.1608830    -0.2689850
  C       -2.5303830    -1.1922690     0.2696200
  C       -3.2626170    -0.0361670    -0.0095020
  H        1.3994420    -1.7974010    -0.8317830
  H        1.6076040     2.0422160     0.8629880
  H       -0.6712930     2.1216380    -0.5070250
  H       -0.5746270    -2.0444360     0.5668450
  H        3.8716190    -1.3816710    -0.5776140
  H        4.1315670     1.1252340     0.4699550
  H       -3.1528190     2.0640850    -0.4925600
  H       -3.0466780    -2.1247140     0.4868240
  H       -4.3493910    -0.0663800    -0.0199320
units angstrom
no_reorient  #important for SAPT in psi4, default
symmetry c1  #important for SAPT in psi4, default
}

set PROPERTIES_ORIGIN ["COM"]
properties('MP2/aug-cc-pvtz', properties = ['dipole'])
--------------------------------------------------------------------------

    Molecular point group: c1
  Charge       = 0
  Multiplicity = 1
  Basis Set: AUG-CC-PVTZ
    Blend: AUG-CC-PVTZ
  Basis Set: (AUG-CC-PVTZ AUX)
    Blend: AUG-CC-PVTZ-JKFIT

    Orbital Energies [Eh]
    ---------------------

    Doubly Occupied:

       1A    -15.608876     2A    -11.263716     3A    -11.256931
       4A    -11.253495     5A    -11.242103     6A    -11.240738
       7A    -11.240577     8A    -11.237860     9A    -11.237596
      10A    -11.214912    11A    -11.213849    12A     -1.294587
      13A     -1.156258    14A     -1.048960    15A     -1.042724
      16A     -1.016765    17A     -0.959283    18A     -0.837908
      19A     -0.832406    20A     -0.788219    21A     -0.764249
      22A     -0.735406    23A     -0.679822    24A     -0.633160
      25A     -0.630074    26A     -0.593832    27A     -0.589954
      28A     -0.582847    29A     -0.567286    30A     -0.548829
      31A     -0.533936    32A     -0.504634    33A     -0.501308
      34A     -0.494130    35A     -0.364909    36A     -0.350578
      37A     -0.341397    38A     -0.272599

  @DF-RHF Final Energy:  -438.50601577411874

   => Energetics <=

    Nuclear Repulsion Energy =            536.7425112784643488
    One-Electron Energy =               -1657.1436302757369958
    Two-Electron Energy =                 681.8951032231537965
    Total Energy =                       -438.5060157741187368
  Basis Set: (AUG-CC-PVTZ AUX)
    Blend: AUG-CC-PVTZ-RI
    Molecular point group: c1

    Geometry (in Angstrom), charge = 0, multiplicity = 1:

       Center              X                  Y                   Z               Mass
    ------------   -----------------  -----------------  -----------------  -----------------
         N            1.771826616743    -0.974105585805    -0.378813035899    14.003074004430
         C            1.002532616743     0.092726414195     0.034683964101    12.000000000000
         C           -0.456256383257     0.039755414195     0.025871964101    12.000000000000
         C            1.888353616743     1.123966714195     0.347566864101    12.000000000000
         C           -1.201643383257     1.195210414195    -0.262518035899    12.000000000000
         C           -1.141796383257    -1.155888585805     0.301707964101    12.000000000000
         C            3.106316616743    -0.676860585805    -0.269674035899    12.000000000000
         C            3.203869616743     0.603667414195     0.248623964101    12.000000000000
         C           -2.594984383257     1.157379414195    -0.261476035899    12.000000000000
         C           -2.535856383257    -1.195772585805     0.277128964101    12.000000000000
         C           -3.268090383257    -0.039670585805    -0.001993035899    12.000000000000
         H            1.393968616743    -1.800904585805    -0.824274035899     1.007825032230
         H            1.602130616743     2.038712414195     0.870496964101     1.007825032230
         H           -0.676766383257     2.118134414195    -0.499516035899     1.007825032230
         H           -0.580100383257    -2.047939585805     0.574353964101     1.007825032230
         H            3.866145616743    -1.385174585805    -0.570105035899     1.007825032230
         H            4.126093616743     1.121730414195     0.477463964101     1.007825032230
         H           -3.158292383257     2.060581414195    -0.485051035899     1.007825032230
         H           -3.052151383257    -2.128217585805     0.494332964101     1.007825032230
         H           -4.354864383257    -0.069883585805    -0.012423035899     1.007825032230

  Basis Set: AUG-CC-PVTZ
    Blend: AUG-CC-PVTZ
  Basis Set: (AUG-CC-PVTZ AUX)
    Blend: AUG-CC-PVTZ-JKFIT
	 Reference Energy          =    -438.5060157741187368 [Eh]
	 Singles Energy            =      -0.0000000000000000 [Eh]
	 Same-Spin Energy          =      -0.4954569076232762 [Eh]
	 Opposite-Spin Energy      =      -1.5258302551266780 [Eh]
	 Correlation Energy        =      -2.0212871627499540 [Eh]
	 Total Energy              =    -440.5273029368686935 [Eh]

	 ================> DF-SCS-MP2 Energies <==================
	-----------------------------------------------------------
	 SCS Same-Spin Scale       =       0.3333333333333333 [-]
	 SCS Opposite-Spin Scale   =       1.2000000000000000 [-]
	 SCS Same-Spin Energy      =      -0.1651523025410921 [Eh]
	 SCS Opposite-Spin Energy  =      -1.8309963061520136 [Eh]
	 SCS Correlation Energy    =      -1.9961486086931057 [Eh]
	 SCS Total Energy          =    -440.5021643828118272 [Eh]
	-----------------------------------------------------------

  Dipole Moment: [D]
     X:    -0.4148      Y:    -1.3783      Z:    -0.5749     Total:     1.5500

*** Psi4 exiting successfully. Buy a developer a beer!
