                               Psi4 1.4a2.dev612

  ==> Input File <==

--------------------------------------------------------------------------
#psi4
#
memory 32 gb

molecule  {
0 1
  N        1.7773000    -0.9706020    -0.3863220
  C        1.0080060     0.0962300     0.0271750
  C       -0.4507830     0.0432590     0.0183630
  C        1.8938950     1.0905280     0.4329840
  C       -1.1961700     1.1987140    -0.2700270
  C       -1.1363230    -1.1523850     0.2941990
  C        3.1117900    -0.6733570    -0.2771830
  C        3.2093430     0.6071710     0.2411150
  C       -2.5895110     1.1608830    -0.2689850
  C       -2.5303830    -1.1922690     0.2696200
  C       -3.2626170    -0.0361670    -0.0095020
  H        1.3994420    -1.7974010    -0.8317830
  H        1.6076040     2.0422160     0.8629880
  H       -0.6707139     2.0604264    -0.7494148
  H       -0.5746270    -2.0444360     0.5668450
  H        3.8716190    -1.3816710    -0.5776140
  H        4.1315670     1.1252340     0.4699550
  H       -3.1528190     2.0640850    -0.4925600
  H       -3.0466780    -2.1247140     0.4868240
  H       -4.3493910    -0.0663800    -0.0199320
units angstrom
no_reorient  #important for SAPT in psi4, default
symmetry c1  #important for SAPT in psi4, default
}

set PROPERTIES_ORIGIN ["COM"]
properties('MP2/aug-cc-pvtz', properties = ['dipole'])
--------------------------------------------------------------------------

    Molecular point group: c1
  Charge       = 0
  Multiplicity = 1
  Basis Set: AUG-CC-PVTZ
    Blend: AUG-CC-PVTZ
  Basis Set: (AUG-CC-PVTZ AUX)
    Blend: AUG-CC-PVTZ-JKFIT

    Orbital Energies [Eh]
    ---------------------

    Doubly Occupied:

       1A    -15.608154     2A    -11.261787     3A    -11.256859
       4A    -11.253489     5A    -11.242558     6A    -11.241433
       7A    -11.240593     8A    -11.239853     9A    -11.237929
      10A    -11.213833    11A    -11.212748    12A     -1.294126
      13A     -1.156187    14A     -1.048786    15A     -1.042911
      16A     -1.016282    17A     -0.959135    18A     -0.837670
      19A     -0.830736    20A     -0.788561    21A     -0.764757
      22A     -0.734641    23A     -0.677953    24A     -0.632314
      25A     -0.629616    26A     -0.592520    27A     -0.588904
      28A     -0.581256    29A     -0.569065    30A     -0.549505
      31A     -0.537472    32A     -0.504151    33A     -0.501931
      34A     -0.489919    35A     -0.363196    36A     -0.350160
      37A     -0.340931    38A     -0.273669

  @DF-RHF Final Energy:  -438.50451614618879

   => Energetics <=

    Nuclear Repulsion Energy =            536.6950626088288345
    One-Electron Energy =               -1657.0679858274518210
    Two-Electron Energy =                 681.8684070724341382
    Total Energy =                       -438.5045161461887346
  Basis Set: (AUG-CC-PVTZ AUX)
    Blend: AUG-CC-PVTZ-RI
    Molecular point group: c1

    Geometry (in Angstrom), charge = 0, multiplicity = 1:

       Center              X                  Y                   Z               Mass
    ------------   -----------------  -----------------  -----------------  -----------------
         N            1.771816834138    -0.970575944151    -0.384899604664    14.003074004430
         C            1.002522834138     0.096256055849     0.028597395336    12.000000000000
         C           -0.456266165862     0.043285055849     0.019785395336    12.000000000000
         C            1.888411834138     1.090554055849     0.434406395336    12.000000000000
         C           -1.201653165862     1.198740055849    -0.268604604664    12.000000000000
         C           -1.141806165862    -1.152358944151     0.295621395336    12.000000000000
         C            3.106306834138    -0.673330944151    -0.275760604664    12.000000000000
         C            3.203859834138     0.607197055849     0.242537395336    12.000000000000
         C           -2.594994165862     1.160909055849    -0.267562604664    12.000000000000
         C           -2.535866165862    -1.192242944151     0.271042395336    12.000000000000
         C           -3.268100165862    -0.036140944151    -0.008079604664    12.000000000000
         H            1.393958834138    -1.797374944151    -0.830360604664     1.007825032230
         H            1.602120834138     2.042242055849     0.864410395336     1.007825032230
         H           -0.676197065862     2.060452455849    -0.747992404664     1.007825032230
         H           -0.580110165862    -2.044409944151     0.568267395336     1.007825032230
         H            3.866135834138    -1.381644944151    -0.576191604664     1.007825032230
         H            4.126083834138     1.125260055849     0.471377395336     1.007825032230
         H           -3.158302165862     2.064111055849    -0.491137604664     1.007825032230
         H           -3.052161165862    -2.124687944151     0.488246395336     1.007825032230
         H           -4.354874165862    -0.066353944151    -0.018509604664     1.007825032230

  Basis Set: AUG-CC-PVTZ
    Blend: AUG-CC-PVTZ
  Basis Set: (AUG-CC-PVTZ AUX)
    Blend: AUG-CC-PVTZ-JKFIT
	 Reference Energy          =    -438.5045161461887915 [Eh]
	 Singles Energy            =      -0.0000000000000000 [Eh]
	 Same-Spin Energy          =      -0.4955227533015428 [Eh]
	 Opposite-Spin Energy      =      -1.5258313073372096 [Eh]
	 Correlation Energy        =      -2.0213540606387523 [Eh]
	 Total Energy              =    -440.5258702068275625 [Eh]

	 ================> DF-SCS-MP2 Energies <==================
	-----------------------------------------------------------
	 SCS Same-Spin Scale       =       0.3333333333333333 [-]
	 SCS Opposite-Spin Scale   =       1.2000000000000000 [-]
	 SCS Same-Spin Energy      =      -0.1651742511005143 [Eh]
	 SCS Opposite-Spin Energy  =      -1.8309975688046514 [Eh]
	 SCS Correlation Energy    =      -1.9961718199051657 [Eh]
	 SCS Total Energy          =    -440.5006879660939489 [Eh]
	-----------------------------------------------------------

  Dipole Moment: [D]
     X:    -0.4703      Y:    -1.3928      Z:    -0.7762     Total:     1.6624

*** Psi4 exiting successfully. Buy a developer a beer!
