                               Psi4 1.4a2.dev612

  ==> Input File <==

--------------------------------------------------------------------------
#psi4
#
memory 32 gb

molecule  {
0 1
  N        1.7773000    -0.9706020    -0.3863220
  C        1.0080060     0.0962300     0.0271750
  C       -0.4507830     0.0432590     0.0183630
  C        1.8938950     1.0905280     0.4329840
  C       -1.1961700     1.1987140    -0.2700270
  C       -1.1363230    -1.1523850     0.2941990
  C        3.1117900    -0.6733570    -0.2771830
  C        3.2093430     0.6071710     0.2411150
  C       -2.5895110     1.1608830    -0.2689850
  C       -2.5303830    -1.1922690     0.2696200
  C       -3.2626170    -0.0361670    -0.0095020
  H        1.3994420    -1.7974010    -0.8317830
  H        1.6076040     2.0422160     0.8629880
  H       -0.6712930     2.1216380    -0.5070250
  H       -0.5746270    -2.0444360     0.5668450
  H        3.8684871    -1.2683692    -0.8553781
  H        4.1315670     1.1252340     0.4699550
  H       -3.1528190     2.0640850    -0.4925600
  H       -3.0466780    -2.1247140     0.4868240
  H       -4.3493910    -0.0663800    -0.0199320
units angstrom
no_reorient  #important for SAPT in psi4, default
symmetry c1  #important for SAPT in psi4, default
}

set PROPERTIES_ORIGIN ["COM"]
properties('MP2/aug-cc-pvtz', properties = ['dipole'])
--------------------------------------------------------------------------

    Molecular point group: c1
  Charge       = 0
  Multiplicity = 1
  Basis Set: AUG-CC-PVTZ
    Blend: AUG-CC-PVTZ
  Basis Set: (AUG-CC-PVTZ AUX)
    Blend: AUG-CC-PVTZ-JKFIT

    Orbital Energies [Eh]
    ---------------------

    Doubly Occupied:

       1A    -15.608679     2A    -11.263751     3A    -11.259428
       4A    -11.253850     5A    -11.242325     6A    -11.241145
       7A    -11.240778     8A    -11.238371     9A    -11.237976
      10A    -11.215047    11A    -11.213787    12A     -1.294635
      13A     -1.156562    14A     -1.049375    15A     -1.043502
      16A     -1.017155    17A     -0.958229    18A     -0.837281
      19A     -0.832582    20A     -0.789001    21A     -0.763988
      22A     -0.732715    23A     -0.678379    24A     -0.631262
      25A     -0.629816    26A     -0.594088    27A     -0.590744
      28A     -0.584285    29A     -0.566557    30A     -0.550382
      31A     -0.530096    32A     -0.505608    33A     -0.501246
      34A     -0.494619    35A     -0.364471    36A     -0.350714
      37A     -0.341729    38A     -0.273501

  @DF-RHF Final Energy:  -438.50348237692037

   => Energetics <=

    Nuclear Repulsion Energy =            536.6765736680119971
    One-Electron Energy =               -1657.0047881375248835
    Two-Electron Energy =                 681.8247320925925123
    Total Energy =                       -438.5034823769203740
  Basis Set: (AUG-CC-PVTZ AUX)
    Blend: AUG-CC-PVTZ-RI
    Molecular point group: c1

    Geometry (in Angstrom), charge = 0, multiplicity = 1:

       Center              X                  Y                   Z               Mass
    ------------   -----------------  -----------------  -----------------  -----------------
         N            1.771842974819    -0.971805235207    -0.384650424312    14.003074004430
         C            1.002548974819     0.095026764793     0.028846575688    12.000000000000
         C           -0.456240025181     0.042055764793     0.020034575688    12.000000000000
         C            1.888437974819     1.089324764793     0.434655575688    12.000000000000
         C           -1.201627025181     1.197510764793    -0.268355424312    12.000000000000
         C           -1.141780025181    -1.153588235207     0.295870575688    12.000000000000
         C            3.106332974819    -0.674560235207    -0.275511424312    12.000000000000
         C            3.203885974819     0.605967764793     0.242786575688    12.000000000000
         C           -2.594968025181     1.159679764793    -0.267313424312    12.000000000000
         C           -2.535840025181    -1.193472235207     0.271291575688    12.000000000000
         C           -3.268074025181    -0.037370235207    -0.007830424312    12.000000000000
         H            1.393984974819    -1.798604235207    -0.830111424312     1.007825032230
         H            1.602146974819     2.041012764793     0.864659575688     1.007825032230
         H           -0.676750025181     2.120434764793    -0.505353424312     1.007825032230
         H           -0.580084025181    -2.045639235207     0.568516575688     1.007825032230
         H            3.863030074819    -1.269572435207    -0.853706524312     1.007825032230
         H            4.126109974819     1.124030764793     0.471626575688     1.007825032230
         H           -3.158276025181     2.062881764793    -0.490888424312     1.007825032230
         H           -3.052135025181    -2.125917235207     0.488495575688     1.007825032230
         H           -4.354848025181    -0.067583235207    -0.018260424312     1.007825032230

  Basis Set: AUG-CC-PVTZ
    Blend: AUG-CC-PVTZ
  Basis Set: (AUG-CC-PVTZ AUX)
    Blend: AUG-CC-PVTZ-JKFIT
	 Reference Energy          =    -438.5034823769203740 [Eh]
	 Singles Energy            =      -0.0000000000000000 [Eh]
	 Same-Spin Energy          =      -0.4956300442471432 [Eh]
	 Opposite-Spin Energy      =      -1.5261796189282744 [Eh]
	 Correlation Energy        =      -2.0218096631754174 [Eh]
	 Total Energy              =    -440.5252920400957919 [Eh]

	 ================> DF-SCS-MP2 Energies <==================
	-----------------------------------------------------------
	 SCS Same-Spin Scale       =       0.3333333333333333 [-]
	 SCS Opposite-Spin Scale   =       1.2000000000000000 [-]
	 SCS Same-Spin Energy      =      -0.1652100147490477 [Eh]
	 SCS Opposite-Spin Energy  =      -1.8314155427139291 [Eh]
	 SCS Correlation Energy    =      -1.9966255574629770 [Eh]
	 SCS Total Energy          =    -440.5001079343833226 [Eh]
	-----------------------------------------------------------

  Dipole Moment: [D]
     X:    -0.5119      Y:    -1.1565      Z:    -0.8589     Total:     1.5287

*** Psi4 exiting successfully. Buy a developer a beer!
