                               Psi4 1.4a2.dev612

  ==> Input File <==

--------------------------------------------------------------------------
#psi4
#
memory 32 gb

molecule  {
0 1
  N        1.7773000    -0.9706020    -0.3863220
  C        1.0080060     0.0962300     0.0271750
  C       -0.4507830     0.0432590     0.0183630
  C        1.8938950     1.0905280     0.4329840
  C       -1.1961700     1.1987140    -0.2700270
  C       -1.1370519    -1.1407359     0.3428176
  C        3.1117900    -0.6733570    -0.2771830
  C        3.2093430     0.6071710     0.2411150
  C       -2.5895110     1.1608830    -0.2689850
  C       -2.5303830    -1.1922690     0.2696200
  C       -3.2626170    -0.0361670    -0.0095020
  H        1.3994420    -1.7974010    -0.8317830
  H        1.6076040     2.0422160     0.8629880
  H       -0.6712930     2.1216380    -0.5070250
  H       -0.5746270    -2.0444360     0.5668450
  H        3.8716190    -1.3816710    -0.5776140
  H        4.1315670     1.1252340     0.4699550
  H       -3.1528190     2.0640850    -0.4925600
  H       -3.0466780    -2.1247140     0.4868240
  H       -4.3493910    -0.0663800    -0.0199320
units angstrom
no_reorient  #important for SAPT in psi4, default
symmetry c1  #important for SAPT in psi4, default
}

set PROPERTIES_ORIGIN ["COM"]
properties('MP2/aug-cc-pvtz', properties = ['dipole'])
--------------------------------------------------------------------------

    Molecular point group: c1
  Charge       = 0
  Multiplicity = 1
  Basis Set: AUG-CC-PVTZ
    Blend: AUG-CC-PVTZ
  Basis Set: (AUG-CC-PVTZ AUX)
    Blend: AUG-CC-PVTZ-JKFIT

    Orbital Energies [Eh]
    ---------------------

    Doubly Occupied:

       1A    -15.608371     2A    -11.262042     3A    -11.256562
       4A    -11.253176     5A    -11.242093     6A    -11.240757
       7A    -11.240585     8A    -11.237984     9A    -11.237702
      10A    -11.213881    11A    -11.212770    12A     -1.294153
      13A     -1.155998    14A     -1.048897    15A     -1.042797
      16A     -1.016647    17A     -0.959191    18A     -0.837746
      19A     -0.832114    20A     -0.788626    21A     -0.765031
      22A     -0.735205    23A     -0.679989    24A     -0.633242
      25A     -0.629603    26A     -0.593453    27A     -0.588537
      28A     -0.582773    29A     -0.569518    30A     -0.549569
      31A     -0.537049    32A     -0.503776    33A     -0.501563
      34A     -0.494190    35A     -0.362680    36A     -0.350134
      37A     -0.341112    38A     -0.273907

  @DF-RHF Final Energy:  -438.50820466763014

   => Energetics <=

    Nuclear Repulsion Energy =            536.7759208726989755
    One-Electron Energy =               -1657.2214045143027761
    Two-Electron Energy =                 681.9372789739737755
    Total Energy =                       -438.5082046676301388
  Basis Set: (AUG-CC-PVTZ AUX)
    Blend: AUG-CC-PVTZ-RI
    Molecular point group: c1

    Geometry (in Angstrom), charge = 0, multiplicity = 1:

       Center              X                  Y                   Z               Mass
    ------------   -----------------  -----------------  -----------------  -----------------
         N            1.771882048392    -0.971984169879    -0.390684810954    14.003074004430
         C            1.002588048392     0.094847830121     0.022812189046    12.000000000000
         C           -0.456200951608     0.041876830121     0.014000189046    12.000000000000
         C            1.888477048392     1.089145830121     0.428621189046    12.000000000000
         C           -1.201587951608     1.197331830121    -0.274389810954    12.000000000000
         C           -1.142469851608    -1.142118069879     0.338454789046    12.000000000000
         C            3.106372048392    -0.674739169879    -0.281545810954    12.000000000000
         C            3.203925048392     0.605788830121     0.236752189046    12.000000000000
         C           -2.594928951608     1.159500830121    -0.273347810954    12.000000000000
         C           -2.535800951608    -1.193651169879     0.265257189046    12.000000000000
         C           -3.268034951608    -0.037549169879    -0.013864810954    12.000000000000
         H            1.394024048392    -1.798783169879    -0.836145810954     1.007825032230
         H            1.602186048392     2.040833830121     0.858625189046     1.007825032230
         H           -0.676710951608     2.120255830121    -0.511387810954     1.007825032230
         H           -0.580044951608    -2.045818169879     0.562482189046     1.007825032230
         H            3.866201048392    -1.383053169879    -0.581976810954     1.007825032230
         H            4.126149048392     1.123851830121     0.465592189046     1.007825032230
         H           -3.158236951608     2.062702830121    -0.496922810954     1.007825032230
         H           -3.052095951608    -2.126096169879     0.482461189046     1.007825032230
         H           -4.354808951608    -0.067762169879    -0.024294810954     1.007825032230

  Basis Set: AUG-CC-PVTZ
    Blend: AUG-CC-PVTZ
  Basis Set: (AUG-CC-PVTZ AUX)
    Blend: AUG-CC-PVTZ-JKFIT
	 Reference Energy          =    -438.5082046676301388 [Eh]
	 Singles Energy            =      -0.0000000000000000 [Eh]
	 Same-Spin Energy          =      -0.4952600128045206 [Eh]
	 Opposite-Spin Energy      =      -1.5253854356092491 [Eh]
	 Correlation Energy        =      -2.0206454484137697 [Eh]
	 Total Energy              =    -440.5288501160438841 [Eh]

	 ================> DF-SCS-MP2 Energies <==================
	-----------------------------------------------------------
	 SCS Same-Spin Scale       =       0.3333333333333333 [-]
	 SCS Opposite-Spin Scale   =       1.2000000000000000 [-]
	 SCS Same-Spin Energy      =      -0.1650866709348402 [Eh]
	 SCS Opposite-Spin Energy  =      -1.8304625227310989 [Eh]
	 SCS Correlation Energy    =      -1.9955491936659391 [Eh]
	 SCS Total Energy          =    -440.5037538612961043 [Eh]
	-----------------------------------------------------------

  Dipole Moment: [D]
     X:    -0.4536      Y:    -1.3271      Z:    -0.6756     Total:     1.5567

*** Psi4 exiting successfully. Buy a developer a beer!
