                               Psi4 1.4a2.dev612

  ==> Input File <==

--------------------------------------------------------------------------
#psi4
#
memory 32 gb

molecule  {
0 1
  N        1.7773000    -0.9706020    -0.3863220
  C        1.0080060     0.0962300     0.0271750
  C       -0.4507830     0.0432590     0.0183630
  C        1.8938950     1.0905280     0.4329840
  C       -1.1961700     1.1987140    -0.2700270
  C       -1.1363230    -1.1523850     0.2941990
  C        3.1117900    -0.6733570    -0.2771830
  C        3.2093430     0.6071710     0.2411150
  C       -2.5895110     1.1608830    -0.2689850
  C       -2.5303830    -1.1922690     0.2696200
  C       -3.2626170    -0.0361670    -0.0095020
  H        1.3994420    -1.7974010    -0.8317830
  H        1.6076040     2.0422160     0.8629880
  H       -0.6712930     2.1216380    -0.5070250
  H       -0.5746270    -2.0444360     0.5668450
  H        3.8705750    -1.3439037    -0.6702020
  H        4.1315670     1.1252340     0.4699550
  H       -3.1528190     2.0640850    -0.4925600
  H       -3.0466780    -2.1247140     0.4868240
  H       -4.3493910    -0.0663800    -0.0199320
units angstrom
no_reorient  #important for SAPT in psi4, default
symmetry c1  #important for SAPT in psi4, default
}

set PROPERTIES_ORIGIN ["COM"]
properties('MP2/aug-cc-pvtz', properties = ['dipole'])
--------------------------------------------------------------------------

    Molecular point group: c1
  Charge       = 0
  Multiplicity = 1
  Basis Set: AUG-CC-PVTZ
    Blend: AUG-CC-PVTZ
  Basis Set: (AUG-CC-PVTZ AUX)
    Blend: AUG-CC-PVTZ-JKFIT

    Orbital Energies [Eh]
    ---------------------

    Doubly Occupied:

       1A    -15.608435     2A    -11.262352     3A    -11.257049
       4A    -11.253326     5A    -11.242012     6A    -11.240754
       7A    -11.240452     8A    -11.237932     9A    -11.237647
      10A    -11.214086    11A    -11.212983    12A     -1.294289
      13A     -1.156174    14A     -1.048987    15A     -1.043009
      16A     -1.016792    17A     -0.959122    18A     -0.837768
      19A     -0.832236    20A     -0.788696    21A     -0.764862
      22A     -0.735008    23A     -0.679730    24A     -0.632830
      25A     -0.629707    26A     -0.593634    27A     -0.589261
      28A     -0.583783    29A     -0.568516    30A     -0.549646
      31A     -0.535774    32A     -0.504869    33A     -0.500846
      34A     -0.494351    35A     -0.363742    36A     -0.350321
      37A     -0.341366    38A     -0.273281

  @DF-RHF Final Energy:  -438.50834353168335

   => Energetics <=

    Nuclear Repulsion Energy =            536.8117491628847802
    One-Electron Energy =               -1657.2889274536294124
    Two-Electron Energy =                 681.9688347590612238
    Total Energy =                       -438.5083435316834084
  Basis Set: (AUG-CC-PVTZ AUX)
    Blend: AUG-CC-PVTZ-RI
    Molecular point group: c1

    Geometry (in Angstrom), charge = 0, multiplicity = 1:

       Center              X                  Y                   Z               Mass
    ------------   -----------------  -----------------  -----------------  -----------------
         N            1.771828267428    -0.971273162109    -0.385954824566    14.003074004430
         C            1.002534267428     0.095558837891     0.027542175434    12.000000000000
         C           -0.456254732572     0.042587837891     0.018730175434    12.000000000000
         C            1.888423267428     1.089856837891     0.433351175434    12.000000000000
         C           -1.201641732572     1.198042837891    -0.269659824566    12.000000000000
         C           -1.141794732572    -1.153056162109     0.294566175434    12.000000000000
         C            3.106318267428    -0.674028162109    -0.276815824566    12.000000000000
         C            3.203871267428     0.606499837891     0.241482175434    12.000000000000
         C           -2.594982732572     1.160211837891    -0.268617824566    12.000000000000
         C           -2.535854732572    -1.192940162109     0.269987175434    12.000000000000
         C           -3.268088732572    -0.036838162109    -0.009134824566    12.000000000000
         H            1.393970267428    -1.798072162109    -0.831415824566     1.007825032230
         H            1.602132267428     2.041544837891     0.863355175434     1.007825032230
         H           -0.676764732572     2.120966837891    -0.506657824566     1.007825032230
         H           -0.580098732572    -2.045107162109     0.567212175434     1.007825032230
         H            3.865103267428    -1.344574862109    -0.669834824566     1.007825032230
         H            4.126095267428     1.124562837891     0.470322175434     1.007825032230
         H           -3.158290732572     2.063413837891    -0.492192824566     1.007825032230
         H           -3.052149732572    -2.125385162109     0.487191175434     1.007825032230
         H           -4.354862732572    -0.067051162109    -0.019564824566     1.007825032230

  Basis Set: AUG-CC-PVTZ
    Blend: AUG-CC-PVTZ
  Basis Set: (AUG-CC-PVTZ AUX)
    Blend: AUG-CC-PVTZ-JKFIT
	 Reference Energy          =    -438.5083435316833516 [Eh]
	 Singles Energy            =      -0.0000000000000000 [Eh]
	 Same-Spin Energy          =      -0.4953076401475237 [Eh]
	 Opposite-Spin Energy      =      -1.5254280133265983 [Eh]
	 Correlation Energy        =      -2.0207356534741221 [Eh]
	 Total Energy              =    -440.5290791851574568 [Eh]

	 ================> DF-SCS-MP2 Energies <==================
	-----------------------------------------------------------
	 SCS Same-Spin Scale       =       0.3333333333333333 [-]
	 SCS Opposite-Spin Scale   =       1.2000000000000000 [-]
	 SCS Same-Spin Energy      =      -0.1651025467158412 [Eh]
	 SCS Opposite-Spin Energy  =      -1.8305136159919178 [Eh]
	 SCS Correlation Energy    =      -1.9956161627077589 [Eh]
	 SCS Total Energy          =    -440.5039596943910851 [Eh]
	-----------------------------------------------------------

  Dipole Moment: [D]
     X:    -0.4514      Y:    -1.2781      Z:    -0.7264     Total:     1.5378

*** Psi4 exiting successfully. Buy a developer a beer!
