                               Psi4 1.4a2.dev612

  ==> Input File <==

--------------------------------------------------------------------------
#psi4
#
memory 32 gb

molecule  {
0 1
  N        1.7773000    -0.9706020    -0.3863220
  C        1.0080060     0.0962300     0.0271750
  C       -0.4507830     0.0432590     0.0183630
  C        1.8938950     1.0905280     0.4329840
  C       -1.1961700     1.1987140    -0.2700270
  C       -1.1363230    -1.1523850     0.2941990
  C        3.1117900    -0.6733570    -0.2771830
  C        3.2093430     0.6071710     0.2411150
  C       -2.5895110     1.1608830    -0.2689850
  C       -2.5303830    -1.1922690     0.2696200
  C       -3.2626170    -0.0361670    -0.0095020
  H        1.3994420    -1.7974010    -0.8317830
  H        1.6076040     2.0422160     0.8629880
  H       -0.6712930     2.1216380    -0.5070250
  H       -0.5746270    -2.0444360     0.5668450
  H        3.8716190    -1.3816710    -0.5776140
  H        4.1287442     1.0115195     0.7475537
  H       -3.1528190     2.0640850    -0.4925600
  H       -3.0466780    -2.1247140     0.4868240
  H       -4.3493910    -0.0663800    -0.0199320
units angstrom
no_reorient  #important for SAPT in psi4, default
symmetry c1  #important for SAPT in psi4, default
}

set PROPERTIES_ORIGIN ["COM"]
properties('MP2/aug-cc-pvtz', properties = ['dipole'])
--------------------------------------------------------------------------

    Molecular point group: c1
  Charge       = 0
  Multiplicity = 1
  Basis Set: AUG-CC-PVTZ
    Blend: AUG-CC-PVTZ
  Basis Set: (AUG-CC-PVTZ AUX)
    Blend: AUG-CC-PVTZ-JKFIT

    Orbital Energies [Eh]
    ---------------------

    Doubly Occupied:

       1A    -15.609595     2A    -11.262709     3A    -11.258145
       4A    -11.253581     5A    -11.242269     6A    -11.240901
       7A    -11.240724     8A    -11.238040     9A    -11.237772
      10A    -11.217063    11A    -11.213915    12A     -1.295243
      13A     -1.156390    14A     -1.049342    15A     -1.042810
      16A     -1.016957    17A     -0.959518    18A     -0.838182
      19A     -0.832242    20A     -0.786349    21A     -0.763436
      22A     -0.735372    23A     -0.679967    24A     -0.633595
      25A     -0.629794    26A     -0.591994    27A     -0.589938
      28A     -0.583362    29A     -0.570807    30A     -0.541410
      31A     -0.535404    32A     -0.504723    33A     -0.501059
      34A     -0.494120    35A     -0.364057    36A     -0.350710
      37A     -0.341535    38A     -0.273381

  @DF-RHF Final Energy:  -438.50292960575229

   => Energetics <=

    Nuclear Repulsion Energy =            536.6779867627911926
    One-Electron Energy =               -1657.0090122096864889
    Two-Electron Energy =                 681.8280958411428401
    Total Energy =                       -438.5029296057523425
  Basis Set: (AUG-CC-PVTZ AUX)
    Blend: AUG-CC-PVTZ-RI
    Molecular point group: c1

    Geometry (in Angstrom), charge = 0, multiplicity = 1:

       Center              X                  Y                   Z               Mass
    ------------   -----------------  -----------------  -----------------  -----------------
         N            1.771840797486    -0.970206108108    -0.388562459277    14.003074004430
         C            1.002546797486     0.096625891892     0.024934540723    12.000000000000
         C           -0.456242202514     0.043654891892     0.016122540723    12.000000000000
         C            1.888435797486     1.090923891892     0.430743540723    12.000000000000
         C           -1.201629202514     1.199109891892    -0.272267459277    12.000000000000
         C           -1.141782202514    -1.151989108108     0.291958540723    12.000000000000
         C            3.106330797486    -0.672961108108    -0.279423459277    12.000000000000
         C            3.203883797486     0.607566891892     0.238874540723    12.000000000000
         C           -2.594970202514     1.161278891892    -0.271225459277    12.000000000000
         C           -2.535842202514    -1.191873108108     0.267379540723    12.000000000000
         C           -3.268076202514    -0.035771108108    -0.011742459277    12.000000000000
         H            1.393982797486    -1.797005108108    -0.834023459277     1.007825032230
         H            1.602144797486     2.042611891892     0.860747540723     1.007825032230
         H           -0.676752202514     2.122033891892    -0.509265459277     1.007825032230
         H           -0.580086202514    -2.044040108108     0.564604540723     1.007825032230
         H            3.866159797486    -1.381275108108    -0.579854459277     1.007825032230
         H            4.123284997486     1.011915391892     0.745313240723     1.007825032230
         H           -3.158278202514     2.064480891892    -0.494800459277     1.007825032230
         H           -3.052137202514    -2.124318108108     0.484583540723     1.007825032230
         H           -4.354850202514    -0.065984108108    -0.022172459277     1.007825032230

  Basis Set: AUG-CC-PVTZ
    Blend: AUG-CC-PVTZ
  Basis Set: (AUG-CC-PVTZ AUX)
    Blend: AUG-CC-PVTZ-JKFIT
	 Reference Energy          =    -438.5029296057522856 [Eh]
	 Singles Energy            =      -0.0000000000000000 [Eh]
	 Same-Spin Energy          =      -0.4955457587191637 [Eh]
	 Opposite-Spin Energy      =      -1.5260882495644470 [Eh]
	 Correlation Energy        =      -2.0216340082836108 [Eh]
	 Total Energy              =    -440.5245636140359125 [Eh]

	 ================> DF-SCS-MP2 Energies <==================
	-----------------------------------------------------------
	 SCS Same-Spin Scale       =       0.3333333333333333 [-]
	 SCS Opposite-Spin Scale   =       1.2000000000000000 [-]
	 SCS Same-Spin Energy      =      -0.1651819195730546 [Eh]
	 SCS Opposite-Spin Energy  =      -1.8313058994773364 [Eh]
	 SCS Correlation Energy    =      -1.9964878190503910 [Eh]
	 SCS Total Energy          =    -440.4994174248026866 [Eh]
	-----------------------------------------------------------

  Dipole Moment: [D]
     X:    -0.5305      Y:    -1.4461      Z:    -0.4517     Total:     1.6052

*** Psi4 exiting successfully. Buy a developer a beer!
