                               Psi4 1.4a2.dev612

  ==> Input File <==

--------------------------------------------------------------------------
#psi4
#
memory 32 gb

molecule  {
0 1
  N        1.7773000    -0.9706020    -0.3863220
  C        1.0080060     0.0962300     0.0271750
  C       -0.4507830     0.0432590     0.0183630
  C        1.8938950     1.0905280     0.4329840
  C       -1.1961700     1.1987140    -0.2700270
  C       -1.1363230    -1.1523850     0.2941990
  C        3.1117900    -0.6733570    -0.2771830
  C        3.2093430     0.6071710     0.2411150
  C       -2.5895110     1.1608830    -0.2689850
  C       -2.5303830    -1.1922690     0.2696200
  C       -3.2626170    -0.0361670    -0.0095020
  H        1.3994420    -1.7974010    -0.8317830
  H        1.6082233     1.9433940     1.0926265
  H       -0.6712930     2.1216380    -0.5070250
  H       -0.5746270    -2.0444360     0.5668450
  H        3.8716190    -1.3816710    -0.5776140
  H        4.1315670     1.1252340     0.4699550
  H       -3.1528190     2.0640850    -0.4925600
  H       -3.0466780    -2.1247140     0.4868240
  H       -4.3493910    -0.0663800    -0.0199320
units angstrom
no_reorient  #important for SAPT in psi4, default
symmetry c1  #important for SAPT in psi4, default
}

set PROPERTIES_ORIGIN ["COM"]
properties('MP2/aug-cc-pvtz', properties = ['dipole'])
--------------------------------------------------------------------------

    Molecular point group: c1
  Charge       = 0
  Multiplicity = 1
  Basis Set: AUG-CC-PVTZ
    Blend: AUG-CC-PVTZ
  Basis Set: (AUG-CC-PVTZ AUX)
    Blend: AUG-CC-PVTZ-JKFIT

    Orbital Energies [Eh]
    ---------------------

    Doubly Occupied:

       1A    -15.609053     2A    -11.263247     3A    -11.256870
       4A    -11.253225     5A    -11.242226     6A    -11.240910
       7A    -11.240641     8A    -11.238194     9A    -11.237736
      10A    -11.215566    11A    -11.213607    12A     -1.294813
      13A     -1.156353    14A     -1.048880    15A     -1.042913
      16A     -1.016906    17A     -0.959294    18A     -0.837711
      19A     -0.832189    20A     -0.788026    21A     -0.761960
      22A     -0.735297    23A     -0.680065    24A     -0.633362
      25A     -0.630098    26A     -0.592248    27A     -0.589644
      28A     -0.582341    29A     -0.568289    30A     -0.548181
      31A     -0.532102    32A     -0.504629    33A     -0.500960
      34A     -0.494415    35A     -0.363468    36A     -0.350172
      37A     -0.341406    38A     -0.273916

  @DF-RHF Final Energy:  -438.50464831139510

   => Energetics <=

    Nuclear Repulsion Energy =            536.6896322080482378
    One-Electron Energy =               -1657.0467313976500918
    Two-Electron Energy =                 681.8524508782065823
    Total Energy =                       -438.5046483113951581
  Basis Set: (AUG-CC-PVTZ AUX)
    Blend: AUG-CC-PVTZ-RI
    Molecular point group: c1

    Geometry (in Angstrom), charge = 0, multiplicity = 1:

       Center              X                  Y                   Z               Mass
    ------------   -----------------  -----------------  -----------------  -----------------
         N            1.771816550965    -0.970311012471    -0.388224622498    14.003074004430
         C            1.002522550965     0.096520987529     0.025272377502    12.000000000000
         C           -0.456266449035     0.043549987529     0.016460377502    12.000000000000
         C            1.888411550965     1.090818987529     0.431081377502    12.000000000000
         C           -1.201653449035     1.199004987529    -0.271929622498    12.000000000000
         C           -1.141806449035    -1.152094012471     0.292296377502    12.000000000000
         C            3.106306550965    -0.673066012471    -0.279085622498    12.000000000000
         C            3.203859550965     0.607461987529     0.239212377502    12.000000000000
         C           -2.594994449035     1.161173987529    -0.270887622498    12.000000000000
         C           -2.535866449035    -1.191978012471     0.267717377502    12.000000000000
         C           -3.268100449035    -0.035876012471    -0.011404622498    12.000000000000
         H            1.393958550965    -1.797110012471    -0.833685622498     1.007825032230
         H            1.602739850965     1.943684987529     1.090723877502     1.007825032230
         H           -0.676776449035     2.121928987529    -0.508927622498     1.007825032230
         H           -0.580110449035    -2.044145012471     0.564942377502     1.007825032230
         H            3.866135550965    -1.381380012471    -0.579516622498     1.007825032230
         H            4.126083550965     1.125524987529     0.468052377502     1.007825032230
         H           -3.158302449035     2.064375987529    -0.494462622498     1.007825032230
         H           -3.052161449035    -2.124423012471     0.484921377502     1.007825032230
         H           -4.354874449035    -0.066089012471    -0.021834622498     1.007825032230

  Basis Set: AUG-CC-PVTZ
    Blend: AUG-CC-PVTZ
  Basis Set: (AUG-CC-PVTZ AUX)
    Blend: AUG-CC-PVTZ-JKFIT
	 Reference Energy          =    -438.5046483113951012 [Eh]
	 Singles Energy            =      -0.0000000000000000 [Eh]
	 Same-Spin Energy          =      -0.4954996041346688 [Eh]
	 Opposite-Spin Energy      =      -1.5258974106666003 [Eh]
	 Correlation Energy        =      -2.0213970148012690 [Eh]
	 Total Energy              =    -440.5260453261963676 [Eh]

	 ================> DF-SCS-MP2 Energies <==================
	-----------------------------------------------------------
	 SCS Same-Spin Scale       =       0.3333333333333333 [-]
	 SCS Opposite-Spin Scale   =       1.2000000000000000 [-]
	 SCS Same-Spin Energy      =      -0.1651665347115563 [Eh]
	 SCS Opposite-Spin Energy  =      -1.8310768927999204 [Eh]
	 SCS Correlation Energy    =      -1.9962434275114767 [Eh]
	 SCS Total Energy          =    -440.5008917389066028 [Eh]
	-----------------------------------------------------------

  Dipole Moment: [D]
     X:    -0.4453      Y:    -1.4429      Z:    -0.4976     Total:     1.5899

*** Psi4 exiting successfully. Buy a developer a beer!
