                               Psi4 1.4a2.dev612

  ==> Input File <==

--------------------------------------------------------------------------
#psi4
#
memory 32 gb

molecule  {
0 1
  N        1.7773000    -0.9706020    -0.3863220
  C        1.0080060     0.0962300     0.0271750
  C       -0.4507830     0.0432590     0.0183630
  C        1.8937251     1.1828837     0.2006687
  C       -1.1961700     1.1987140    -0.2700270
  C       -1.1363230    -1.1523850     0.2941990
  C        3.1117900    -0.6733570    -0.2771830
  C        3.2093430     0.6071710     0.2411150
  C       -2.5895110     1.1608830    -0.2689850
  C       -2.5303830    -1.1922690     0.2696200
  C       -3.2626170    -0.0361670    -0.0095020
  H        1.3994420    -1.7974010    -0.8317830
  H        1.6076040     2.0422160     0.8629880
  H       -0.6712930     2.1216380    -0.5070250
  H       -0.5746270    -2.0444360     0.5668450
  H        3.8716190    -1.3816710    -0.5776140
  H        4.1315670     1.1252340     0.4699550
  H       -3.1528190     2.0640850    -0.4925600
  H       -3.0466780    -2.1247140     0.4868240
  H       -4.3493910    -0.0663800    -0.0199320
units angstrom
no_reorient  #important for SAPT in psi4, default
symmetry c1  #important for SAPT in psi4, default
}

set PROPERTIES_ORIGIN ["COM"]
properties('MP2/aug-cc-pvtz', properties = ['dipole'])
--------------------------------------------------------------------------

    Molecular point group: c1
  Charge       = 0
  Multiplicity = 1
  Basis Set: AUG-CC-PVTZ
    Blend: AUG-CC-PVTZ
  Basis Set: (AUG-CC-PVTZ AUX)
    Blend: AUG-CC-PVTZ-JKFIT

    Orbital Energies [Eh]
    ---------------------

    Doubly Occupied:

       1A    -15.611028     2A    -11.270314     3A    -11.257404
       4A    -11.254363     5A    -11.242917     6A    -11.241676
       7A    -11.241209     8A    -11.238642     9A    -11.238323
      10A    -11.218753    11A    -11.217240    12A     -1.295584
      13A     -1.157147    14A     -1.049154    15A     -1.040517
      16A     -1.017281    17A     -0.959039    18A     -0.838337
      19A     -0.833173    20A     -0.786385    21A     -0.762081
      22A     -0.735644    23A     -0.680050    24A     -0.633441
      25A     -0.630535    26A     -0.594819    27A     -0.590960
      28A     -0.583109    29A     -0.565180    30A     -0.542955
      31A     -0.522608    32A     -0.505170    33A     -0.502007
      34A     -0.493690    35A     -0.367204    36A     -0.350477
      37A     -0.342021    38A     -0.271831

  @DF-RHF Final Energy:  -438.49086576666707

   => Energetics <=

    Nuclear Repulsion Energy =            536.1954485913213375
    One-Electron Energy =               -1656.0080906858293019
    Two-Electron Energy =                 681.3217763278408938
    Total Energy =                       -438.4908657666670706
  Basis Set: (AUG-CC-PVTZ AUX)
    Blend: AUG-CC-PVTZ-RI
    Molecular point group: c1

    Geometry (in Angstrom), charge = 0, multiplicity = 1:

       Center              X                  Y                   Z               Mass
    ------------   -----------------  -----------------  -----------------  -----------------
         N            1.771835163399    -0.978753272507    -0.367122049041    14.003074004430
         C            1.002541163399     0.088078727493     0.046374950959    12.000000000000
         C           -0.456247836601     0.035107727493     0.037562950959    12.000000000000
         C            1.888260263399     1.174732427493     0.219868650959    12.000000000000
         C           -1.201634836601     1.190562727493    -0.250827049041    12.000000000000
         C           -1.141787836601    -1.160536272507     0.313398950959    12.000000000000
         C            3.106325163399    -0.681508272507    -0.257983049041    12.000000000000
         C            3.203878163399     0.599019727493     0.260314950959    12.000000000000
         C           -2.594975836601     1.152731727493    -0.249785049041    12.000000000000
         C           -2.535847836601    -1.200420272507     0.288819950959    12.000000000000
         C           -3.268081836601    -0.044318272507     0.009697950959    12.000000000000
         H            1.393977163399    -1.805552272507    -0.812583049041     1.007825032230
         H            1.602139163399     2.034064727493     0.882187950959     1.007825032230
         H           -0.676757836601     2.113486727493    -0.487825049041     1.007825032230
         H           -0.580091836601    -2.052587272507     0.586044950959     1.007825032230
         H            3.866154163399    -1.389822272507    -0.558414049041     1.007825032230
         H            4.126102163399     1.117082727493     0.489154950959     1.007825032230
         H           -3.158283836601     2.055933727493    -0.473360049041     1.007825032230
         H           -3.052142836601    -2.132865272507     0.506023950959     1.007825032230
         H           -4.354855836601    -0.074531272507    -0.000732049041     1.007825032230

  Basis Set: AUG-CC-PVTZ
    Blend: AUG-CC-PVTZ
  Basis Set: (AUG-CC-PVTZ AUX)
    Blend: AUG-CC-PVTZ-JKFIT
	 Reference Energy          =    -438.4908657666670706 [Eh]
	 Singles Energy            =      -0.0000000000000000 [Eh]
	 Same-Spin Energy          =      -0.4962289396276244 [Eh]
	 Opposite-Spin Energy      =      -1.5282134321027865 [Eh]
	 Correlation Energy        =      -2.0244423717304110 [Eh]
	 Total Energy              =    -440.5153081383974722 [Eh]

	 ================> DF-SCS-MP2 Energies <==================
	-----------------------------------------------------------
	 SCS Same-Spin Scale       =       0.3333333333333333 [-]
	 SCS Opposite-Spin Scale   =       1.2000000000000000 [-]
	 SCS Same-Spin Energy      =      -0.1654096465425414 [Eh]
	 SCS Opposite-Spin Energy  =      -1.8338561185233437 [Eh]
	 SCS Correlation Energy    =      -1.9992657650658852 [Eh]
	 SCS Total Energy          =    -440.4901315317329704 [Eh]
	-----------------------------------------------------------

  Dipole Moment: [D]
     X:    -0.3778      Y:    -1.5475      Z:    -0.4955     Total:     1.6683

*** Psi4 exiting successfully. Buy a developer a beer!
