                               Psi4 1.4a2.dev612

  ==> Input File <==

--------------------------------------------------------------------------
#psi4
#
memory 32 gb

molecule  {
0 1
  N        1.7773000    -0.9706020    -0.3863220
  C        1.0080060     0.0962300     0.0271750
  C       -0.4507830     0.0432590     0.0183630
  C        1.8938950     1.0905280     0.4329840
  C       -1.1961700     1.1987140    -0.2700270
  C       -1.1363230    -1.1523850     0.2941990
  C        3.1117900    -0.6733570    -0.2771830
  C        3.2093430     0.6071710     0.2411150
  C       -2.5895110     1.1608830    -0.2689850
  C       -2.5303830    -1.1922690     0.2696200
  C       -3.2626170    -0.0361670    -0.0095020
  H        1.3994420    -1.7974010    -0.8317830
  H        1.6076040     2.0422160     0.8629880
  H       -0.6712930     2.1216380    -0.5070250
  H       -0.5746270    -2.0444360     0.5668450
  H        3.8695311    -1.3061365    -0.7627901
  H        4.1315670     1.1252340     0.4699550
  H       -3.1528190     2.0640850    -0.4925600
  H       -3.0466780    -2.1247140     0.4868240
  H       -4.3493910    -0.0663800    -0.0199320
units angstrom
no_reorient  #important for SAPT in psi4, default
symmetry c1  #important for SAPT in psi4, default
}

set PROPERTIES_ORIGIN ["COM"]
properties('MP2/aug-cc-pvtz', properties = ['dipole'])
--------------------------------------------------------------------------

    Molecular point group: c1
  Charge       = 0
  Multiplicity = 1
  Basis Set: AUG-CC-PVTZ
    Blend: AUG-CC-PVTZ
  Basis Set: (AUG-CC-PVTZ AUX)
    Blend: AUG-CC-PVTZ-JKFIT

    Orbital Energies [Eh]
    ---------------------

    Doubly Occupied:

       1A    -15.608565     2A    -11.262908     3A    -11.257992
       4A    -11.253536     5A    -11.242118     6A    -11.240899
       7A    -11.240554     8A    -11.238080     9A    -11.237753
      10A    -11.214455    11A    -11.213315    12A     -1.294447
      13A     -1.156312    14A     -1.049138    15A     -1.043208
      16A     -1.016919    17A     -0.958768    18A     -0.837554
      19A     -0.832362    20A     -0.788820    21A     -0.764499
      22A     -0.734107    23A     -0.679208    24A     -0.632118
      25A     -0.629789    26A     -0.593803    27A     -0.589962
      28A     -0.584199    29A     -0.567544    30A     -0.549956
      31A     -0.533522    32A     -0.505209    33A     -0.500998
      34A     -0.494441    35A     -0.364085    36A     -0.350482
      37A     -0.341498    38A     -0.273321

  @DF-RHF Final Energy:  -438.50664879602840

   => Energetics <=

    Nuclear Repulsion Energy =            536.7597077153614009
    One-Electron Energy =               -1657.1798241644457903
    Two-Electron Energy =                 681.9134676530559318
    Total Energy =                       -438.5066487960284576
  Basis Set: (AUG-CC-PVTZ AUX)
    Blend: AUG-CC-PVTZ-RI
    Molecular point group: c1

    Geometry (in Angstrom), charge = 0, multiplicity = 1:

       Center              X                  Y                   Z               Mass
    ------------   -----------------  -----------------  -----------------  -----------------
         N            1.771835620771    -0.971539198306    -0.385302624087    14.003074004430
         C            1.002541620771     0.095292801694     0.028194375913    12.000000000000
         C           -0.456247379229     0.042321801694     0.019382375913    12.000000000000
         C            1.888430620771     1.089590801694     0.434003375913    12.000000000000
         C           -1.201634379229     1.197776801694    -0.269007624087    12.000000000000
         C           -1.141787379229    -1.153322198306     0.295218375913    12.000000000000
         C            3.106325620771    -0.674294198306    -0.276163624087    12.000000000000
         C            3.203878620771     0.606233801694     0.242134375913    12.000000000000
         C           -2.594975379229     1.159945801694    -0.267965624087    12.000000000000
         C           -2.535847379229    -1.193206198306     0.270639375913    12.000000000000
         C           -3.268081379229    -0.037104198306    -0.008482624087    12.000000000000
         H            1.393977620771    -1.798338198306    -0.830763624087     1.007825032230
         H            1.602139620771     2.041278801694     0.864007375913     1.007825032230
         H           -0.676757379229     2.120700801694    -0.506005624087     1.007825032230
         H           -0.580091379229    -2.045373198306     0.567864375913     1.007825032230
         H            3.864066720771    -1.307073698306    -0.761770724087     1.007825032230
         H            4.126102620771     1.124296801694     0.470974375913     1.007825032230
         H           -3.158283379229     2.063147801694    -0.491540624087     1.007825032230
         H           -3.052142379229    -2.125651198306     0.487843375913     1.007825032230
         H           -4.354855379229    -0.067317198306    -0.018912624087     1.007825032230

  Basis Set: AUG-CC-PVTZ
    Blend: AUG-CC-PVTZ
  Basis Set: (AUG-CC-PVTZ AUX)
    Blend: AUG-CC-PVTZ-JKFIT
	 Reference Energy          =    -438.5066487960284007 [Eh]
	 Singles Energy            =      -0.0000000000000000 [Eh]
	 Same-Spin Energy          =      -0.4954345021705580 [Eh]
	 Opposite-Spin Energy      =      -1.5257046035355595 [Eh]
	 Correlation Energy        =      -2.0211391057061174 [Eh]
	 Total Energy              =    -440.5277879017345413 [Eh]

	 ================> DF-SCS-MP2 Energies <==================
	-----------------------------------------------------------
	 SCS Same-Spin Scale       =       0.3333333333333333 [-]
	 SCS Opposite-Spin Scale   =       1.2000000000000000 [-]
	 SCS Same-Spin Energy      =      -0.1651448340568527 [Eh]
	 SCS Opposite-Spin Energy  =      -1.8308455242426713 [Eh]
	 SCS Correlation Energy    =      -1.9959903582995240 [Eh]
	 SCS Total Energy          =    -440.5026391543279374 [Eh]
	-----------------------------------------------------------

  Dipole Moment: [D]
     X:    -0.4721      Y:    -1.2233      Z:    -0.7972     Total:     1.5346

*** Psi4 exiting successfully. Buy a developer a beer!
