                               Psi4 1.4a2.dev612

  ==> Input File <==

--------------------------------------------------------------------------
#psi4
#
memory 32 gb

molecule  {
0 1
  N        1.7773000    -0.9706020    -0.3863220
  C        1.0080060     0.0962300     0.0271750
  C       -0.4507830     0.0432590     0.0183630
  C        1.8938950     1.0905280     0.4329840
  C       -1.1961700     1.1987140    -0.2700270
  C       -1.1363230    -1.1523850     0.2941990
  C        3.1117900    -0.6733570    -0.2771830
  C        3.2093430     0.6071710     0.2411150
  C       -2.5895110     1.1608830    -0.2689850
  C       -2.5303830    -1.1922690     0.2696200
  C       -3.2626170    -0.0361670    -0.0095020
  H        1.3994420    -1.7974010    -0.8317830
  H        1.6076040     2.0422160     0.8629880
  H       -0.6712930     2.1216380    -0.5070250
  H       -0.5746270    -2.0444360     0.5668450
  H        3.8690091    -1.2872528    -0.8090841
  H        4.1315670     1.1252340     0.4699550
  H       -3.1528190     2.0640850    -0.4925600
  H       -3.0466780    -2.1247140     0.4868240
  H       -4.3493910    -0.0663800    -0.0199320
units angstrom
no_reorient  #important for SAPT in psi4, default
symmetry c1  #important for SAPT in psi4, default
}

set PROPERTIES_ORIGIN ["COM"]
properties('MP2/aug-cc-pvtz', properties = ['dipole'])
--------------------------------------------------------------------------

    Molecular point group: c1
  Charge       = 0
  Multiplicity = 1
  Basis Set: AUG-CC-PVTZ
    Blend: AUG-CC-PVTZ
  Basis Set: (AUG-CC-PVTZ AUX)
    Blend: AUG-CC-PVTZ-JKFIT

    Orbital Energies [Eh]
    ---------------------

    Doubly Occupied:

       1A    -15.608622     2A    -11.263295     3A    -11.258651
       4A    -11.253681     5A    -11.242209     6A    -11.241009
       7A    -11.240651     8A    -11.238209     9A    -11.237850
      10A    -11.214722    11A    -11.213536    12A     -1.294536
      13A     -1.156424    14A     -1.049245    15A     -1.043343
      16A     -1.017024    17A     -0.958517    18A     -0.837420
      19A     -0.832461    20A     -0.788903    21A     -0.764253
      22A     -0.733463    23A     -0.678827    24A     -0.631687
      25A     -0.629828    26A     -0.593930    27A     -0.590356
      28A     -0.584275    29A     -0.567043    30A     -0.550156
      31A     -0.531966    32A     -0.505401    33A     -0.501111
      34A     -0.494520    35A     -0.364273    36A     -0.350589
      37A     -0.341602    38A     -0.273393

  @DF-RHF Final Energy:  -438.50527349752781

   => Energetics <=

    Nuclear Repulsion Energy =            536.7217898918479477
    One-Electron Energy =               -1657.1001643321678785
    Two-Electron Energy =                 681.8731009427921208
    Total Energy =                       -438.5052734975278099
  Basis Set: (AUG-CC-PVTZ AUX)
    Blend: AUG-CC-PVTZ-RI
    Molecular point group: c1

    Geometry (in Angstrom), charge = 0, multiplicity = 1:

       Center              X                  Y                   Z               Mass
    ------------   -----------------  -----------------  -----------------  -----------------
         N            1.771839297795    -0.971672217108    -0.384976524199    14.003074004430
         C            1.002545297795     0.095159782892     0.028520475801    12.000000000000
         C           -0.456243702205     0.042188782892     0.019708475801    12.000000000000
         C            1.888434297795     1.089457782892     0.434329475801    12.000000000000
         C           -1.201630702205     1.197643782892    -0.268681524199    12.000000000000
         C           -1.141783702205    -1.153455217108     0.295544475801    12.000000000000
         C            3.106329297795    -0.674427217108    -0.275837524199    12.000000000000
         C            3.203882297795     0.606100782892     0.242460475801    12.000000000000
         C           -2.594971702205     1.159812782892    -0.267639524199    12.000000000000
         C           -2.535843702205    -1.193339217108     0.270965475801    12.000000000000
         C           -3.268077702205    -0.037237217108    -0.008156524199    12.000000000000
         H            1.393981297795    -1.798471217108    -0.830437524199     1.007825032230
         H            1.602143297795     2.041145782892     0.864333475801     1.007825032230
         H           -0.676753702205     2.120567782892    -0.505679524199     1.007825032230
         H           -0.580087702205    -2.045506217108     0.568190475801     1.007825032230
         H            3.863548397795    -1.288323017108    -0.807738624199     1.007825032230
         H            4.126106297795     1.124163782892     0.471300475801     1.007825032230
         H           -3.158279702205     2.063014782892    -0.491214524199     1.007825032230
         H           -3.052138702205    -2.125784217108     0.488169475801     1.007825032230
         H           -4.354851702205    -0.067450217108    -0.018586524199     1.007825032230

  Basis Set: AUG-CC-PVTZ
    Blend: AUG-CC-PVTZ
  Basis Set: (AUG-CC-PVTZ AUX)
    Blend: AUG-CC-PVTZ-JKFIT
	 Reference Energy          =    -438.5052734975278099 [Eh]
	 Singles Energy            =      -0.0000000000000000 [Eh]
	 Same-Spin Energy          =      -0.4955242020639397 [Eh]
	 Opposite-Spin Energy      =      -1.5259171283090596 [Eh]
	 Correlation Energy        =      -2.0214413303729994 [Eh]
	 Total Energy              =    -440.5267148279008325 [Eh]

	 ================> DF-SCS-MP2 Energies <==================
	-----------------------------------------------------------
	 SCS Same-Spin Scale       =       0.3333333333333333 [-]
	 SCS Opposite-Spin Scale   =       1.2000000000000000 [-]
	 SCS Same-Spin Energy      =      -0.1651747340213132 [Eh]
	 SCS Opposite-Spin Energy  =      -1.8311005539708713 [Eh]
	 SCS Correlation Energy    =      -1.9962752879921846 [Eh]
	 SCS Total Energy          =    -440.5015487855200149 [Eh]
	-----------------------------------------------------------

  Dipole Moment: [D]
     X:    -0.4897      Y:    -1.1912      Z:    -0.8293     Total:     1.5318

*** Psi4 exiting successfully. Buy a developer a beer!
