                               Psi4 1.4a2.dev612

  ==> Input File <==

--------------------------------------------------------------------------
#psi4
#
memory 32 gb

molecule  {
0 1
  N        1.7773000    -0.9706020    -0.3863220
  C        1.0080060     0.0962300     0.0271750
  C       -0.4507830     0.0432590     0.0183630
  C        1.8938950     1.0905280     0.4329840
  C       -1.1961700     1.1987140    -0.2700270
  C       -1.1363230    -1.1523850     0.2941990
  C        3.1117900    -0.6733570    -0.2771830
  C        3.2093430     0.6071710     0.2411150
  C       -2.5895110     1.1608830    -0.2689850
  C       -2.5303830    -1.1922690     0.2696200
  C       -3.2626170    -0.0361670    -0.0095020
  H        1.3994420    -1.7974010    -0.8317830
  H        1.6076040     2.0422160     0.8629880
  H       -0.6712930     2.1216380    -0.5070250
  H       -0.5746270    -2.0444360     0.5668450
  H        3.8716190    -1.3816710    -0.5776140
  H        4.1310965     1.1062816     0.5162215
  H       -3.1528190     2.0640850    -0.4925600
  H       -3.0466780    -2.1247140     0.4868240
  H       -4.3493910    -0.0663800    -0.0199320
units angstrom
no_reorient  #important for SAPT in psi4, default
symmetry c1  #important for SAPT in psi4, default
}

set PROPERTIES_ORIGIN ["COM"]
properties('MP2/aug-cc-pvtz', properties = ['dipole'])
--------------------------------------------------------------------------

    Molecular point group: c1
  Charge       = 0
  Multiplicity = 1
  Basis Set: AUG-CC-PVTZ
    Blend: AUG-CC-PVTZ
  Basis Set: (AUG-CC-PVTZ AUX)
    Blend: AUG-CC-PVTZ-JKFIT

    Orbital Energies [Eh]
    ---------------------

    Doubly Occupied:

       1A    -15.608368     2A    -11.262147     3A    -11.256678
       4A    -11.253249     5A    -11.242022     6A    -11.240717
       7A    -11.240481     8A    -11.237917     9A    -11.237647
      10A    -11.214030    11A    -11.212913    12A     -1.294221
      13A     -1.156155    14A     -1.048941    15A     -1.042922
      16A     -1.016780    17A     -0.959243    18A     -0.837872
      19A     -0.832210    20A     -0.788535    21A     -0.764917
      22A     -0.735319    23A     -0.679886    24A     -0.633255
      25A     -0.629663    26A     -0.593580    27A     -0.589143
      28A     -0.582939    29A     -0.569475    30A     -0.548727
      31A     -0.536947    32A     -0.504567    33A     -0.500886
      34A     -0.494332    35A     -0.363492    36A     -0.350381
      37A     -0.341339    38A     -0.273316

  @DF-RHF Final Energy:  -438.50871790935633

   => Energetics <=

    Nuclear Repulsion Energy =            536.8248518850360824
    One-Electron Energy =               -1657.3167148474831265
    Two-Electron Energy =                 681.9831450530907659
    Total Energy =                       -438.5087179093563918
  Basis Set: (AUG-CC-PVTZ AUX)
    Blend: AUG-CC-PVTZ-RI
    Molecular point group: c1

    Geometry (in Angstrom), charge = 0, multiplicity = 1:

       Center              X                  Y                   Z               Mass
    ------------   -----------------  -----------------  -----------------  -----------------
         N            1.771824227633    -0.970873622476    -0.386932930516    14.003074004430
         C            1.002530227633     0.095958377524     0.026564069484    12.000000000000
         C           -0.456258772367     0.042987377524     0.017752069484    12.000000000000
         C            1.888419227633     1.090256377524     0.432373069484    12.000000000000
         C           -1.201645772367     1.198442377524    -0.270637930516    12.000000000000
         C           -1.141798772367    -1.152656622476     0.293588069484    12.000000000000
         C            3.106314227633    -0.673628622476    -0.277793930516    12.000000000000
         C            3.203867227633     0.606899377524     0.240504069484    12.000000000000
         C           -2.594986772367     1.160611377524    -0.269595930516    12.000000000000
         C           -2.535858772367    -1.192540622476     0.269009069484    12.000000000000
         C           -3.268092772367    -0.036438622476    -0.010112930516    12.000000000000
         H            1.393966227633    -1.797672622476    -0.832393930516     1.007825032230
         H            1.602128227633     2.041944377524     0.862377069484     1.007825032230
         H           -0.676768772367     2.121366377524    -0.507635930516     1.007825032230
         H           -0.580102772367    -2.044707622476     0.566234069484     1.007825032230
         H            3.866143227633    -1.381942622476    -0.578224930516     1.007825032230
         H            4.125620727633     1.106009977524     0.515610569484     1.007825032230
         H           -3.158294772367     2.063813377524    -0.493170930516     1.007825032230
         H           -3.052153772367    -2.124985622476     0.486213069484     1.007825032230
         H           -4.354866772367    -0.066651622476    -0.020542930516     1.007825032230

  Basis Set: AUG-CC-PVTZ
    Blend: AUG-CC-PVTZ
  Basis Set: (AUG-CC-PVTZ AUX)
    Blend: AUG-CC-PVTZ-JKFIT
	 Reference Energy          =    -438.5087179093563350 [Eh]
	 Singles Energy            =      -0.0000000000000000 [Eh]
	 Same-Spin Energy          =      -0.4952693114603930 [Eh]
	 Opposite-Spin Energy      =      -1.5253637654852112 [Eh]
	 Correlation Energy        =      -2.0206330769456042 [Eh]
	 Total Energy              =    -440.5293509863019494 [Eh]

	 ================> DF-SCS-MP2 Energies <==================
	-----------------------------------------------------------
	 SCS Same-Spin Scale       =       0.3333333333333333 [-]
	 SCS Opposite-Spin Scale   =       1.2000000000000000 [-]
	 SCS Same-Spin Energy      =      -0.1650897704867977 [Eh]
	 SCS Opposite-Spin Energy  =      -1.8304365185822533 [Eh]
	 SCS Correlation Energy    =      -1.9955262890690511 [Eh]
	 SCS Total Energy          =    -440.5042441984253969 [Eh]
	-----------------------------------------------------------

  Dipole Moment: [D]
     X:    -0.4522      Y:    -1.3348      Z:    -0.6114     Total:     1.5362

*** Psi4 exiting successfully. Buy a developer a beer!
