                               Psi4 1.4a2.dev612

  ==> Input File <==

--------------------------------------------------------------------------
#psi4
#
memory 32 gb

molecule  {
0 1
  N        1.7773000    -0.9706020    -0.3863220
  C        1.0080060     0.0962300     0.0271750
  C       -0.4507830     0.0432590     0.0183630
  C        1.8938950     1.0905280     0.4329840
  C       -1.1961700     1.1987140    -0.2700270
  C       -1.1392385    -1.1057885     0.4886733
  C        3.1117900    -0.6733570    -0.2771830
  C        3.2093430     0.6071710     0.2411150
  C       -2.5895110     1.1608830    -0.2689850
  C       -2.5303830    -1.1922690     0.2696200
  C       -3.2626170    -0.0361670    -0.0095020
  H        1.3994420    -1.7974010    -0.8317830
  H        1.6076040     2.0422160     0.8629880
  H       -0.6712930     2.1216380    -0.5070250
  H       -0.5746270    -2.0444360     0.5668450
  H        3.8716190    -1.3816710    -0.5776140
  H        4.1315670     1.1252340     0.4699550
  H       -3.1528190     2.0640850    -0.4925600
  H       -3.0466780    -2.1247140     0.4868240
  H       -4.3493910    -0.0663800    -0.0199320
units angstrom
no_reorient  #important for SAPT in psi4, default
symmetry c1  #important for SAPT in psi4, default
}

set PROPERTIES_ORIGIN ["COM"]
properties('MP2/aug-cc-pvtz', properties = ['dipole'])
--------------------------------------------------------------------------

    Molecular point group: c1
  Charge       = 0
  Multiplicity = 1
  Basis Set: AUG-CC-PVTZ
    Blend: AUG-CC-PVTZ
  Basis Set: (AUG-CC-PVTZ AUX)
    Blend: AUG-CC-PVTZ-JKFIT

    Orbital Energies [Eh]
    ---------------------

    Doubly Occupied:

       1A    -15.608791     2A    -11.261917     3A    -11.256758
       4A    -11.255429     5A    -11.244651     6A    -11.243503
       7A    -11.241776     8A    -11.237811     9A    -11.237616
      10A    -11.214063    11A    -11.212973    12A     -1.294282
      13A     -1.154443    14A     -1.048837    15A     -1.042442
      16A     -1.014989    17A     -0.958924    18A     -0.836663
      19A     -0.830814    20A     -0.788660    21A     -0.765421
      22A     -0.733964    23A     -0.678640    24A     -0.632919
      25A     -0.627015    26A     -0.592802    27A     -0.586501
      28A     -0.581776    29A     -0.569507    30A     -0.550054
      31A     -0.537477    32A     -0.504009    33A     -0.499746
      34A     -0.490906    35A     -0.359702    36A     -0.349854
      37A     -0.340235    38A     -0.275745

  @DF-RHF Final Energy:  -438.49686699973836

   => Energetics <=

    Nuclear Repulsion Energy =            536.2718762529952983
    One-Electron Energy =               -1656.2142590592657143
    Two-Electron Energy =                 681.4455158065320575
    Total Energy =                       -438.4968669997383586
  Basis Set: (AUG-CC-PVTZ AUX)
    Blend: AUG-CC-PVTZ-RI
    Molecular point group: c1

    Geometry (in Angstrom), charge = 0, multiplicity = 1:

       Center              X                  Y                   Z               Mass
    ------------   -----------------  -----------------  -----------------  -----------------
         N            1.772065445039    -0.974915312279    -0.402918162404    14.003074004430
         C            1.002771445039     0.091916687721     0.010578837596    12.000000000000
         C           -0.456017554961     0.038945687721     0.001766837596    12.000000000000
         C            1.888660445039     1.086214687721     0.416387837596    12.000000000000
         C           -1.201404554961     1.194400687721    -0.286623162404    12.000000000000
         C           -1.144473054961    -1.110101812279     0.472077137596    12.000000000000
         C            3.106555445039    -0.677670312279    -0.293779162404    12.000000000000
         C            3.204108445039     0.602857687721     0.224518837596    12.000000000000
         C           -2.594745554961     1.156569687721    -0.285581162404    12.000000000000
         C           -2.535617554961    -1.196582312279     0.253023837596    12.000000000000
         C           -3.267851554961    -0.040480312279    -0.026098162404    12.000000000000
         H            1.394207445039    -1.801714312279    -0.848379162404     1.007825032230
         H            1.602369445039     2.037902687721     0.846391837596     1.007825032230
         H           -0.676527554961     2.117324687721    -0.523621162404     1.007825032230
         H           -0.579861554961    -2.048749312279     0.550248837596     1.007825032230
         H            3.866384445039    -1.385984312279    -0.594210162404     1.007825032230
         H            4.126332445039     1.120920687721     0.453358837596     1.007825032230
         H           -3.158053554961     2.059771687721    -0.509156162404     1.007825032230
         H           -3.051912554961    -2.129027312279     0.470227837596     1.007825032230
         H           -4.354625554961    -0.070693312279    -0.036528162404     1.007825032230

  Basis Set: AUG-CC-PVTZ
    Blend: AUG-CC-PVTZ
  Basis Set: (AUG-CC-PVTZ AUX)
    Blend: AUG-CC-PVTZ-JKFIT
	 Reference Energy          =    -438.4968669997383586 [Eh]
	 Singles Energy            =      -0.0000000000000000 [Eh]
	 Same-Spin Energy          =      -0.4957572749616601 [Eh]
	 Opposite-Spin Energy      =      -1.5269128012800417 [Eh]
	 Correlation Energy        =      -2.0226700762417016 [Eh]
	 Total Energy              =    -440.5195370759800539 [Eh]

	 ================> DF-SCS-MP2 Energies <==================
	-----------------------------------------------------------
	 SCS Same-Spin Scale       =       0.3333333333333333 [-]
	 SCS Opposite-Spin Scale   =       1.2000000000000000 [-]
	 SCS Same-Spin Energy      =      -0.1652524249872200 [Eh]
	 SCS Opposite-Spin Energy  =      -1.8322953615360500 [Eh]
	 SCS Correlation Energy    =      -1.9975477865232700 [Eh]
	 SCS Total Energy          =    -440.4944147862616433 [Eh]
	-----------------------------------------------------------

  Dipole Moment: [D]
     X:    -0.4714      Y:    -1.2953      Z:    -0.7747     Total:     1.5812

*** Psi4 exiting successfully. Buy a developer a beer!
