                               Psi4 1.4a2.dev612

  ==> Input File <==

--------------------------------------------------------------------------
#psi4
#
memory 32 gb

molecule  {
0 1
  N        1.7773000    -0.9706020    -0.3863220
  C        1.0080060     0.0962300     0.0271750
  C       -0.4507830     0.0432590     0.0183630
  C        1.8938950     1.0905280     0.4329840
  C       -1.1961700     1.1987140    -0.2700270
  C       -1.1385096    -1.1174376     0.4400547
  C        3.1117900    -0.6733570    -0.2771830
  C        3.2093430     0.6071710     0.2411150
  C       -2.5895110     1.1608830    -0.2689850
  C       -2.5303830    -1.1922690     0.2696200
  C       -3.2626170    -0.0361670    -0.0095020
  H        1.3994420    -1.7974010    -0.8317830
  H        1.6076040     2.0422160     0.8629880
  H       -0.6712930     2.1216380    -0.5070250
  H       -0.5746270    -2.0444360     0.5668450
  H        3.8716190    -1.3816710    -0.5776140
  H        4.1315670     1.1252340     0.4699550
  H       -3.1528190     2.0640850    -0.4925600
  H       -3.0466780    -2.1247140     0.4868240
  H       -4.3493910    -0.0663800    -0.0199320
units angstrom
no_reorient  #important for SAPT in psi4, default
symmetry c1  #important for SAPT in psi4, default
}

set PROPERTIES_ORIGIN ["COM"]
properties('MP2/aug-cc-pvtz', properties = ['dipole'])
--------------------------------------------------------------------------

    Molecular point group: c1
  Charge       = 0
  Multiplicity = 1
  Basis Set: AUG-CC-PVTZ
    Blend: AUG-CC-PVTZ
  Basis Set: (AUG-CC-PVTZ AUX)
    Blend: AUG-CC-PVTZ-JKFIT

    Orbital Energies [Eh]
    ---------------------

    Doubly Occupied:

       1A    -15.608625     2A    -11.261943     3A    -11.256629
       4A    -11.254287     5A    -11.243428     6A    -11.242224
       7A    -11.241151     8A    -11.237919     9A    -11.237685
      10A    -11.213949    11A    -11.212847    12A     -1.294214
      13A     -1.155132    14A     -1.048849    15A     -1.042562
      16A     -1.015752    17A     -0.959042    18A     -0.837126
      19A     -0.831415    20A     -0.788644    21A     -0.765265
      22A     -0.734505    23A     -0.679334    24A     -0.633063
      25A     -0.628256    26A     -0.593024    27A     -0.587316
      28A     -0.582289    29A     -0.569609    30A     -0.549861
      31A     -0.537295    32A     -0.503636    33A     -0.500880
      34A     -0.492485    35A     -0.360789    36A     -0.349956
      37A     -0.340552    38A     -0.275086

  @DF-RHF Final Energy:  -438.50221255874612

   => Energetics <=

    Nuclear Repulsion Energy =            536.4958391306480507
    One-Electron Energy =               -1656.6628571568433017
    Two-Electron Energy =                 681.6648054674492414
    Total Energy =                       -438.5022125587461232
  Basis Set: (AUG-CC-PVTZ AUX)
    Blend: AUG-CC-PVTZ-RI
    Molecular point group: c1

    Geometry (in Angstrom), charge = 0, multiplicity = 1:

       Center              X                  Y                   Z               Mass
    ------------   -----------------  -----------------  -----------------  -----------------
         N            1.772004310027    -0.973938267608    -0.398840375791    14.003074004430
         C            1.002710310027     0.092893732392     0.014656624209    12.000000000000
         C           -0.456078689973     0.039922732392     0.005844624209    12.000000000000
         C            1.888599310027     1.087191732392     0.420465624209    12.000000000000
         C           -1.201465689973     1.195377732392    -0.282545375791    12.000000000000
         C           -1.143805289973    -1.120773867608     0.427536324209    12.000000000000
         C            3.106494310027    -0.676693267608    -0.289701375791    12.000000000000
         C            3.204047310027     0.603834732392     0.228596624209    12.000000000000
         C           -2.594806689973     1.157546732392    -0.281503375791    12.000000000000
         C           -2.535678689973    -1.195605267608     0.257101624209    12.000000000000
         C           -3.267912689973    -0.039503267608    -0.022020375791    12.000000000000
         H            1.394146310027    -1.800737267608    -0.844301375791     1.007825032230
         H            1.602308310027     2.038879732392     0.850469624209     1.007825032230
         H           -0.676588689973     2.118301732392    -0.519543375791     1.007825032230
         H           -0.579922689973    -2.047772267608     0.554326624209     1.007825032230
         H            3.866323310027    -1.385007267608    -0.590132375791     1.007825032230
         H            4.126271310027     1.121897732392     0.457436624209     1.007825032230
         H           -3.158114689973     2.060748732392    -0.505078375791     1.007825032230
         H           -3.051973689973    -2.128050267608     0.474305624209     1.007825032230
         H           -4.354686689973    -0.069716267608    -0.032450375791     1.007825032230

  Basis Set: AUG-CC-PVTZ
    Blend: AUG-CC-PVTZ
  Basis Set: (AUG-CC-PVTZ AUX)
    Blend: AUG-CC-PVTZ-JKFIT
	 Reference Energy          =    -438.5022125587461232 [Eh]
	 Singles Energy            =      -0.0000000000000000 [Eh]
	 Same-Spin Energy          =      -0.4955116236220879 [Eh]
	 Opposite-Spin Energy      =      -1.5261410255334700 [Eh]
	 Correlation Energy        =      -2.0216526491555578 [Eh]
	 Total Energy              =    -440.5238652079016788 [Eh]

	 ================> DF-SCS-MP2 Energies <==================
	-----------------------------------------------------------
	 SCS Same-Spin Scale       =       0.3333333333333333 [-]
	 SCS Opposite-Spin Scale   =       1.2000000000000000 [-]
	 SCS Same-Spin Energy      =      -0.1651705412073626 [Eh]
	 SCS Opposite-Spin Energy  =      -1.8313692306401639 [Eh]
	 SCS Correlation Energy    =      -1.9965397718475266 [Eh]
	 SCS Total Energy          =    -440.4987523305936747 [Eh]
	-----------------------------------------------------------

  Dipole Moment: [D]
     X:    -0.4639      Y:    -1.3151      Z:    -0.7388     Total:     1.5782

*** Psi4 exiting successfully. Buy a developer a beer!
