                               Psi4 1.4a2.dev612

  ==> Input File <==

--------------------------------------------------------------------------
#psi4
#
memory 32 gb

molecule  {
0 1
  N        1.7773000    -0.9706020    -0.3863220
  C        1.0080060     0.0962300     0.0271750
  C       -0.4507830     0.0432590     0.0183630
  C        1.8938950     1.0905280     0.4329840
  C       -1.1961700     1.1987140    -0.2700270
  C       -1.1399674    -1.0941394     0.5372919
  C        3.1117900    -0.6733570    -0.2771830
  C        3.2093430     0.6071710     0.2411150
  C       -2.5895110     1.1608830    -0.2689850
  C       -2.5303830    -1.1922690     0.2696200
  C       -3.2626170    -0.0361670    -0.0095020
  H        1.3994420    -1.7974010    -0.8317830
  H        1.6076040     2.0422160     0.8629880
  H       -0.6712930     2.1216380    -0.5070250
  H       -0.5746270    -2.0444360     0.5668450
  H        3.8716190    -1.3816710    -0.5776140
  H        4.1315670     1.1252340     0.4699550
  H       -3.1528190     2.0640850    -0.4925600
  H       -3.0466780    -2.1247140     0.4868240
  H       -4.3493910    -0.0663800    -0.0199320
units angstrom
no_reorient  #important for SAPT in psi4, default
symmetry c1  #important for SAPT in psi4, default
}

set PROPERTIES_ORIGIN ["COM"]
properties('MP2/aug-cc-pvtz', properties = ['dipole'])
--------------------------------------------------------------------------

    Molecular point group: c1
  Charge       = 0
  Multiplicity = 1
  Basis Set: AUG-CC-PVTZ
    Blend: AUG-CC-PVTZ
  Basis Set: (AUG-CC-PVTZ AUX)
    Blend: AUG-CC-PVTZ-JKFIT

    Orbital Energies [Eh]
    ---------------------

    Doubly Occupied:

       1A    -15.608985     2A    -11.261914     3A    -11.256950
       4A    -11.256934     5A    -11.246208     6A    -11.245108
       7A    -11.242664     8A    -11.237666     9A    -11.237498
      10A    -11.214235    11A    -11.213151    12A     -1.294380
      13A     -1.153605    14A     -1.048843    15A     -1.042325
      16A     -1.014014    17A     -0.958771    18A     -0.836128
      19A     -0.830056    20A     -0.788687    21A     -0.765605
      22A     -0.733347    23A     -0.677766    24A     -0.632754
      25A     -0.625428    26A     -0.592613    27A     -0.585761
      28A     -0.580856    29A     -0.569294    30A     -0.550278
      31A     -0.537697    32A     -0.504280    33A     -0.498468
      34A     -0.488805    35A     -0.358566    36A     -0.349722
      37A     -0.339910    38A     -0.276452

  @DF-RHF Final Energy:  -438.48992400050736

   => Energetics <=

    Nuclear Repulsion Energy =            535.9942870021293402
    One-Electron Energy =               -1655.6569790272985756
    Two-Electron Energy =                 681.1727680246618775
    Total Energy =                       -438.4899240005073580
  Basis Set: (AUG-CC-PVTZ AUX)
    Blend: AUG-CC-PVTZ-RI
    Molecular point group: c1

    Geometry (in Angstrom), charge = 0, multiplicity = 1:

       Center              X                  Y                   Z               Mass
    ------------   -----------------  -----------------  -----------------  -----------------
         N            1.772126580050    -0.975892356949    -0.406995949016    14.003074004430
         C            1.002832580050     0.090939643051     0.006501050984    12.000000000000
         C           -0.455956419950     0.037968643051    -0.002310949016    12.000000000000
         C            1.888721580050     1.085237643051     0.412310050984    12.000000000000
         C           -1.201343419950     1.193423643051    -0.290700949016    12.000000000000
         C           -1.145140819950    -1.099429756949     0.516617950984    12.000000000000
         C            3.106616580050    -0.678647356949    -0.297856949016    12.000000000000
         C            3.204169580050     0.601880643051     0.220441050984    12.000000000000
         C           -2.594684419950     1.155592643051    -0.289658949016    12.000000000000
         C           -2.535556419950    -1.197559356949     0.248946050984    12.000000000000
         C           -3.267790419950    -0.041457356949    -0.030175949016    12.000000000000
         H            1.394268580050    -1.802691356949    -0.852456949016     1.007825032230
         H            1.602430580050     2.036925643051     0.842314050984     1.007825032230
         H           -0.676466419950     2.116347643051    -0.527698949016     1.007825032230
         H           -0.579800419950    -2.049726356949     0.546171050984     1.007825032230
         H            3.866445580050    -1.386961356949    -0.598287949016     1.007825032230
         H            4.126393580050     1.119943643051     0.449281050984     1.007825032230
         H           -3.157992419950     2.058794643051    -0.513233949016     1.007825032230
         H           -3.051851419950    -2.130004356949     0.466150050984     1.007825032230
         H           -4.354564419950    -0.071670356949    -0.040605949016     1.007825032230

  Basis Set: AUG-CC-PVTZ
    Blend: AUG-CC-PVTZ
  Basis Set: (AUG-CC-PVTZ AUX)
    Blend: AUG-CC-PVTZ-JKFIT
	 Reference Energy          =    -438.4899240005073580 [Eh]
	 Singles Energy            =      -0.0000000000000000 [Eh]
	 Same-Spin Energy          =      -0.4960782273360692 [Eh]
	 Opposite-Spin Energy      =      -1.5279246796356933 [Eh]
	 Correlation Energy        =      -2.0240029069717624 [Eh]
	 Total Energy              =    -440.5139269074791173 [Eh]

	 ================> DF-SCS-MP2 Energies <==================
	-----------------------------------------------------------
	 SCS Same-Spin Scale       =       0.3333333333333333 [-]
	 SCS Opposite-Spin Scale   =       1.2000000000000000 [-]
	 SCS Same-Spin Energy      =      -0.1653594091120230 [Eh]
	 SCS Opposite-Spin Energy  =      -1.8335096155628319 [Eh]
	 SCS Correlation Energy    =      -1.9988690246748548 [Eh]
	 SCS Total Energy          =    -440.4887930251821899 [Eh]
	-----------------------------------------------------------

  Dipole Moment: [D]
     X:    -0.4802      Y:    -1.2664      Z:    -0.8135     Total:     1.5799

*** Psi4 exiting successfully. Buy a developer a beer!
