                               Psi4 1.4a2.dev612

  ==> Input File <==

--------------------------------------------------------------------------
#psi4
#
memory 32 gb

molecule  {
0 1
  N        1.7773000    -0.9706020    -0.3863220
  C        1.0080060     0.0962300     0.0271750
  C       -0.4507830     0.0432590     0.0183630
  C        1.8938950     1.0905280     0.4329840
  C       -1.1961700     1.1987140    -0.2700270
  C       -1.1363230    -1.1523850     0.2941990
  C        3.1117900    -0.6733570    -0.2771830
  C        3.2093430     0.6071710     0.2411150
  C       -2.5895110     1.1608830    -0.2689850
  C       -2.5303830    -1.1922690     0.2696200
  C       -3.2626170    -0.0361670    -0.0095020
  H        1.3994420    -1.7974010    -0.8317830
  H        1.6079756     1.9829228     1.0007711
  H       -0.6712930     2.1216380    -0.5070250
  H       -0.5746270    -2.0444360     0.5668450
  H        3.8716190    -1.3816710    -0.5776140
  H        4.1315670     1.1252340     0.4699550
  H       -3.1528190     2.0640850    -0.4925600
  H       -3.0466780    -2.1247140     0.4868240
  H       -4.3493910    -0.0663800    -0.0199320
units angstrom
no_reorient  #important for SAPT in psi4, default
symmetry c1  #important for SAPT in psi4, default
}

set PROPERTIES_ORIGIN ["COM"]
properties('MP2/aug-cc-pvtz', properties = ['dipole'])
--------------------------------------------------------------------------

    Molecular point group: c1
  Charge       = 0
  Multiplicity = 1
  Basis Set: AUG-CC-PVTZ
    Blend: AUG-CC-PVTZ
  Basis Set: (AUG-CC-PVTZ AUX)
    Blend: AUG-CC-PVTZ-JKFIT

    Orbital Energies [Eh]
    ---------------------

    Doubly Occupied:

       1A    -15.608615     2A    -11.262567     3A    -11.256724
       4A    -11.253182     5A    -11.242093     6A    -11.240736
       7A    -11.240581     8A    -11.238016     9A    -11.237673
      10A    -11.214402    11A    -11.213230    12A     -1.294431
      13A     -1.156223    14A     -1.048884    15A     -1.042908
      16A     -1.016815    17A     -0.959249    18A     -0.837776
      19A     -0.832159    20A     -0.788322    21A     -0.763752
      22A     -0.735286    23A     -0.679951    24A     -0.633288
      25A     -0.629967    26A     -0.592920    27A     -0.589358
      28A     -0.582525    29A     -0.568440    30A     -0.549112
      31A     -0.535114    32A     -0.504575    33A     -0.500841
      34A     -0.494368    35A     -0.363435    36A     -0.350244
      37A     -0.341350    38A     -0.273631

  @DF-RHF Final Energy:  -438.50737445047531

   => Energetics <=

    Nuclear Repulsion Energy =            536.7711967607967836
    One-Electron Energy =               -1657.2116557114982243
    Two-Electron Energy =                 681.9330845002261867
    Total Energy =                       -438.5073744504752540
  Basis Set: (AUG-CC-PVTZ AUX)
    Blend: AUG-CC-PVTZ-RI
    Molecular point group: c1

    Geometry (in Angstrom), charge = 0, multiplicity = 1:

       Center              X                  Y                   Z               Mass
    ------------   -----------------  -----------------  -----------------  -----------------
         N            1.771818295790    -0.970589457566    -0.387577583235    14.003074004430
         C            1.002524295790     0.096242542434     0.025919416765    12.000000000000
         C           -0.456264704210     0.043271542434     0.017107416765    12.000000000000
         C            1.888413295790     1.090540542434     0.431728416765    12.000000000000
         C           -1.201651704210     1.198726542434    -0.271282583235    12.000000000000
         C           -1.141804704210    -1.152372457566     0.292943416765    12.000000000000
         C            3.106308295790    -0.673344457566    -0.278438583235    12.000000000000
         C            3.203861295790     0.607183542434     0.239859416765    12.000000000000
         C           -2.594992704210     1.160895542434    -0.270240583235    12.000000000000
         C           -2.535864704210    -1.192256457566     0.268364416765    12.000000000000
         C           -3.268098704210    -0.036154457566    -0.010757583235    12.000000000000
         H            1.393960295790    -1.797388457566    -0.833038583235     1.007825032230
         H            1.602493895790     1.982935342434     0.999515516765     1.007825032230
         H           -0.676774704210     2.121650542434    -0.508280583235     1.007825032230
         H           -0.580108704210    -2.044423457566     0.565589416765     1.007825032230
         H            3.866137295790    -1.381658457566    -0.578869583235     1.007825032230
         H            4.126085295790     1.125246542434     0.468699416765     1.007825032230
         H           -3.158300704210     2.064097542434    -0.493815583235     1.007825032230
         H           -3.052159704210    -2.124701457566     0.485568416765     1.007825032230
         H           -4.354872704210    -0.066367457566    -0.021187583235     1.007825032230

  Basis Set: AUG-CC-PVTZ
    Blend: AUG-CC-PVTZ
  Basis Set: (AUG-CC-PVTZ AUX)
    Blend: AUG-CC-PVTZ-JKFIT
	 Reference Energy          =    -438.5073744504753108 [Eh]
	 Singles Energy            =      -0.0000000000000000 [Eh]
	 Same-Spin Energy          =      -0.4953590802238460 [Eh]
	 Opposite-Spin Energy      =      -1.5255509268636211 [Eh]
	 Correlation Energy        =      -2.0209100070874673 [Eh]
	 Total Energy              =    -440.5282844575627905 [Eh]

	 ================> DF-SCS-MP2 Energies <==================
	-----------------------------------------------------------
	 SCS Same-Spin Scale       =       0.3333333333333333 [-]
	 SCS Opposite-Spin Scale   =       1.2000000000000000 [-]
	 SCS Same-Spin Energy      =      -0.1651196934079487 [Eh]
	 SCS Opposite-Spin Energy  =      -1.8306611122363452 [Eh]
	 SCS Correlation Energy    =      -1.9957808056442938 [Eh]
	 SCS Total Energy          =    -440.5031552561196122 [Eh]
	-----------------------------------------------------------

  Dipole Moment: [D]
     X:    -0.4487      Y:    -1.3834      Z:    -0.5515     Total:     1.5554

*** Psi4 exiting successfully. Buy a developer a beer!
