                               Psi4 1.4a2.dev612

  ==> Input File <==

--------------------------------------------------------------------------
#psi4
#
memory 32 gb

molecule  {
0 1
  N        1.7773000    -0.9706020    -0.3863220
  C        1.0080060     0.0962300     0.0271750
  C       -0.4507830     0.0432590     0.0183630
  C        1.8937590     1.1644126     0.2471318
  C       -1.1961700     1.1987140    -0.2700270
  C       -1.1363230    -1.1523850     0.2941990
  C        3.1117900    -0.6733570    -0.2771830
  C        3.2093430     0.6071710     0.2411150
  C       -2.5895110     1.1608830    -0.2689850
  C       -2.5303830    -1.1922690     0.2696200
  C       -3.2626170    -0.0361670    -0.0095020
  H        1.3994420    -1.7974010    -0.8317830
  H        1.6076040     2.0422160     0.8629880
  H       -0.6712930     2.1216380    -0.5070250
  H       -0.5746270    -2.0444360     0.5668450
  H        3.8716190    -1.3816710    -0.5776140
  H        4.1315670     1.1252340     0.4699550
  H       -3.1528190     2.0640850    -0.4925600
  H       -3.0466780    -2.1247140     0.4868240
  H       -4.3493910    -0.0663800    -0.0199320
units angstrom
no_reorient  #important for SAPT in psi4, default
symmetry c1  #important for SAPT in psi4, default
}

set PROPERTIES_ORIGIN ["COM"]
properties('MP2/aug-cc-pvtz', properties = ['dipole'])
--------------------------------------------------------------------------

    Molecular point group: c1
  Charge       = 0
  Multiplicity = 1
  Basis Set: AUG-CC-PVTZ
    Blend: AUG-CC-PVTZ
  Basis Set: (AUG-CC-PVTZ AUX)
    Blend: AUG-CC-PVTZ-JKFIT

    Orbital Energies [Eh]
    ---------------------

    Doubly Occupied:

       1A    -15.610145     2A    -11.267588     3A    -11.257236
       4A    -11.254015     5A    -11.242545     6A    -11.241226
       7A    -11.240955     8A    -11.238256     9A    -11.237972
      10A    -11.217137    11A    -11.215938    12A     -1.295201
      13A     -1.156752    14A     -1.049002    15A     -1.041571
      16A     -1.017042    17A     -0.959165    18A     -0.838145
      19A     -0.832852    20A     -0.787121    21A     -0.762905
      22A     -0.735546    23A     -0.679922    24A     -0.633288
      25A     -0.630398    26A     -0.594441    27A     -0.590654
      28A     -0.582965    29A     -0.565702    30A     -0.545494
      31A     -0.527320    32A     -0.504963    33A     -0.501789
      34A     -0.493890    35A     -0.366423    36A     -0.350573
      37A     -0.341742    38A     -0.272019

  @DF-RHF Final Energy:  -438.49740178331507

   => Energetics <=

    Nuclear Repulsion Energy =            536.4312777128366179
    One-Electron Energy =               -1656.4975587083008577
    Two-Electron Energy =                 681.5688792121491133
    Total Energy =                       -438.4974017833151265
  Basis Set: (AUG-CC-PVTZ AUX)
    Blend: AUG-CC-PVTZ-RI
    Molecular point group: c1

    Geometry (in Angstrom), charge = 0, multiplicity = 1:

       Center              X                  Y                   Z               Mass
    ------------   -----------------  -----------------  -----------------  -----------------
         N            1.771832320105    -0.977204046402    -0.371019047456    14.003074004430
         C            1.002538320105     0.089627953598     0.042477952544    12.000000000000
         C           -0.456250679895     0.036656953598     0.033665952544    12.000000000000
         C            1.888291320105     1.157810553598     0.262434752544    12.000000000000
         C           -1.201637679895     1.192111953598    -0.254724047456    12.000000000000
         C           -1.141790679895    -1.158987046402     0.309501952544    12.000000000000
         C            3.106322320105    -0.679959046402    -0.261880047456    12.000000000000
         C            3.203875320105     0.600568953598     0.256417952544    12.000000000000
         C           -2.594978679895     1.154280953598    -0.253682047456    12.000000000000
         C           -2.535850679895    -1.198871046402     0.284922952544    12.000000000000
         C           -3.268084679895    -0.042769046402     0.005800952544    12.000000000000
         H            1.393974320105    -1.804003046402    -0.816480047456     1.007825032230
         H            1.602136320105     2.035613953598     0.878290952544     1.007825032230
         H           -0.676760679895     2.115035953598    -0.491722047456     1.007825032230
         H           -0.580094679895    -2.051038046402     0.582147952544     1.007825032230
         H            3.866151320105    -1.388273046402    -0.562311047456     1.007825032230
         H            4.126099320105     1.118631953598     0.485257952544     1.007825032230
         H           -3.158286679895     2.057482953598    -0.477257047456     1.007825032230
         H           -3.052145679895    -2.131316046402     0.502126952544     1.007825032230
         H           -4.354858679895    -0.072982046402    -0.004629047456     1.007825032230

  Basis Set: AUG-CC-PVTZ
    Blend: AUG-CC-PVTZ
  Basis Set: (AUG-CC-PVTZ AUX)
    Blend: AUG-CC-PVTZ-JKFIT
	 Reference Energy          =    -438.4974017833150697 [Eh]
	 Singles Energy            =      -0.0000000000000000 [Eh]
	 Same-Spin Energy          =      -0.4959157862079435 [Eh]
	 Opposite-Spin Energy      =      -1.5272071195451316 [Eh]
	 Correlation Energy        =      -2.0231229057530751 [Eh]
	 Total Energy              =    -440.5205246890681678 [Eh]

	 ================> DF-SCS-MP2 Energies <==================
	-----------------------------------------------------------
	 SCS Same-Spin Scale       =       0.3333333333333333 [-]
	 SCS Opposite-Spin Scale   =       1.2000000000000000 [-]
	 SCS Same-Spin Energy      =      -0.1653052620693145 [Eh]
	 SCS Opposite-Spin Energy  =      -1.8326485434541577 [Eh]
	 SCS Correlation Energy    =      -1.9979538055234722 [Eh]
	 SCS Total Energy          =    -440.4953555888385495 [Eh]
	-----------------------------------------------------------

  Dipole Moment: [D]
     X:    -0.3880      Y:    -1.4811      Z:    -0.5185     Total:     1.6165

*** Psi4 exiting successfully. Buy a developer a beer!
