                               Psi4 1.4a2.dev612

  ==> Input File <==

--------------------------------------------------------------------------
#psi4
#
memory 32 gb

molecule  {
0 1
  N        1.7773000    -0.9706020    -0.3863220
  C        1.0080060     0.0962300     0.0271750
  C       -0.4507830     0.0432590     0.0183630
  C        1.8938950     1.0905280     0.4329840
  C       -1.1961700     1.1987140    -0.2700270
  C       -1.1363230    -1.1523850     0.2941990
  C        3.1117900    -0.6733570    -0.2771830
  C        3.2093430     0.6071710     0.2411150
  C       -2.5895110     1.1608830    -0.2689850
  C       -2.5303830    -1.1922690     0.2696200
  C       -3.2626170    -0.0361670    -0.0095020
  H        1.3994420    -1.7974010    -0.8317830
  H        1.6078517     2.0026872     0.9548434
  H       -0.6712930     2.1216380    -0.5070250
  H       -0.5746270    -2.0444360     0.5668450
  H        3.8716190    -1.3816710    -0.5776140
  H        4.1315670     1.1252340     0.4699550
  H       -3.1528190     2.0640850    -0.4925600
  H       -3.0466780    -2.1247140     0.4868240
  H       -4.3493910    -0.0663800    -0.0199320
units angstrom
no_reorient  #important for SAPT in psi4, default
symmetry c1  #important for SAPT in psi4, default
}

set PROPERTIES_ORIGIN ["COM"]
properties('MP2/aug-cc-pvtz', properties = ['dipole'])
--------------------------------------------------------------------------

    Molecular point group: c1
  Charge       = 0
  Multiplicity = 1
  Basis Set: AUG-CC-PVTZ
    Blend: AUG-CC-PVTZ
  Basis Set: (AUG-CC-PVTZ AUX)
    Blend: AUG-CC-PVTZ-JKFIT

    Orbital Energies [Eh]
    ---------------------

    Doubly Occupied:

       1A    -15.608459     2A    -11.262337     3A    -11.256675
       4A    -11.253182     5A    -11.242050     6A    -11.240703
       7A    -11.240541     8A    -11.237961     9A    -11.237660
      10A    -11.214114    11A    -11.213029    12A     -1.294299
      13A     -1.156182    14A     -1.048895    15A     -1.042907
      16A     -1.016790    17A     -0.959237    18A     -0.837810
      19A     -0.832163    20A     -0.788455    21A     -0.764363
      22A     -0.735289    23A     -0.679917    24A     -0.633266
      25A     -0.629884    26A     -0.593198    27A     -0.589202
      28A     -0.582642    29A     -0.568652    30A     -0.549420
      31A     -0.536030    32A     -0.504564    33A     -0.500808
      34A     -0.494357    35A     -0.363430    36A     -0.350256
      37A     -0.341336    38A     -0.273524

  @DF-RHF Final Energy:  -438.50818460984829

   => Energetics <=

    Nuclear Repulsion Energy =            536.7995818122470837
    One-Electron Energy =               -1657.2683584390028955
    Two-Electron Energy =                 681.9605920169074125
    Total Energy =                       -438.5081846098482856
  Basis Set: (AUG-CC-PVTZ AUX)
    Blend: AUG-CC-PVTZ-RI
    Molecular point group: c1

    Geometry (in Angstrom), charge = 0, multiplicity = 1:

       Center              X                  Y                   Z               Mass
    ------------   -----------------  -----------------  -----------------  -----------------
         N            1.771819168555    -0.970728680113    -0.387254063604    14.003074004430
         C            1.002525168555     0.096103319887     0.026242936396    12.000000000000
         C           -0.456263831445     0.043132319887     0.017430936396    12.000000000000
         C            1.888414168555     1.090401319887     0.432051936396    12.000000000000
         C           -1.201650831445     1.198587319887    -0.270959063604    12.000000000000
         C           -1.141803831445    -1.152511680113     0.293266936396    12.000000000000
         C            3.106309168555    -0.673483680113    -0.278115063604    12.000000000000
         C            3.203862168555     0.607044319887     0.240182936396    12.000000000000
         C           -2.594991831445     1.160756319887    -0.269917063604    12.000000000000
         C           -2.535863831445    -1.192395680113     0.268687936396    12.000000000000
         C           -3.268097831445    -0.036293680113    -0.010434063604    12.000000000000
         H            1.393961168555    -1.797527680113    -0.832715063604     1.007825032230
         H            1.602370868555     2.002560519887     0.953911336396     1.007825032230
         H           -0.676773831445     2.121511319887    -0.507957063604     1.007825032230
         H           -0.580107831445    -2.044562680113     0.565912936396     1.007825032230
         H            3.866138168555    -1.381797680113    -0.578546063604     1.007825032230
         H            4.126086168555     1.125107319887     0.469022936396     1.007825032230
         H           -3.158299831445     2.063958319887    -0.493492063604     1.007825032230
         H           -3.052158831445    -2.124840680113     0.485891936396     1.007825032230
         H           -4.354871831445    -0.066506680113    -0.020864063604     1.007825032230

  Basis Set: AUG-CC-PVTZ
    Blend: AUG-CC-PVTZ
  Basis Set: (AUG-CC-PVTZ AUX)
    Blend: AUG-CC-PVTZ-JKFIT
	 Reference Energy          =    -438.5081846098482856 [Eh]
	 Singles Energy            =      -0.0000000000000000 [Eh]
	 Same-Spin Energy          =      -0.4953094616303056 [Eh]
	 Opposite-Spin Energy      =      -1.5254394573362178 [Eh]
	 Correlation Energy        =      -2.0207489189665235 [Eh]
	 Total Energy              =    -440.5289335288148322 [Eh]

	 ================> DF-SCS-MP2 Energies <==================
	-----------------------------------------------------------
	 SCS Same-Spin Scale       =       0.3333333333333333 [-]
	 SCS Opposite-Spin Scale   =       1.2000000000000000 [-]
	 SCS Same-Spin Energy      =      -0.1651031538767685 [Eh]
	 SCS Opposite-Spin Energy  =      -1.8305273488034612 [Eh]
	 SCS Correlation Energy    =      -1.9956305026802297 [Eh]
	 SCS Total Energy          =    -440.5038151125285140 [Eh]
	-----------------------------------------------------------

  Dipole Moment: [D]
     X:    -0.4498      Y:    -1.3584      Z:    -0.5815     Total:     1.5446

*** Psi4 exiting successfully. Buy a developer a beer!
