                               Psi4 1.4a2.dev612

  ==> Input File <==

--------------------------------------------------------------------------
#psi4
#
memory 32 gb

molecule  {
0 1
  N        1.7773000    -0.9706020    -0.3863220
  C        1.0080060     0.0962300     0.0271750
  C       -0.4507830     0.0432590     0.0183630
  C        1.8938950     1.0905280     0.4329840
  C       -1.1961700     1.1987140    -0.2700270
  C       -1.1363230    -1.1523850     0.2941990
  C        3.1117900    -0.6733570    -0.2771830
  C        3.2093430     0.6071710     0.2411150
  C       -2.5895110     1.1608830    -0.2689850
  C       -2.5303830    -1.1922690     0.2696200
  C       -3.2626170    -0.0361670    -0.0095020
  H        1.3994420    -1.7974010    -0.8317830
  H        1.6076040     2.0422160     0.8629880
  H       -0.6712930     2.1216380    -0.5070250
  H       -0.5746270    -2.0444360     0.5668450
  H        3.8716190    -1.3816710    -0.5776140
  H        4.1301556     1.0683767     0.6087544
  H       -3.1528190     2.0640850    -0.4925600
  H       -3.0466780    -2.1247140     0.4868240
  H       -4.3493910    -0.0663800    -0.0199320
units angstrom
no_reorient  #important for SAPT in psi4, default
symmetry c1  #important for SAPT in psi4, default
}

set PROPERTIES_ORIGIN ["COM"]
properties('MP2/aug-cc-pvtz', properties = ['dipole'])
--------------------------------------------------------------------------

    Molecular point group: c1
  Charge       = 0
  Multiplicity = 1
  Basis Set: AUG-CC-PVTZ
    Blend: AUG-CC-PVTZ
  Basis Set: (AUG-CC-PVTZ AUX)
    Blend: AUG-CC-PVTZ-JKFIT

    Orbital Energies [Eh]
    ---------------------

    Doubly Occupied:

       1A    -15.608709     2A    -11.262302     3A    -11.257030
       4A    -11.253339     5A    -11.242081     6A    -11.240752
       7A    -11.240535     8A    -11.237925     9A    -11.237656
      10A    -11.214681    11A    -11.213278    12A     -1.294493
      13A     -1.156205    14A     -1.049043    15A     -1.042908
      16A     -1.016815    17A     -0.959312    18A     -0.837943
      19A     -0.832210    20A     -0.787937    21A     -0.764590
      22A     -0.735335    23A     -0.679892    24A     -0.633327
      25A     -0.629663    26A     -0.593235    27A     -0.589588
      28A     -0.583043    29A     -0.569926    30A     -0.546273
      31A     -0.536816    32A     -0.504584    33A     -0.501019
      34A     -0.494269    35A     -0.363658    36A     -0.350593
      37A     -0.341380    38A     -0.273263

  @DF-RHF Final Energy:  -438.50749639403369

   => Energetics <=

    Nuclear Repulsion Energy =            536.7895712166929343
    One-Electron Energy =               -1657.2429170664147478
    Two-Electron Energy =                 681.9458494556879486
    Total Energy =                       -438.5074963940337511
  Basis Set: (AUG-CC-PVTZ AUX)
    Blend: AUG-CC-PVTZ-RI
    Molecular point group: c1

    Geometry (in Angstrom), charge = 0, multiplicity = 1:

       Center              X                  Y                   Z               Mass
    ------------   -----------------  -----------------  -----------------  -----------------
         N            1.771830855433    -0.970606616306    -0.387584742161    14.003074004430
         C            1.002536855433     0.096225383694     0.025912257839    12.000000000000
         C           -0.456252144567     0.043254383694     0.017100257839    12.000000000000
         C            1.888425855433     1.090523383694     0.431721257839    12.000000000000
         C           -1.201639144567     1.198709383694    -0.271289742161    12.000000000000
         C           -1.141792144567    -1.152389616306     0.292936257839    12.000000000000
         C            3.106320855433    -0.673361616306    -0.278445742161    12.000000000000
         C            3.203873855433     0.607166383694     0.239852257839    12.000000000000
         C           -2.594980144567     1.160878383694    -0.270247742161    12.000000000000
         C           -2.535852144567    -1.192273616306     0.268357257839    12.000000000000
         C           -3.268086144567    -0.036171616306    -0.010764742161    12.000000000000
         H            1.393972855433    -1.797405616306    -0.833045742161     1.007825032230
         H            1.602134855433     2.042211383694     0.861725257839     1.007825032230
         H           -0.676762144567     2.121633383694    -0.508287742161     1.007825032230
         H           -0.580096144567    -2.044440616306     0.565582257839     1.007825032230
         H            3.866149855433    -1.381675616306    -0.578876742161     1.007825032230
         H            4.124686455433     1.068372083694     0.607491657839     1.007825032230
         H           -3.158288144567     2.064080383694    -0.493822742161     1.007825032230
         H           -3.052147144567    -2.124718616306     0.485561257839     1.007825032230
         H           -4.354860144567    -0.066384616306    -0.021194742161     1.007825032230

  Basis Set: AUG-CC-PVTZ
    Blend: AUG-CC-PVTZ
  Basis Set: (AUG-CC-PVTZ AUX)
    Blend: AUG-CC-PVTZ-JKFIT
	 Reference Energy          =    -438.5074963940336943 [Eh]
	 Singles Energy            =      -0.0000000000000000 [Eh]
	 Same-Spin Energy          =      -0.4953404350507314 [Eh]
	 Opposite-Spin Energy      =      -1.5255311757678136 [Eh]
	 Correlation Energy        =      -2.0208716108185452 [Eh]
	 Total Energy              =    -440.5283680048522115 [Eh]

	 ================> DF-SCS-MP2 Energies <==================
	-----------------------------------------------------------
	 SCS Same-Spin Scale       =       0.3333333333333333 [-]
	 SCS Opposite-Spin Scale   =       1.2000000000000000 [-]
	 SCS Same-Spin Energy      =      -0.1651134783502438 [Eh]
	 SCS Opposite-Spin Energy  =      -1.8306374109213763 [Eh]
	 SCS Correlation Energy    =      -1.9957508892716200 [Eh]
	 SCS Total Energy          =    -440.5032472833053134 [Eh]
	-----------------------------------------------------------

  Dipole Moment: [D]
     X:    -0.4693      Y:    -1.3734      Z:    -0.5430     Total:     1.5496

*** Psi4 exiting successfully. Buy a developer a beer!
