                               Psi4 1.4a2.dev612

  ==> Input File <==

--------------------------------------------------------------------------
#psi4
#
memory 32 gb

molecule  {
0 1
  N        1.7773000    -0.9706020    -0.3863220
  C        1.0080060     0.0962300     0.0271750
  C       -0.4507830     0.0432590     0.0183630
  C        1.8938950     1.0905280     0.4329840
  C       -1.1961700     1.1987140    -0.2700270
  C       -1.1363230    -1.1523850     0.2941990
  C        3.1117900    -0.6733570    -0.2771830
  C        3.2093430     0.6071710     0.2411150
  C       -2.5895110     1.1608830    -0.2689850
  C       -2.5303830    -1.1922690     0.2696200
  C       -3.2626170    -0.0361670    -0.0095020
  H        1.3994420    -1.7974010    -0.8317830
  H        1.6076040     2.0422160     0.8629880
  H       -0.6708297     2.0726687    -0.7009368
  H       -0.5746270    -2.0444360     0.5668450
  H        3.8716190    -1.3816710    -0.5776140
  H        4.1315670     1.1252340     0.4699550
  H       -3.1528190     2.0640850    -0.4925600
  H       -3.0466780    -2.1247140     0.4868240
  H       -4.3493910    -0.0663800    -0.0199320
units angstrom
no_reorient  #important for SAPT in psi4, default
symmetry c1  #important for SAPT in psi4, default
}

set PROPERTIES_ORIGIN ["COM"]
properties('MP2/aug-cc-pvtz', properties = ['dipole'])
--------------------------------------------------------------------------

    Molecular point group: c1
  Charge       = 0
  Multiplicity = 1
  Basis Set: AUG-CC-PVTZ
    Blend: AUG-CC-PVTZ
  Basis Set: (AUG-CC-PVTZ AUX)
    Blend: AUG-CC-PVTZ-JKFIT

    Orbital Energies [Eh]
    ---------------------

    Doubly Occupied:

       1A    -15.608170     2A    -11.261859     3A    -11.256805
       4A    -11.253356     5A    -11.242366     6A    -11.241164
       7A    -11.240539     8A    -11.239132     9A    -11.237866
      10A    -11.213849    11A    -11.212762    12A     -1.294128
      13A     -1.156158    14A     -1.048804    15A     -1.042900
      16A     -1.016440    17A     -0.959159    18A     -0.837699
      19A     -0.831208    20A     -0.788567    21A     -0.764823
      22A     -0.734829    23A     -0.678589    24A     -0.632580
      25A     -0.629679    26A     -0.592834    27A     -0.588968
      28A     -0.581741    29A     -0.569126    30A     -0.549525
      31A     -0.537413    32A     -0.503767    33A     -0.501756
      34A     -0.491555    35A     -0.363233    36A     -0.350176
      37A     -0.341064    38A     -0.273607

  @DF-RHF Final Energy:  -438.50615343934078

   => Energetics <=

    Nuclear Repulsion Energy =            536.7395757738257771
    One-Electron Energy =               -1657.1550645577956402
    Two-Electron Energy =                 681.9093353446291985
    Total Energy =                       -438.5061534393407783
  Basis Set: (AUG-CC-PVTZ AUX)
    Blend: AUG-CC-PVTZ-RI
    Molecular point group: c1

    Geometry (in Angstrom), charge = 0, multiplicity = 1:

       Center              X                  Y                   Z               Mass
    ------------   -----------------  -----------------  -----------------  -----------------
         N            1.771817649846    -0.970662180222    -0.385241088882    14.003074004430
         C            1.002523649846     0.096169819778     0.028255911118    12.000000000000
         C           -0.456265350154     0.043198819778     0.019443911118    12.000000000000
         C            1.888412649846     1.090467819778     0.434064911118    12.000000000000
         C           -1.201652350154     1.198653819778    -0.268946088882    12.000000000000
         C           -1.141805350154    -1.152445180222     0.295279911118    12.000000000000
         C            3.106307649846    -0.673417180222    -0.276102088882    12.000000000000
         C            3.203860649846     0.607110819778     0.242195911118    12.000000000000
         C           -2.594993350154     1.160822819778    -0.267904088882    12.000000000000
         C           -2.535865350154    -1.192329180222     0.270700911118    12.000000000000
         C           -3.268099350154    -0.036227180222    -0.008421088882    12.000000000000
         H            1.393959649846    -1.797461180222    -0.830702088882     1.007825032230
         H            1.602121649846     2.042155819778     0.864068911118     1.007825032230
         H           -0.676312050154     2.072608519778    -0.699855888882     1.007825032230
         H           -0.580109350154    -2.044496180222     0.567925911118     1.007825032230
         H            3.866136649846    -1.381731180222    -0.576533088882     1.007825032230
         H            4.126084649846     1.125173819778     0.471035911118     1.007825032230
         H           -3.158301350154     2.064024819778    -0.491479088882     1.007825032230
         H           -3.052160350154    -2.124774180222     0.487904911118     1.007825032230
         H           -4.354873350154    -0.066440180222    -0.018851088882     1.007825032230

  Basis Set: AUG-CC-PVTZ
    Blend: AUG-CC-PVTZ
  Basis Set: (AUG-CC-PVTZ AUX)
    Blend: AUG-CC-PVTZ-JKFIT
	 Reference Energy          =    -438.5061534393407783 [Eh]
	 Singles Energy            =      -0.0000000000000000 [Eh]
	 Same-Spin Energy          =      -0.4954322559382548 [Eh]
	 Opposite-Spin Energy      =      -1.5256377591948111 [Eh]
	 Correlation Energy        =      -2.0210700151330658 [Eh]
	 Total Energy              =    -440.5272234544738694 [Eh]

	 ================> DF-SCS-MP2 Energies <==================
	-----------------------------------------------------------
	 SCS Same-Spin Scale       =       0.3333333333333333 [-]
	 SCS Opposite-Spin Scale   =       1.2000000000000000 [-]
	 SCS Same-Spin Energy      =      -0.1651440853127516 [Eh]
	 SCS Opposite-Spin Energy  =      -1.8307653110337734 [Eh]
	 SCS Correlation Energy    =      -1.9959093963465251 [Eh]
	 SCS Total Energy          =    -440.5020628356872976 [Eh]
	-----------------------------------------------------------

  Dipole Moment: [D]
     X:    -0.4638      Y:    -1.3723      Z:    -0.7526     Total:     1.6323

*** Psi4 exiting successfully. Buy a developer a beer!
