                               Psi4 1.4a2.dev612

  ==> Input File <==

--------------------------------------------------------------------------
#psi4
#
memory 32 gb

molecule  {
0 1
  N        1.7773000    -0.9706020    -0.3863220
  C        1.0080060     0.0962300     0.0271750
  C       -0.4507830     0.0432590     0.0183630
  C        1.8938610     1.1089991     0.3865209
  C       -1.1961700     1.1987140    -0.2700270
  C       -1.1363230    -1.1523850     0.2941990
  C        3.1117900    -0.6733570    -0.2771830
  C        3.2093430     0.6071710     0.2411150
  C       -2.5895110     1.1608830    -0.2689850
  C       -2.5303830    -1.1922690     0.2696200
  C       -3.2626170    -0.0361670    -0.0095020
  H        1.3994420    -1.7974010    -0.8317830
  H        1.6076040     2.0422160     0.8629880
  H       -0.6712930     2.1216380    -0.5070250
  H       -0.5746270    -2.0444360     0.5668450
  H        3.8716190    -1.3816710    -0.5776140
  H        4.1315670     1.1252340     0.4699550
  H       -3.1528190     2.0640850    -0.4925600
  H       -3.0466780    -2.1247140     0.4868240
  H       -4.3493910    -0.0663800    -0.0199320
units angstrom
no_reorient  #important for SAPT in psi4, default
symmetry c1  #important for SAPT in psi4, default
}

set PROPERTIES_ORIGIN ["COM"]
properties('MP2/aug-cc-pvtz', properties = ['dipole'])
--------------------------------------------------------------------------

    Molecular point group: c1
  Charge       = 0
  Multiplicity = 1
  Basis Set: AUG-CC-PVTZ
    Blend: AUG-CC-PVTZ
  Basis Set: (AUG-CC-PVTZ AUX)
    Blend: AUG-CC-PVTZ-JKFIT

    Orbital Energies [Eh]
    ---------------------

    Doubly Occupied:

       1A    -15.608492     2A    -11.262620     3A    -11.256780
       4A    -11.253328     5A    -11.242015     6A    -11.240688
       7A    -11.240473     8A    -11.237840     9A    -11.237574
      10A    -11.214271    11A    -11.213181    12A     -1.294350
      13A     -1.156157    14A     -1.048962    15A     -1.042916
      16A     -1.016736    17A     -0.959276    18A     -0.837861
      19A     -0.832277    20A     -0.788518    21A     -0.764695
      22A     -0.735356    23A     -0.679839    24A     -0.633179
      25A     -0.629883    26A     -0.593656    27A     -0.589464
      28A     -0.582867    29A     -0.568289    30A     -0.549482
      31A     -0.535882    32A     -0.504568    33A     -0.501057
      34A     -0.494239    35A     -0.364170    36A     -0.350453
      37A     -0.341331    38A     -0.272969

  @DF-RHF Final Energy:  -438.50815436945220

   => Energetics <=

    Nuclear Repulsion Energy =            536.8146610142728150
    One-Electron Energy =               -1657.2942485145060800
    Two-Electron Energy =                 681.9714331307810653
    Total Energy =                       -438.5081543694521997
  Basis Set: (AUG-CC-PVTZ AUX)
    Blend: AUG-CC-PVTZ-RI
    Molecular point group: c1

    Geometry (in Angstrom), charge = 0, multiplicity = 1:

       Center              X                  Y                   Z               Mass
    ------------   -----------------  -----------------  -----------------  -----------------
         N            1.771823765062    -0.972556351313    -0.382710025927    14.003074004430
         C            1.002529765062     0.094275648687     0.030786974073    12.000000000000
         C           -0.456259234938     0.041304648687     0.021974974073    12.000000000000
         C            1.888384765062     1.107044748687     0.390132874073    12.000000000000
         C           -1.201646234938     1.196759648687    -0.266415025927    12.000000000000
         C           -1.141799234938    -1.154339351313     0.297810974073    12.000000000000
         C            3.106313765062    -0.675311351313    -0.273571025927    12.000000000000
         C            3.203866765062     0.605216648687     0.244726974073    12.000000000000
         C           -2.594987234938     1.158928648687    -0.265373025927    12.000000000000
         C           -2.535859234938    -1.194223351313     0.273231974073    12.000000000000
         C           -3.268093234938    -0.038121351313    -0.005890025927    12.000000000000
         H            1.393965765062    -1.799355351313    -0.828171025927     1.007825032230
         H            1.602127765062     2.040261648687     0.866599974073     1.007825032230
         H           -0.676769234938     2.119683648687    -0.503413025927     1.007825032230
         H           -0.580103234938    -2.046390351313     0.570456974073     1.007825032230
         H            3.866142765062    -1.383625351313    -0.574002025927     1.007825032230
         H            4.126090765062     1.123279648687     0.473566974073     1.007825032230
         H           -3.158295234938     2.062130648687    -0.488948025927     1.007825032230
         H           -3.052154234938    -2.126668351313     0.490435974073     1.007825032230
         H           -4.354867234938    -0.068334351313    -0.016320025927     1.007825032230

  Basis Set: AUG-CC-PVTZ
    Blend: AUG-CC-PVTZ
  Basis Set: (AUG-CC-PVTZ AUX)
    Blend: AUG-CC-PVTZ-JKFIT
	 Reference Energy          =    -438.5081543694521997 [Eh]
	 Singles Energy            =      -0.0000000000000000 [Eh]
	 Same-Spin Energy          =      -0.4953221990391987 [Eh]
	 Opposite-Spin Energy      =      -1.5254784581682110 [Eh]
	 Correlation Energy        =      -2.0208006572074098 [Eh]
	 Total Energy              =    -440.5289550266596166 [Eh]

	 ================> DF-SCS-MP2 Energies <==================
	-----------------------------------------------------------
	 SCS Same-Spin Scale       =       0.3333333333333333 [-]
	 SCS Opposite-Spin Scale   =       1.2000000000000000 [-]
	 SCS Same-Spin Energy      =      -0.1651073996797329 [Eh]
	 SCS Opposite-Spin Energy  =      -1.8305741498018531 [Eh]
	 SCS Correlation Energy    =      -1.9956815494815860 [Eh]
	 SCS Total Energy          =    -440.5038359189337598 [Eh]
	-----------------------------------------------------------

  Dipole Moment: [D]
     X:    -0.4317      Y:    -1.3431      Z:    -0.6089     Total:     1.5365

*** Psi4 exiting successfully. Buy a developer a beer!
