                               Psi4 1.4a2.dev612

  ==> Input File <==

--------------------------------------------------------------------------
#psi4
#
memory 32 gb

molecule  {
0 1
  N        1.7773000    -0.9706020    -0.3863220
  C        1.0080060     0.0962300     0.0271750
  C       -0.4507830     0.0432590     0.0183630
  C        1.8938950     1.0905280     0.4329840
  C       -1.1961700     1.1987140    -0.2700270
  C       -1.1363230    -1.1523850     0.2941990
  C        3.1117900    -0.6733570    -0.2771830
  C        3.2093430     0.6071710     0.2411150
  C       -2.5895110     1.1608830    -0.2689850
  C       -2.5303830    -1.1922690     0.2696200
  C       -3.2626170    -0.0361670    -0.0095020
  H        1.3994420    -1.7974010    -0.8317830
  H        1.6076040     2.0422160     0.8629880
  H       -0.6709455     2.0849110    -0.6524589
  H       -0.5746270    -2.0444360     0.5668450
  H        3.8716190    -1.3816710    -0.5776140
  H        4.1315670     1.1252340     0.4699550
  H       -3.1528190     2.0640850    -0.4925600
  H       -3.0466780    -2.1247140     0.4868240
  H       -4.3493910    -0.0663800    -0.0199320
units angstrom
no_reorient  #important for SAPT in psi4, default
symmetry c1  #important for SAPT in psi4, default
}

set PROPERTIES_ORIGIN ["COM"]
properties('MP2/aug-cc-pvtz', properties = ['dipole'])
--------------------------------------------------------------------------

    Molecular point group: c1
  Charge       = 0
  Multiplicity = 1
  Basis Set: AUG-CC-PVTZ
    Blend: AUG-CC-PVTZ
  Basis Set: (AUG-CC-PVTZ AUX)
    Blend: AUG-CC-PVTZ-JKFIT

    Orbital Energies [Eh]
    ---------------------

    Doubly Occupied:

       1A    -15.608190     2A    -11.261928     3A    -11.256754
       4A    -11.253265     5A    -11.242216     6A    -11.240976
       7A    -11.240500     8A    -11.238554     9A    -11.237812
      10A    -11.213866    11A    -11.212776    12A     -1.294132
      13A     -1.156141    14A     -1.048828    15A     -1.042894
      16A     -1.016573    17A     -0.959181    18A     -0.837740
      19A     -0.831600    20A     -0.788576    21A     -0.764877
      22A     -0.734998    23A     -0.679120    24A     -0.632824
      25A     -0.629707    26A     -0.593112    27A     -0.588994
      28A     -0.582135    29A     -0.569180    30A     -0.549530
      31A     -0.537335    32A     -0.503603    33A     -0.501489
      34A     -0.492897    35A     -0.363277    36A     -0.350190
      37A     -0.341173    38A     -0.273547

  @DF-RHF Final Energy:  -438.50737346319249

   => Energetics <=

    Nuclear Repulsion Energy =            536.7756799895696531
    One-Electron Energy =               -1657.2251261657372652
    Two-Electron Energy =                 681.9420727129751185
    Total Energy =                       -438.5073734631924935
  Basis Set: (AUG-CC-PVTZ AUX)
    Blend: AUG-CC-PVTZ-RI
    Molecular point group: c1

    Geometry (in Angstrom), charge = 0, multiplicity = 1:

       Center              X                  Y                   Z               Mass
    ------------   -----------------  -----------------  -----------------  -----------------
         N            1.771818465553    -0.970748416292    -0.385582572394    14.003074004430
         C            1.002524465553     0.096083583708     0.027914427606    12.000000000000
         C           -0.456264534447     0.043112583708     0.019102427606    12.000000000000
         C            1.888413465553     1.090381583708     0.433723427606    12.000000000000
         C           -1.201651534447     1.198567583708    -0.269287572394    12.000000000000
         C           -1.141804534447    -1.152531416292     0.294938427606    12.000000000000
         C            3.106308465553    -0.673503416292    -0.276443572394    12.000000000000
         C            3.203861465553     0.607024583708     0.241854427606    12.000000000000
         C           -2.594992534447     1.160736583708    -0.268245572394    12.000000000000
         C           -2.535864534447    -1.192415416292     0.270359427606    12.000000000000
         C           -3.268098534447    -0.036313416292    -0.008762572394    12.000000000000
         H            1.393960465553    -1.797547416292    -0.831043572394     1.007825032230
         H            1.602122465553     2.042069583708     0.863727427606     1.007825032230
         H           -0.676427034447     2.084764583708    -0.651719472394     1.007825032230
         H           -0.580108534447    -2.044582416292     0.567584427606     1.007825032230
         H            3.866137465553    -1.381817416292    -0.576874572394     1.007825032230
         H            4.126085465553     1.125087583708     0.470694427606     1.007825032230
         H           -3.158300534447     2.063938583708    -0.491820572394     1.007825032230
         H           -3.052159534447    -2.124860416292     0.487563427606     1.007825032230
         H           -4.354872534447    -0.066526416292    -0.019192572394     1.007825032230

  Basis Set: AUG-CC-PVTZ
    Blend: AUG-CC-PVTZ
  Basis Set: (AUG-CC-PVTZ AUX)
    Blend: AUG-CC-PVTZ-JKFIT
	 Reference Energy          =    -438.5073734631924935 [Eh]
	 Singles Energy            =      -0.0000000000000000 [Eh]
	 Same-Spin Energy          =      -0.4953594746835851 [Eh]
	 Opposite-Spin Energy      =      -1.5254936991410564 [Eh]
	 Correlation Energy        =      -2.0208531738246416 [Eh]
	 Total Energy              =    -440.5282266370171556 [Eh]

	 ================> DF-SCS-MP2 Energies <==================
	-----------------------------------------------------------
	 SCS Same-Spin Scale       =       0.3333333333333333 [-]
	 SCS Opposite-Spin Scale   =       1.2000000000000000 [-]
	 SCS Same-Spin Energy      =      -0.1651198248945284 [Eh]
	 SCS Opposite-Spin Energy  =      -1.8305924389692676 [Eh]
	 SCS Correlation Energy    =      -1.9957122638637959 [Eh]
	 SCS Total Energy          =    -440.5030857270563160 [Eh]
	-----------------------------------------------------------

  Dipole Moment: [D]
     X:    -0.4586      Y:    -1.3545      Z:    -0.7278     Total:     1.6046

*** Psi4 exiting successfully. Buy a developer a beer!
