                               Psi4 1.4a2.dev612

  ==> Input File <==

--------------------------------------------------------------------------
#psi4
#
memory 32 gb

molecule  {
0 1
  N        1.7773000    -0.9706020    -0.3863220
  C        1.0080060     0.0962300     0.0271750
  C       -0.4507830     0.0432590     0.0183630
  C        1.8937930     1.1459414     0.2935948
  C       -1.1961700     1.1987140    -0.2700270
  C       -1.1363230    -1.1523850     0.2941990
  C        3.1117900    -0.6733570    -0.2771830
  C        3.2093430     0.6071710     0.2411150
  C       -2.5895110     1.1608830    -0.2689850
  C       -2.5303830    -1.1922690     0.2696200
  C       -3.2626170    -0.0361670    -0.0095020
  H        1.3994420    -1.7974010    -0.8317830
  H        1.6076040     2.0422160     0.8629880
  H       -0.6712930     2.1216380    -0.5070250
  H       -0.5746270    -2.0444360     0.5668450
  H        3.8716190    -1.3816710    -0.5776140
  H        4.1315670     1.1252340     0.4699550
  H       -3.1528190     2.0640850    -0.4925600
  H       -3.0466780    -2.1247140     0.4868240
  H       -4.3493910    -0.0663800    -0.0199320
units angstrom
no_reorient  #important for SAPT in psi4, default
symmetry c1  #important for SAPT in psi4, default
}

set PROPERTIES_ORIGIN ["COM"]
properties('MP2/aug-cc-pvtz', properties = ['dipole'])
--------------------------------------------------------------------------

    Molecular point group: c1
  Charge       = 0
  Multiplicity = 1
  Basis Set: AUG-CC-PVTZ
    Blend: AUG-CC-PVTZ
  Basis Set: (AUG-CC-PVTZ AUX)
    Blend: AUG-CC-PVTZ-JKFIT

    Orbital Energies [Eh]
    ---------------------

    Doubly Occupied:

       1A    -15.609428     2A    -11.265379     3A    -11.257081
       4A    -11.253725     5A    -11.242277     6A    -11.240903
       7A    -11.240753     8A    -11.237997     9A    -11.237729
      10A    -11.215860    11A    -11.214787    12A     -1.294870
      13A     -1.156456    14A     -1.048954    15A     -1.042293
      16A     -1.016868    17A     -0.959246    18A     -0.838002
      19A     -0.832597    20A     -0.787744    21A     -0.763640
      22A     -0.735469    23A     -0.679849    24A     -0.633195
      25A     -0.630246    26A     -0.594102    27A     -0.590335
      28A     -0.582878    29A     -0.566404    30A     -0.547487
      31A     -0.531097    32A     -0.504771    33A     -0.501554
      34A     -0.494022    35A     -0.365659    36A     -0.350614
      37A     -0.341534    38A     -0.272280

  @DF-RHF Final Energy:  -438.50244184276295

   => Energetics <=

    Nuclear Repulsion Energy =            536.6142548440368500
    One-Electron Energy =               -1656.8772228344225823
    Two-Electron Energy =                 681.7605261476227270
    Total Energy =                       -438.5024418427630053
  Basis Set: (AUG-CC-PVTZ AUX)
    Blend: AUG-CC-PVTZ-RI
    Molecular point group: c1

    Geometry (in Angstrom), charge = 0, multiplicity = 1:

       Center              X                  Y                   Z               Mass
    ------------   -----------------  -----------------  -----------------  -----------------
         N            1.771829468424    -0.975654811910    -0.374916037484    14.003074004430
         C            1.002535468424     0.091177188090     0.038580962516    12.000000000000
         C           -0.456253531576     0.038206188090     0.029768962516    12.000000000000
         C            1.888322468424     1.140888588090     0.305000762516    12.000000000000
         C           -1.201640531576     1.193661188090    -0.258621037484    12.000000000000
         C           -1.141793531576    -1.157437811910     0.305604962516    12.000000000000
         C            3.106319468424    -0.678409811910    -0.265777037484    12.000000000000
         C            3.203872468424     0.602118188090     0.252520962516    12.000000000000
         C           -2.594981531576     1.155830188090    -0.257579037484    12.000000000000
         C           -2.535853531576    -1.197321811910     0.281025962516    12.000000000000
         C           -3.268087531576    -0.041219811910     0.001903962516    12.000000000000
         H            1.393971468424    -1.802453811910    -0.820377037484     1.007825032230
         H            1.602133468424     2.037163188090     0.874393962516     1.007825032230
         H           -0.676763531576     2.116585188090    -0.495619037484     1.007825032230
         H           -0.580097531576    -2.049488811910     0.578250962516     1.007825032230
         H            3.866148468424    -1.386723811910    -0.566208037484     1.007825032230
         H            4.126096468424     1.120181188090     0.481360962516     1.007825032230
         H           -3.158289531576     2.059032188090    -0.481154037484     1.007825032230
         H           -3.052148531576    -2.129766811910     0.498229962516     1.007825032230
         H           -4.354861531576    -0.071432811910    -0.008526037484     1.007825032230

  Basis Set: AUG-CC-PVTZ
    Blend: AUG-CC-PVTZ
  Basis Set: (AUG-CC-PVTZ AUX)
    Blend: AUG-CC-PVTZ-JKFIT
	 Reference Energy          =    -438.5024418427629485 [Eh]
	 Singles Energy            =      -0.0000000000000000 [Eh]
	 Same-Spin Energy          =      -0.4956563069756069 [Eh]
	 Opposite-Spin Energy      =      -1.5264069165044873 [Eh]
	 Correlation Energy        =      -2.0220632234800942 [Eh]
	 Total Energy              =    -440.5245050662430231 [Eh]

	 ================> DF-SCS-MP2 Energies <==================
	-----------------------------------------------------------
	 SCS Same-Spin Scale       =       0.3333333333333333 [-]
	 SCS Opposite-Spin Scale   =       1.2000000000000000 [-]
	 SCS Same-Spin Energy      =      -0.1652187689918690 [Eh]
	 SCS Opposite-Spin Energy  =      -1.8316882998053847 [Eh]
	 SCS Correlation Energy    =      -1.9969070687972537 [Eh]
	 SCS Total Energy          =    -440.4993489115602188 [Eh]
	-----------------------------------------------------------

  Dipole Moment: [D]
     X:    -0.4003      Y:    -1.4245      Z:    -0.5449     Total:     1.5768

*** Psi4 exiting successfully. Buy a developer a beer!
