                               Psi4 1.4a2.dev612

  ==> Input File <==

--------------------------------------------------------------------------
#psi4
#
memory 32 gb

molecule  {
0 1
  N        1.7773000    -0.9706020    -0.3863220
  C        1.0080060     0.0962300     0.0271750
  C       -0.4507830     0.0432590     0.0183630
  C        1.8938950     1.0905280     0.4329840
  C       -1.1961700     1.1987140    -0.2700270
  C       -1.1363230    -1.1523850     0.2941990
  C        3.1117900    -0.6733570    -0.2771830
  C        3.2093430     0.6071710     0.2411150
  C       -2.5895110     1.1608830    -0.2689850
  C       -2.5303830    -1.1922690     0.2696200
  C       -3.2626170    -0.0361670    -0.0095020
  H        1.3994420    -1.7974010    -0.8317830
  H        1.6076040     2.0422160     0.8629880
  H       -0.6712930     2.1216380    -0.5070250
  H       -0.5746270    -2.0444360     0.5668450
  H        3.8716190    -1.3816710    -0.5776140
  H        4.1292147     1.0304719     0.7012873
  H       -3.1528190     2.0640850    -0.4925600
  H       -3.0466780    -2.1247140     0.4868240
  H       -4.3493910    -0.0663800    -0.0199320
units angstrom
no_reorient  #important for SAPT in psi4, default
symmetry c1  #important for SAPT in psi4, default
}

set PROPERTIES_ORIGIN ["COM"]
properties('MP2/aug-cc-pvtz', properties = ['dipole'])
--------------------------------------------------------------------------

    Molecular point group: c1
  Charge       = 0
  Multiplicity = 1
  Basis Set: AUG-CC-PVTZ
    Blend: AUG-CC-PVTZ
  Basis Set: (AUG-CC-PVTZ AUX)
    Blend: AUG-CC-PVTZ-JKFIT

    Orbital Energies [Eh]
    ---------------------

    Doubly Occupied:

       1A    -15.609252     2A    -11.262550     3A    -11.257698
       4A    -11.253486     5A    -11.242193     6A    -11.240839
       7A    -11.240647     8A    -11.237988     9A    -11.237720
      10A    -11.216084    11A    -11.213697    12A     -1.294949
      13A     -1.156314    14A     -1.049223    15A     -1.042849
      16A     -1.016898    17A     -0.959433    18A     -0.838084
      19A     -0.832225    20A     -0.786925    21A     -0.763911
      22A     -0.735359    23A     -0.679931    24A     -0.633485
      25A     -0.629732    26A     -0.592458    27A     -0.589878
      28A     -0.583236    29A     -0.570496    30A     -0.542952
      31A     -0.536261    32A     -0.504661    33A     -0.501074
      34A     -0.494185    35A     -0.363905    36A     -0.350694
      37A     -0.341471    38A     -0.273315

  @DF-RHF Final Energy:  -438.50487437047997

   => Energetics <=

    Nuclear Repulsion Energy =            536.7224270963807840
    One-Electron Energy =               -1657.1024890631963444
    Two-Electron Energy =                 681.8751875963355360
    Total Energy =                       -438.5048743704799108
  Basis Set: (AUG-CC-PVTZ AUX)
    Blend: AUG-CC-PVTZ-RI
    Molecular point group: c1

    Geometry (in Angstrom), charge = 0, multiplicity = 1:

       Center              X                  Y                   Z               Mass
    ------------   -----------------  -----------------  -----------------  -----------------
         N            1.771837483233    -0.970339610840    -0.388236553806    14.003074004430
         C            1.002543483233     0.096492389160     0.025260446194    12.000000000000
         C           -0.456245516767     0.043521389160     0.016448446194    12.000000000000
         C            1.888432483233     1.090790389160     0.431069446194    12.000000000000
         C           -1.201632516767     1.198976389160    -0.271941553806    12.000000000000
         C           -1.141785516767    -1.152122610840     0.292284446194    12.000000000000
         C            3.106327483233    -0.673094610840    -0.279097553806    12.000000000000
         C            3.203880483233     0.607433389160     0.239200446194    12.000000000000
         C           -2.594973516767     1.161145389160    -0.270899553806    12.000000000000
         C           -2.535845516767    -1.192006610840     0.267705446194    12.000000000000
         C           -3.268079516767    -0.035904610840    -0.011416553806    12.000000000000
         H            1.393979483233    -1.797138610840    -0.833697553806     1.007825032230
         H            1.602141483233     2.042478389160     0.861073446194     1.007825032230
         H           -0.676755516767     2.121900389160    -0.508939553806     1.007825032230
         H           -0.580089516767    -2.044173610840     0.564930446194     1.007825032230
         H            3.866156483233    -1.381408610840    -0.579528553806     1.007825032230
         H            4.123752183233     1.030734289160     0.699372746194     1.007825032230
         H           -3.158281516767     2.064347389160    -0.494474553806     1.007825032230
         H           -3.052140516767    -2.124451610840     0.484909446194     1.007825032230
         H           -4.354853516767    -0.066117610840    -0.021846553806     1.007825032230

  Basis Set: AUG-CC-PVTZ
    Blend: AUG-CC-PVTZ
  Basis Set: (AUG-CC-PVTZ AUX)
    Blend: AUG-CC-PVTZ-JKFIT
	 Reference Energy          =    -438.5048743704799676 [Eh]
	 Singles Energy            =      -0.0000000000000000 [Eh]
	 Same-Spin Energy          =      -0.4954650058484319 [Eh]
	 Opposite-Spin Energy      =      -1.5258595904128693 [Eh]
	 Correlation Energy        =      -2.0213245962613011 [Eh]
	 Total Energy              =    -440.5261989667412763 [Eh]

	 ================> DF-SCS-MP2 Energies <==================
	-----------------------------------------------------------
	 SCS Same-Spin Scale       =       0.3333333333333333 [-]
	 SCS Opposite-Spin Scale   =       1.2000000000000000 [-]
	 SCS Same-Spin Energy      =      -0.1651550019494773 [Eh]
	 SCS Opposite-Spin Energy  =      -1.8310315084954432 [Eh]
	 SCS Correlation Energy    =      -1.9961865104449203 [Eh]
	 SCS Total Energy          =    -440.5010608809249106 [Eh]
	-----------------------------------------------------------

  Dipole Moment: [D]
     X:    -0.5056      Y:    -1.4201      Z:    -0.4805     Total:     1.5821

*** Psi4 exiting successfully. Buy a developer a beer!
