                               Psi4 1.4a2.dev612

  ==> Input File <==

--------------------------------------------------------------------------
#psi4
#
memory 32 gb

molecule  {
0 1
  N        1.7773000    -0.9706020    -0.3863220
  C        1.0080060     0.0962300     0.0271750
  C       -0.4507830     0.0432590     0.0183630
  C        1.8938950     1.0905280     0.4329840
  C       -1.1961700     1.1987140    -0.2700270
  C       -1.1363230    -1.1523850     0.2941990
  C        3.1117900    -0.6733570    -0.2771830
  C        3.2093430     0.6071710     0.2411150
  C       -2.5895110     1.1608830    -0.2689850
  C       -2.5303830    -1.1922690     0.2696200
  C       -3.2626170    -0.0361670    -0.0095020
  H        1.3994420    -1.7974010    -0.8317830
  H        1.6076040     2.0422160     0.8629880
  H       -0.6712930     2.1216380    -0.5070250
  H       -0.5746270    -2.0444360     0.5668450
  H        3.8700530    -1.3250201    -0.7164961
  H        4.1315670     1.1252340     0.4699550
  H       -3.1528190     2.0640850    -0.4925600
  H       -3.0466780    -2.1247140     0.4868240
  H       -4.3493910    -0.0663800    -0.0199320
units angstrom
no_reorient  #important for SAPT in psi4, default
symmetry c1  #important for SAPT in psi4, default
}

set PROPERTIES_ORIGIN ["COM"]
properties('MP2/aug-cc-pvtz', properties = ['dipole'])
--------------------------------------------------------------------------

    Molecular point group: c1
  Charge       = 0
  Multiplicity = 1
  Basis Set: AUG-CC-PVTZ
    Blend: AUG-CC-PVTZ
  Basis Set: (AUG-CC-PVTZ AUX)
    Blend: AUG-CC-PVTZ-JKFIT

    Orbital Energies [Eh]
    ---------------------

    Doubly Occupied:

       1A    -15.608503     2A    -11.262592     3A    -11.257457
       4A    -11.253418     5A    -11.242052     6A    -11.240813
       7A    -11.240487     8A    -11.237988     9A    -11.237685
      10A    -11.214244    11A    -11.213129    12A     -1.294365
      13A     -1.156229    14A     -1.049052    15A     -1.043096
      16A     -1.016841    17A     -0.958973    18A     -0.837673
      19A     -0.832287    20A     -0.788752    21A     -0.764708
      22A     -0.734627    23A     -0.679511    24A     -0.632506
      25A     -0.629743    26A     -0.593704    27A     -0.589587
      28A     -0.584042    29A     -0.568041    30A     -0.549785
      31A     -0.534785    32A     -0.505032    33A     -0.500909
      34A     -0.494384    35A     -0.363908    36A     -0.350393
      37A     -0.341419    38A     -0.273284

  @DF-RHF Final Energy:  -438.50765715089409

   => Energetics <=

    Nuclear Repulsion Energy =            536.7898321396642132
    One-Electron Energy =               -1657.2429662962683778
    Two-Electron Energy =                 681.9454770057101314
    Total Energy =                       -438.5076571508940333
  Basis Set: (AUG-CC-PVTZ AUX)
    Blend: AUG-CC-PVTZ-RI
    Molecular point group: c1

    Geometry (in Angstrom), charge = 0, multiplicity = 1:

       Center              X                  Y                   Z               Mass
    ------------   -----------------  -----------------  -----------------  -----------------
         N            1.771831944452    -0.971406180208    -0.385628723974    14.003074004430
         C            1.002537944452     0.095425819792     0.027868276026    12.000000000000
         C           -0.456251055548     0.042454819792     0.019056276026    12.000000000000
         C            1.888426944452     1.089723819792     0.433677276026    12.000000000000
         C           -1.201638055548     1.197909819792    -0.269333723974    12.000000000000
         C           -1.141791055548    -1.153189180208     0.294892276026    12.000000000000
         C            3.106321944452    -0.674161180208    -0.276489723974    12.000000000000
         C            3.203874944452     0.606366819792     0.241808276026    12.000000000000
         C           -2.594979055548     1.160078819792    -0.268291723974    12.000000000000
         C           -2.535851055548    -1.193073180208     0.270313276026    12.000000000000
         C           -3.268085055548    -0.036971180208    -0.008808723974    12.000000000000
         H            1.393973944452    -1.798205180208    -0.831089723974     1.007825032230
         H            1.602135944452     2.041411819792     0.863681276026     1.007825032230
         H           -0.676761055548     2.120833819792    -0.506331723974     1.007825032230
         H           -0.580095055548    -2.045240180208     0.567538276026     1.007825032230
         H            3.864584944452    -1.325824280208    -0.715802823974     1.007825032230
         H            4.126098944452     1.124429819792     0.470648276026     1.007825032230
         H           -3.158287055548     2.063280819792    -0.491866723974     1.007825032230
         H           -3.052146055548    -2.125518180208     0.487517276026     1.007825032230
         H           -4.354859055548    -0.067184180208    -0.019238723974     1.007825032230

  Basis Set: AUG-CC-PVTZ
    Blend: AUG-CC-PVTZ
  Basis Set: (AUG-CC-PVTZ AUX)
    Blend: AUG-CC-PVTZ-JKFIT
	 Reference Energy          =    -438.5076571508940901 [Eh]
	 Singles Energy            =      -0.0000000000000000 [Eh]
	 Same-Spin Energy          =      -0.4953620426238348 [Eh]
	 Opposite-Spin Energy      =      -1.5255420237898880 [Eh]
	 Correlation Energy        =      -2.0209040664137228 [Eh]
	 Total Energy              =    -440.5285612173078107 [Eh]

	 ================> DF-SCS-MP2 Energies <==================
	-----------------------------------------------------------
	 SCS Same-Spin Scale       =       0.3333333333333333 [-]
	 SCS Opposite-Spin Scale   =       1.2000000000000000 [-]
	 SCS Same-Spin Energy      =      -0.1651206808746116 [Eh]
	 SCS Opposite-Spin Energy  =      -1.8306504285478655 [Eh]
	 SCS Correlation Energy    =      -1.9957711094224770 [Eh]
	 SCS Total Energy          =    -440.5034282603165821 [Eh]
	-----------------------------------------------------------

  Dipole Moment: [D]
     X:    -0.4593      Y:    -1.2523      Z:    -0.7629     Total:     1.5367

*** Psi4 exiting successfully. Buy a developer a beer!
