                               Psi4 1.4a2.dev612

  ==> Input File <==

--------------------------------------------------------------------------
#psi4
#
memory 32 gb

molecule  {
0 1
  N        1.7773000    -0.9706020    -0.3863220
  C        1.0080060     0.0962300     0.0271750
  C       -0.4507830     0.0432590     0.0183630
  C        1.8938950     1.0905280     0.4329840
  C       -1.1961700     1.1987140    -0.2700270
  C       -1.1363230    -1.1523850     0.2941990
  C        3.1117900    -0.6733570    -0.2771830
  C        3.2093430     0.6071710     0.2411150
  C       -2.5895110     1.1608830    -0.2689850
  C       -2.5303830    -1.1922690     0.2696200
  C       -3.2626170    -0.0361670    -0.0095020
  H        1.3994420    -1.7974010    -0.8317830
  H        1.6076040     2.0422160     0.8629880
  H       -0.6712930     2.1216380    -0.5070250
  H       -0.5746270    -2.0444360     0.5668450
  H        3.8716190    -1.3816710    -0.5776140
  H        4.1306261     1.0873292     0.5624879
  H       -3.1528190     2.0640850    -0.4925600
  H       -3.0466780    -2.1247140     0.4868240
  H       -4.3493910    -0.0663800    -0.0199320
units angstrom
no_reorient  #important for SAPT in psi4, default
symmetry c1  #important for SAPT in psi4, default
}

set PROPERTIES_ORIGIN ["COM"]
properties('MP2/aug-cc-pvtz', properties = ['dipole'])
--------------------------------------------------------------------------

    Molecular point group: c1
  Charge       = 0
  Multiplicity = 1
  Basis Set: AUG-CC-PVTZ
    Blend: AUG-CC-PVTZ
  Basis Set: (AUG-CC-PVTZ AUX)
    Blend: AUG-CC-PVTZ-JKFIT

    Orbital Energies [Eh]
    ---------------------

    Doubly Occupied:

       1A    -15.608512     2A    -11.262213     3A    -11.256814
       4A    -11.253287     5A    -11.242045     6A    -11.240728
       7A    -11.240501     8A    -11.237914     9A    -11.237645
      10A    -11.214271    11A    -11.213077    12A     -1.294334
      13A     -1.156173    14A     -1.048983    15A     -1.042922
      16A     -1.016792    17A     -0.959272    18A     -0.837899
      19A     -0.832210    20A     -0.788302    21A     -0.764797
      22A     -0.735326    23A     -0.679885    24A     -0.633280
      25A     -0.629655    26A     -0.593468    27A     -0.589386
      28A     -0.582979    29A     -0.569680    30A     -0.547648
      31A     -0.536899    32A     -0.504568    33A     -0.500961
      34A     -0.494301    35A     -0.363564    36A     -0.350502
      37A     -0.341353    38A     -0.273277

  @DF-RHF Final Energy:  -438.50826343867908

   => Energetics <=

    Nuclear Repulsion Energy =            536.8113646380704722
    One-Electron Energy =               -1657.2884122829100306
    Two-Electron Energy =                 681.9687842061604215
    Total Energy =                       -438.5082634386791369
  Basis Set: (AUG-CC-PVTZ AUX)
    Blend: AUG-CC-PVTZ-RI
    Molecular point group: c1

    Geometry (in Angstrom), charge = 0, multiplicity = 1:

       Center              X                  Y                   Z               Mass
    ------------   -----------------  -----------------  -----------------  -----------------
         N            1.771827541181    -0.970740119743    -0.387258835987    14.003074004430
         C            1.002533541181     0.096091880257     0.026238164013    12.000000000000
         C           -0.456255458819     0.043120880257     0.017426164013    12.000000000000
         C            1.888422541181     1.090389880257     0.432047164013    12.000000000000
         C           -1.201642458819     1.198575880257    -0.270963835987    12.000000000000
         C           -1.141795458819    -1.152523119743     0.293262164013    12.000000000000
         C            3.106317541181    -0.673495119743    -0.278119835987    12.000000000000
         C            3.203870541181     0.607032880257     0.240178164013    12.000000000000
         C           -2.594983458819     1.160744880257    -0.269921835987    12.000000000000
         C           -2.535855458819    -1.192407119743     0.268683164013    12.000000000000
         C           -3.268089458819    -0.036305119743    -0.010438835987    12.000000000000
         H            1.393969541181    -1.797539119743    -0.832719835987     1.007825032230
         H            1.602131541181     2.042077880257     0.862051164013     1.007825032230
         H           -0.676765458819     2.121499880257    -0.507961835987     1.007825032230
         H           -0.580099458819    -2.044574119743     0.565908164013     1.007825032230
         H            3.866146541181    -1.381809119743    -0.578550835987     1.007825032230
         H            4.125153641181     1.087191080257     0.561551064013     1.007825032230
         H           -3.158291458819     2.063946880257    -0.493496835987     1.007825032230
         H           -3.052150458819    -2.124852119743     0.485887164013     1.007825032230
         H           -4.354863458819    -0.066518119743    -0.020868835987     1.007825032230

  Basis Set: AUG-CC-PVTZ
    Blend: AUG-CC-PVTZ
  Basis Set: (AUG-CC-PVTZ AUX)
    Blend: AUG-CC-PVTZ-JKFIT
	 Reference Energy          =    -438.5082634386790801 [Eh]
	 Singles Energy            =      -0.0000000000000000 [Eh]
	 Same-Spin Energy          =      -0.4952979721160442 [Eh]
	 Opposite-Spin Energy      =      -1.5254285504610785 [Eh]
	 Correlation Energy        =      -2.0207265225771227 [Eh]
	 Total Energy              =    -440.5289899612562294 [Eh]

	 ================> DF-SCS-MP2 Energies <==================
	-----------------------------------------------------------
	 SCS Same-Spin Scale       =       0.3333333333333333 [-]
	 SCS Opposite-Spin Scale   =       1.2000000000000000 [-]
	 SCS Same-Spin Energy      =      -0.1650993240386814 [Eh]
	 SCS Opposite-Spin Energy  =      -1.8305142605532940 [Eh]
	 SCS Correlation Energy    =      -1.9956135845919754 [Eh]
	 SCS Total Energy          =    -440.5038770232710590 [Eh]
	-----------------------------------------------------------

  Dipole Moment: [D]
     X:    -0.4583      Y:    -1.3530      Z:    -0.5765     Total:     1.5405

*** Psi4 exiting successfully. Buy a developer a beer!
