                               Psi4 1.4a2.dev612

  ==> Input File <==

--------------------------------------------------------------------------
#psi4
#
memory 32 gb

molecule  {
0 1
  N        1.7773000    -0.9706020    -0.3863220
  C        1.0080060     0.0962300     0.0271750
  C       -0.4507830     0.0432590     0.0183630
  C        1.8938950     1.0905280     0.4329840
  C       -1.1961700     1.1987140    -0.2700270
  C       -1.1363230    -1.1523850     0.2941990
  C        3.1117900    -0.6733570    -0.2771830
  C        3.2093430     0.6071710     0.2411150
  C       -2.5895110     1.1608830    -0.2689850
  C       -2.5303830    -1.1922690     0.2696200
  C       -3.2626170    -0.0361670    -0.0095020
  H        1.3994420    -1.7974010    -0.8317830
  H        1.6076040     2.0422160     0.8629880
  H       -0.6705980     2.0481840    -0.7978927
  H       -0.5746270    -2.0444360     0.5668450
  H        3.8716190    -1.3816710    -0.5776140
  H        4.1315670     1.1252340     0.4699550
  H       -3.1528190     2.0640850    -0.4925600
  H       -3.0466780    -2.1247140     0.4868240
  H       -4.3493910    -0.0663800    -0.0199320
units angstrom
no_reorient  #important for SAPT in psi4, default
symmetry c1  #important for SAPT in psi4, default
}

set PROPERTIES_ORIGIN ["COM"]
properties('MP2/aug-cc-pvtz', properties = ['dipole'])
--------------------------------------------------------------------------

    Molecular point group: c1
  Charge       = 0
  Multiplicity = 1
  Basis Set: AUG-CC-PVTZ
    Blend: AUG-CC-PVTZ
  Basis Set: (AUG-CC-PVTZ AUX)
    Blend: AUG-CC-PVTZ-JKFIT

    Orbital Energies [Eh]
    ---------------------

    Doubly Occupied:

       1A    -15.608143     2A    -11.261711     3A    -11.256916
       4A    -11.253661     5A    -11.242792     6A    -11.241859
       7A    -11.240664     8A    -11.240621     9A    -11.238003
      10A    -11.213818    11A    -11.212734    12A     -1.294127
      13A     -1.156229    14A     -1.048774    15A     -1.042927
      16A     -1.016106    17A     -0.959110    18A     -0.837658
      19A     -0.830197    20A     -0.788558    21A     -0.764680
      22A     -0.734443    23A     -0.677235    24A     -0.632057
      25A     -0.629496    26A     -0.592195    27A     -0.588804
      28A     -0.580662    29A     -0.568995    30A     -0.549466
      31A     -0.537513    32A     -0.504663    33A     -0.502046
      34A     -0.488039    35A     -0.363167    36A     -0.350143
      37A     -0.340776    38A     -0.273733

  @DF-RHF Final Energy:  -438.50241971048968

   => Energetics <=

    Nuclear Repulsion Energy =            536.6426449133400638
    One-Electron Energy =               -1656.9646865045140203
    Two-Electron Energy =                 681.8196218806842808
    Total Energy =                       -438.5024197104896757
  Basis Set: (AUG-CC-PVTZ AUX)
    Blend: AUG-CC-PVTZ-RI
    Molecular point group: c1

    Geometry (in Angstrom), charge = 0, multiplicity = 1:

       Center              X                  Y                   Z               Mass
    ------------   -----------------  -----------------  -----------------  -----------------
         N            1.771816017726    -0.970489707376    -0.384558121152    14.003074004430
         C            1.002522017726     0.096342292624     0.028938878848    12.000000000000
         C           -0.456266982274     0.043371292624     0.020126878848    12.000000000000
         C            1.888411017726     1.090640292624     0.434747878848    12.000000000000
         C           -1.201653982274     1.198826292624    -0.268263121152    12.000000000000
         C           -1.141806982274    -1.152272707376     0.295962878848    12.000000000000
         C            3.106306017726    -0.673244707376    -0.275419121152    12.000000000000
         C            3.203859017726     0.607283292624     0.242878878848    12.000000000000
         C           -2.594994982274     1.160995292624    -0.267221121152    12.000000000000
         C           -2.535866982274    -1.192156707376     0.271383878848    12.000000000000
         C           -3.268100982274    -0.036054707376    -0.007738121152    12.000000000000
         H            1.393958017726    -1.797288707376    -0.830019121152     1.007825032230
         H            1.602120017726     2.042328292624     0.864751878848     1.007825032230
         H           -0.676081982274     2.048296292624    -0.796128821152     1.007825032230
         H           -0.580110982274    -2.044323707376     0.568608878848     1.007825032230
         H            3.866135017726    -1.381558707376    -0.575850121152     1.007825032230
         H            4.126083017726     1.125346292624     0.471718878848     1.007825032230
         H           -3.158302982274     2.064197292624    -0.490796121152     1.007825032230
         H           -3.052161982274    -2.124601707376     0.488587878848     1.007825032230
         H           -4.354874982274    -0.066267707376    -0.018168121152     1.007825032230

  Basis Set: AUG-CC-PVTZ
    Blend: AUG-CC-PVTZ
  Basis Set: (AUG-CC-PVTZ AUX)
    Blend: AUG-CC-PVTZ-JKFIT
	 Reference Energy          =    -438.5024197104896757 [Eh]
	 Singles Energy            =      -0.0000000000000000 [Eh]
	 Same-Spin Energy          =      -0.4956298454853201 [Eh]
	 Opposite-Spin Energy      =      -1.5260753846379560 [Eh]
	 Correlation Energy        =      -2.0217052301232759 [Eh]
	 Total Energy              =    -440.5241249406129782 [Eh]

	 ================> DF-SCS-MP2 Energies <==================
	-----------------------------------------------------------
	 SCS Same-Spin Scale       =       0.3333333333333333 [-]
	 SCS Opposite-Spin Scale   =       1.2000000000000000 [-]
	 SCS Same-Spin Energy      =      -0.1652099484951067 [Eh]
	 SCS Opposite-Spin Energy  =      -1.8312904615655472 [Eh]
	 SCS Correlation Energy    =      -1.9965004100606538 [Eh]
	 SCS Total Energy          =    -440.4989201205503377 [Eh]
	-----------------------------------------------------------

  Dipole Moment: [D]
     X:    -0.4782      Y:    -1.4160      Z:    -0.7985     Total:     1.6945

*** Psi4 exiting successfully. Buy a developer a beer!
