                               Psi4 1.4a2.dev612

  ==> Input File <==

--------------------------------------------------------------------------
#psi4
#
memory 32 gb

molecule  {
0 1
  N        1.7773000    -0.9706020    -0.3863220
  C        1.0080060     0.0962300     0.0271750
  C       -0.4507830     0.0432590     0.0183630
  C        1.8936911     1.2013549     0.1542057
  C       -1.1961700     1.1987140    -0.2700270
  C       -1.1363230    -1.1523850     0.2941990
  C        3.1117900    -0.6733570    -0.2771830
  C        3.2093430     0.6071710     0.2411150
  C       -2.5895110     1.1608830    -0.2689850
  C       -2.5303830    -1.1922690     0.2696200
  C       -3.2626170    -0.0361670    -0.0095020
  H        1.3994420    -1.7974010    -0.8317830
  H        1.6076040     2.0422160     0.8629880
  H       -0.6712930     2.1216380    -0.5070250
  H       -0.5746270    -2.0444360     0.5668450
  H        3.8716190    -1.3816710    -0.5776140
  H        4.1315670     1.1252340     0.4699550
  H       -3.1528190     2.0640850    -0.4925600
  H       -3.0466780    -2.1247140     0.4868240
  H       -4.3493910    -0.0663800    -0.0199320
units angstrom
no_reorient  #important for SAPT in psi4, default
symmetry c1  #important for SAPT in psi4, default
}

set PROPERTIES_ORIGIN ["COM"]
properties('MP2/aug-cc-pvtz', properties = ['dipole'])
--------------------------------------------------------------------------

    Molecular point group: c1
  Charge       = 0
  Multiplicity = 1
  Basis Set: AUG-CC-PVTZ
    Blend: AUG-CC-PVTZ
  Basis Set: (AUG-CC-PVTZ AUX)
    Blend: AUG-CC-PVTZ-JKFIT

    Orbital Energies [Eh]
    ---------------------

    Doubly Occupied:

       1A    -15.612075     2A    -11.273520     3A    -11.257593
       4A    -11.254767     5A    -11.243411     6A    -11.242222
       7A    -11.241529     8A    -11.239160     9A    -11.238779
      10A    -11.220690    11A    -11.218656    12A     -1.296025
      13A     -1.157640    14A     -1.049438    15A     -1.039125
      16A     -1.017578    17A     -0.958868    18A     -0.838575
      19A     -0.833560    20A     -0.785571    21A     -0.761207
      22A     -0.735768    23A     -0.680238    24A     -0.633659
      25A     -0.630670    26A     -0.595221    27A     -0.591292
      28A     -0.583305    29A     -0.564805    30A     -0.540020
      31A     -0.517117    32A     -0.505262    33A     -0.502179
      34A     -0.493344    35A     -0.368006    36A     -0.350351
      37A     -0.342370    38A     -0.271726

  @DF-RHF Final Energy:  -438.48281100544523

   => Energetics <=

    Nuclear Repulsion Energy =            535.9090431225836255
    One-Electron Energy =               -1655.4130630751958506
    Two-Electron Energy =                 681.0212089471669969
    Total Energy =                       -438.4828110054452281
  Basis Set: (AUG-CC-PVTZ AUX)
    Blend: AUG-CC-PVTZ-RI
    Molecular point group: c1

    Geometry (in Angstrom), charge = 0, multiplicity = 1:

       Center              X                  Y                   Z               Mass
    ------------   -----------------  -----------------  -----------------  -----------------
         N            1.771838015080    -0.980302506999    -0.363225059013    14.003074004430
         C            1.002544015080     0.086529493001     0.050271940987    12.000000000000
         C           -0.456244984920     0.033558493001     0.041459940987    12.000000000000
         C            1.888229115080     1.191654393001     0.177302640987    12.000000000000
         C           -1.201631984920     1.189013493001    -0.246930059013    12.000000000000
         C           -1.141784984920    -1.162085506999     0.317295940987    12.000000000000
         C            3.106328015080    -0.683057506999    -0.254086059013    12.000000000000
         C            3.203881015080     0.597470493001     0.264211940987    12.000000000000
         C           -2.594972984920     1.151182493001    -0.245888059013    12.000000000000
         C           -2.535844984920    -1.201969506999     0.292716940987    12.000000000000
         C           -3.268078984920    -0.045867506999     0.013594940987    12.000000000000
         H            1.393980015080    -1.807101506999    -0.808686059013     1.007825032230
         H            1.602142015080     2.032515493001     0.886084940987     1.007825032230
         H           -0.676754984920     2.111937493001    -0.483928059013     1.007825032230
         H           -0.580088984920    -2.054136506999     0.589941940987     1.007825032230
         H            3.866157015080    -1.391371506999    -0.554517059013     1.007825032230
         H            4.126105015080     1.115533493001     0.493051940987     1.007825032230
         H           -3.158280984920     2.054384493001    -0.469463059013     1.007825032230
         H           -3.052139984920    -2.134414506999     0.509920940987     1.007825032230
         H           -4.354852984920    -0.076080506999     0.003164940987     1.007825032230

  Basis Set: AUG-CC-PVTZ
    Blend: AUG-CC-PVTZ
  Basis Set: (AUG-CC-PVTZ AUX)
    Blend: AUG-CC-PVTZ-JKFIT
	 Reference Energy          =    -438.4828110054452281 [Eh]
	 Singles Energy            =      -0.0000000000000000 [Eh]
	 Same-Spin Energy          =      -0.4965873455905429 [Eh]
	 Opposite-Spin Energy      =      -1.5293997393239291 [Eh]
	 Correlation Energy        =      -2.0259870849144721 [Eh]
	 Total Energy              =    -440.5087980903596758 [Eh]

	 ================> DF-SCS-MP2 Energies <==================
	-----------------------------------------------------------
	 SCS Same-Spin Scale       =       0.3333333333333333 [-]
	 SCS Opposite-Spin Scale   =       1.2000000000000000 [-]
	 SCS Same-Spin Energy      =      -0.1655291151968476 [Eh]
	 SCS Opposite-Spin Energy  =      -1.8352796871887149 [Eh]
	 SCS Correlation Energy    =      -2.0008088023855626 [Eh]
	 SCS Total Energy          =    -440.4836198078307916 [Eh]
	-----------------------------------------------------------

  Dipole Moment: [D]
     X:    -0.3693      Y:    -1.6229      Z:    -0.4758     Total:     1.7311

*** Psi4 exiting successfully. Buy a developer a beer!
