                               Psi4 1.4a2.dev612

  ==> Input File <==

--------------------------------------------------------------------------
#psi4
#
memory 32 gb

molecule  {
0 1
  N        1.7773000    -0.9706020    -0.3863220
  C        1.0080060     0.0962300     0.0271750
  C       -0.4507830     0.0432590     0.0183630
  C        1.8938950     1.0905280     0.4329840
  C       -1.1961700     1.1987140    -0.2700270
  C       -1.1377807    -1.1290867     0.3914362
  C        3.1117900    -0.6733570    -0.2771830
  C        3.2093430     0.6071710     0.2411150
  C       -2.5895110     1.1608830    -0.2689850
  C       -2.5303830    -1.1922690     0.2696200
  C       -3.2626170    -0.0361670    -0.0095020
  H        1.3994420    -1.7974010    -0.8317830
  H        1.6076040     2.0422160     0.8629880
  H       -0.6712930     2.1216380    -0.5070250
  H       -0.5746270    -2.0444360     0.5668450
  H        3.8716190    -1.3816710    -0.5776140
  H        4.1315670     1.1252340     0.4699550
  H       -3.1528190     2.0640850    -0.4925600
  H       -3.0466780    -2.1247140     0.4868240
  H       -4.3493910    -0.0663800    -0.0199320
units angstrom
no_reorient  #important for SAPT in psi4, default
symmetry c1  #important for SAPT in psi4, default
}

set PROPERTIES_ORIGIN ["COM"]
properties('MP2/aug-cc-pvtz', properties = ['dipole'])
--------------------------------------------------------------------------

    Molecular point group: c1
  Charge       = 0
  Multiplicity = 1
  Basis Set: AUG-CC-PVTZ
    Blend: AUG-CC-PVTZ
  Basis Set: (AUG-CC-PVTZ AUX)
    Blend: AUG-CC-PVTZ-JKFIT

    Orbital Energies [Eh]
    ---------------------

    Doubly Occupied:

       1A    -15.608486     2A    -11.261986     3A    -11.256563
       4A    -11.253532     5A    -11.242568     6A    -11.241296
       7A    -11.240769     8A    -11.237978     9A    -11.237711
      10A    -11.213890    11A    -11.212778    12A     -1.294171
      13A     -1.155654    14A     -1.048872    15A     -1.042681
      16A     -1.016304    17A     -0.959129    18A     -0.837494
      19A     -0.831849    20A     -0.788633    21A     -0.765135
      22A     -0.734929    23A     -0.679796    24A     -0.633175
      25A     -0.629124    26A     -0.593255    27A     -0.588022
      28A     -0.582581    29A     -0.569612    30A     -0.549699
      31A     -0.537153    32A     -0.503367    33A     -0.501680
      34A     -0.493569    35A     -0.361790    36A     -0.350046
      37A     -0.340848    38A     -0.274475

  @DF-RHF Final Energy:  -438.50598497270835

   => Energetics <=

    Nuclear Repulsion Energy =            536.6643114930710681
    One-Electron Energy =               -1656.9993929638867485
    Two-Electron Energy =                 681.8290964981072193
    Total Energy =                       -438.5059849727083474
  Basis Set: (AUG-CC-PVTZ AUX)
    Blend: AUG-CC-PVTZ-RI
    Molecular point group: c1

    Geometry (in Angstrom), charge = 0, multiplicity = 1:

       Center              X                  Y                   Z               Mass
    ------------   -----------------  -----------------  -----------------  -----------------
         N            1.771943175016    -0.972961222937    -0.394762597566    14.003074004430
         C            1.002649175016     0.093870777063     0.018734402434    12.000000000000
         C           -0.456139824984     0.040899777063     0.009922402434    12.000000000000
         C            1.888538175016     1.088168777063     0.424543402434    12.000000000000
         C           -1.201526824984     1.196354777063    -0.278467597566    12.000000000000
         C           -1.143137524984    -1.131445922937     0.382995602434    12.000000000000
         C            3.106433175016    -0.675716222937    -0.285623597566    12.000000000000
         C            3.203986175016     0.604811777063     0.232674402434    12.000000000000
         C           -2.594867824984     1.158523777063    -0.277425597566    12.000000000000
         C           -2.535739824984    -1.194628222937     0.261179402434    12.000000000000
         C           -3.267973824984    -0.038526222937    -0.017942597566    12.000000000000
         H            1.394085175016    -1.799760222937    -0.840223597566     1.007825032230
         H            1.602247175016     2.039856777063     0.854547402434     1.007825032230
         H           -0.676649824984     2.119278777063    -0.515465597566     1.007825032230
         H           -0.579983824984    -2.046795222937     0.558404402434     1.007825032230
         H            3.866262175016    -1.384030222937    -0.586054597566     1.007825032230
         H            4.126210175016     1.122874777063     0.461514402434     1.007825032230
         H           -3.158175824984     2.061725777063    -0.501000597566     1.007825032230
         H           -3.052034824984    -2.127073222937     0.478383402434     1.007825032230
         H           -4.354747824984    -0.068739222937    -0.028372597566     1.007825032230

  Basis Set: AUG-CC-PVTZ
    Blend: AUG-CC-PVTZ
  Basis Set: (AUG-CC-PVTZ AUX)
    Blend: AUG-CC-PVTZ-JKFIT
	 Reference Energy          =    -438.5059849727083474 [Eh]
	 Singles Energy            =      -0.0000000000000000 [Eh]
	 Same-Spin Energy          =      -0.4953452692109360 [Eh]
	 Opposite-Spin Energy      =      -1.5256302645381210 [Eh]
	 Correlation Energy        =      -2.0209755337490569 [Eh]
	 Total Energy              =    -440.5269605064573852 [Eh]

	 ================> DF-SCS-MP2 Energies <==================
	-----------------------------------------------------------
	 SCS Same-Spin Scale       =       0.3333333333333333 [-]
	 SCS Opposite-Spin Scale   =       1.2000000000000000 [-]
	 SCS Same-Spin Energy      =      -0.1651150897369787 [Eh]
	 SCS Opposite-Spin Energy  =      -1.8307563174457451 [Eh]
	 SCS Correlation Energy    =      -1.9958714071827237 [Eh]
	 SCS Total Energy          =    -440.5018563798910805 [Eh]
	-----------------------------------------------------------

  Dipole Moment: [D]
     X:    -0.4580      Y:    -1.3258      Z:    -0.7059     Total:     1.5702

*** Psi4 exiting successfully. Buy a developer a beer!
