                               Psi4 1.3.2 release

  ==> Input File <==

--------------------------------------------------------------------------
#psi4
#
memory 32 gb

molecule  {
0 1
  C       -0.6072840     0.2987500    -0.0000130
  C        0.6072830    -0.2987480    -0.0000050
  C       -1.8649420    -0.4253110    -0.0000010
  C        1.8649420     0.4253110    -0.0000100
  C       -3.0721310     0.1700370    -0.0000030
  C        3.0721310    -0.1700390     0.0000280
  H       -0.6626242     1.3889243    -0.2500290
  H        0.6626240    -1.3889260     0.0000110
  H       -1.8062860    -1.5139730     0.0000120
  H        1.8062890     1.5139730    -0.0000480
  H       -3.9914240    -0.4056610     0.0000080
  H       -3.1700740     1.2522570    -0.0000140
  H        3.9914220     0.4056620     0.0000210
  H        3.1700710    -1.2522590     0.0000620
units angstrom
no_reorient  #important for SAPT in psi4, default
symmetry c1  #important for SAPT in psi4, default
}

set PROPERTIES_ORIGIN ["COM"]
properties('MP2/aug-cc-pvtz', properties = ['dipole'])
--------------------------------------------------------------------------

    Molecular point group: c1
  Charge       = 0
  Multiplicity = 1
  Basis Set: AUG-CC-PVTZ
    Blend: AUG-CC-PVTZ
  Basis Set: (AUG-CC-PVTZ AUX)
    Blend: AUG-CC-PVTZ-JKFIT

    Orbital Energies [Eh]
    ---------------------

    Doubly Occupied:

       1A    -11.245121     2A    -11.243768     3A    -11.243208
       4A    -11.242599     5A    -11.232628     6A    -11.231867
       7A     -1.109826     8A     -1.057765     9A     -0.982439
      10A     -0.848629    11A     -0.762895    12A     -0.757265
      13A     -0.664544    14A     -0.633266    15A     -0.600261
      16A     -0.568498    17A     -0.540742    18A     -0.516343
      19A     -0.496653    20A     -0.463618    21A     -0.396385
      22A     -0.294261

  @DF-RHF Final Energy:  -231.88808180342596

   => Energetics <=

    Nuclear Repulsion Energy =            193.5148521906271242
    One-Electron Energy =                -694.5407065952431367
    Two-Electron Energy =                 269.1377726011900222
    Total Energy =                       -231.8880818034259619
  Basis Set: (AUG-CC-PVTZ AUX)
    Blend: AUG-CC-PVTZ-RI
    Molecular point group: c1

    Geometry (in Angstrom), charge = 0, multiplicity = 1:

       Center              X                  Y                   Z               Mass
    ------------   -----------------  -----------------  -----------------  -----------------
         C           -0.607283822424     0.298750033987     0.003134300703    12.000000000000
         C            0.607283177576    -0.298747966013     0.003142300703    12.000000000000
         C           -1.864941822424    -0.425310966013     0.003146300703    12.000000000000
         C            1.864942177576     0.425311033987     0.003137300703    12.000000000000
         C           -3.072130822424     0.170037033987     0.003144300703    12.000000000000
         C            3.072131177576    -0.170038966013     0.003175300703    12.000000000000
         H           -0.662624022424     1.388924333987    -0.246881699297     1.007825032230
         H            0.662624177576    -1.388925966013     0.003158300703     1.007825032230
         H           -1.806285822424    -1.513972966013     0.003159300703     1.007825032230
         H            1.806289177576     1.513973033987     0.003099300703     1.007825032230
         H           -3.991423822424    -0.405660966013     0.003155300703     1.007825032230
         H           -3.170073822424     1.252257033987     0.003133300703     1.007825032230
         H            3.991422177576     0.405662033987     0.003168300703     1.007825032230
         H            3.170071177576    -1.252258966013     0.003209300703     1.007825032230

  Basis Set: AUG-CC-PVTZ
    Blend: AUG-CC-PVTZ
  Basis Set: (AUG-CC-PVTZ AUX)
    Blend: AUG-CC-PVTZ-JKFIT
	 Reference Energy          =    -231.8880818034259619 [Eh]
	 Singles Energy            =      -0.0000000000000000 [Eh]
	 Same-Spin Energy          =      -0.2430970433482788 [Eh]
	 Opposite-Spin Energy      =      -0.8497647248086548 [Eh]
	 Correlation Energy        =      -1.0928617681569337 [Eh]
	 Total Energy              =    -232.9809435715828840 [Eh]

	 ================> DF-SCS-MP2 Energies <==================
	-----------------------------------------------------------
	 SCS Same-Spin Scale       =       0.3333333333333333 [-]
	 SCS Opposite-Spin Scale   =       1.2000000000000000 [-]
	 SCS Same-Spin Energy      =      -0.0810323477827596 [Eh]
	 SCS Opposite-Spin Energy  =      -1.0197176697703858 [Eh]
	 SCS Correlation Energy    =      -1.1007500175531455 [Eh]
	 SCS Total Energy          =    -232.9888318209791009 [Eh]
	-----------------------------------------------------------

  Dipole Moment: [D]
     X:     0.0180      Y:    -0.0322      Z:    -0.1517     Total:     0.1562

*** Psi4 exiting successfully. Buy a developer a beer!
