                               Psi4 1.3.2 release

  ==> Input File <==

--------------------------------------------------------------------------
#psi4
#
memory 32 gb

molecule  {
0 1
  C       -0.6072840     0.2987500    -0.0000130
  C        0.6072830    -0.2987480    -0.0000050
  C       -1.8649420    -0.4253110    -0.0000010
  C        1.8649420     0.4253110    -0.0000100
  C       -3.0721310     0.1700370    -0.0000030
  C        3.0721310    -0.1700390     0.0000280
  H       -0.6626243     1.3889235    -0.3000290
  H        0.6626240    -1.3889260     0.0000110
  H       -1.8062860    -1.5139730     0.0000120
  H        1.8062890     1.5139730    -0.0000480
  H       -3.9914240    -0.4056610     0.0000080
  H       -3.1700740     1.2522570    -0.0000140
  H        3.9914220     0.4056620     0.0000210
  H        3.1700710    -1.2522590     0.0000620
units angstrom
no_reorient  #important for SAPT in psi4, default
symmetry c1  #important for SAPT in psi4, default
}

set PROPERTIES_ORIGIN ["COM"]
properties('MP2/aug-cc-pvtz', properties = ['dipole'])
--------------------------------------------------------------------------

    Molecular point group: c1
  Charge       = 0
  Multiplicity = 1
  Basis Set: AUG-CC-PVTZ
    Blend: AUG-CC-PVTZ
  Basis Set: (AUG-CC-PVTZ AUX)
    Blend: AUG-CC-PVTZ-JKFIT

    Orbital Energies [Eh]
    ---------------------

    Doubly Occupied:

       1A    -11.246095     2A    -11.243951     3A    -11.243222
       4A    -11.242974     5A    -11.232854     6A    -11.231776
       7A     -1.109724     8A     -1.057780     9A     -0.982408
      10A     -0.848549    11A     -0.762985    12A     -0.755780
      13A     -0.664403    14A     -0.632829    15A     -0.600143
      16A     -0.568275    17A     -0.540290    18A     -0.516325
      19A     -0.496999    20A     -0.462052    21A     -0.396340
      22A     -0.294338

  @DF-RHF Final Energy:  -231.88607916417982

   => Energetics <=

    Nuclear Repulsion Energy =            193.4689268766398982
    One-Electron Energy =                -694.4498225985075806
    Two-Electron Energy =                 269.0948165576878637
    Total Energy =                       -231.8860791641798187
  Basis Set: (AUG-CC-PVTZ AUX)
    Blend: AUG-CC-PVTZ-RI
    Molecular point group: c1

    Geometry (in Angstrom), charge = 0, multiplicity = 1:

       Center              X                  Y                   Z               Mass
    ------------   -----------------  -----------------  -----------------  -----------------
         C           -0.607283821165     0.298750044058     0.003763698842    12.000000000000
         C            0.607283178835    -0.298747955942     0.003771698842    12.000000000000
         C           -1.864941821165    -0.425310955942     0.003775698842    12.000000000000
         C            1.864942178835     0.425311044058     0.003766698842    12.000000000000
         C           -3.072130821165     0.170037044058     0.003773698842    12.000000000000
         C            3.072131178835    -0.170038955942     0.003804698842    12.000000000000
         H           -0.662624121165     1.388923544058    -0.296252301158     1.007825032230
         H            0.662624178835    -1.388925955942     0.003787698842     1.007825032230
         H           -1.806285821165    -1.513972955942     0.003788698842     1.007825032230
         H            1.806289178835     1.513973044058     0.003728698842     1.007825032230
         H           -3.991423821165    -0.405660955942     0.003784698842     1.007825032230
         H           -3.170073821165     1.252257044058     0.003762698842     1.007825032230
         H            3.991422178835     0.405662044058     0.003797698842     1.007825032230
         H            3.170071178835    -1.252258955942     0.003838698842     1.007825032230

  Basis Set: AUG-CC-PVTZ
    Blend: AUG-CC-PVTZ
  Basis Set: (AUG-CC-PVTZ AUX)
    Blend: AUG-CC-PVTZ-JKFIT
	 Reference Energy          =    -231.8860791641798187 [Eh]
	 Singles Energy            =      -0.0000000000000000 [Eh]
	 Same-Spin Energy          =      -0.2431879283148781 [Eh]
	 Opposite-Spin Energy      =      -0.8500001871417731 [Eh]
	 Correlation Energy        =      -1.0931881154566512 [Eh]
	 Total Energy              =    -232.9792672796364741 [Eh]

	 ================> DF-SCS-MP2 Energies <==================
	-----------------------------------------------------------
	 SCS Same-Spin Scale       =       0.3333333333333333 [-]
	 SCS Opposite-Spin Scale   =       1.2000000000000000 [-]
	 SCS Same-Spin Energy      =      -0.0810626427716260 [Eh]
	 SCS Opposite-Spin Energy  =      -1.0200002245701276 [Eh]
	 SCS Correlation Energy    =      -1.1010628673417537 [Eh]
	 SCS Total Energy          =    -232.9871420315215857 [Eh]
	-----------------------------------------------------------

  Dipole Moment: [D]
     X:     0.0254      Y:    -0.0461      Z:    -0.1806     Total:     0.1881

*** Psi4 exiting successfully. Buy a developer a beer!
