                               Psi4 1.3.2 release

  ==> Input File <==

--------------------------------------------------------------------------
#psi4
#
memory 32 gb

molecule  {
0 1
  C       -0.6072840     0.2987500    -0.0000130
  C        0.6072830    -0.2987480    -0.0000050
  C       -1.8649420    -0.4253110    -0.0000010
  C        1.8649420     0.4253110    -0.0000100
  C       -3.0721310     0.1700370    -0.0000030
  C        3.0721310    -0.1700390     0.0000280
  H       -0.6626241     1.3889265    -0.1000290
  H        0.6626240    -1.3889260     0.0000110
  H       -1.8062860    -1.5139730     0.0000120
  H        1.8062890     1.5139730    -0.0000480
  H       -3.9914240    -0.4056610     0.0000080
  H       -3.1700740     1.2522570    -0.0000140
  H        3.9914220     0.4056620     0.0000210
  H        3.1700710    -1.2522590     0.0000620
units angstrom
no_reorient  #important for SAPT in psi4, default
symmetry c1  #important for SAPT in psi4, default
}

set PROPERTIES_ORIGIN ["COM"]
properties('MP2/aug-cc-pvtz', properties = ['dipole'])
--------------------------------------------------------------------------

    Molecular point group: c1
  Charge       = 0
  Multiplicity = 1
  Basis Set: AUG-CC-PVTZ
    Blend: AUG-CC-PVTZ
  Basis Set: (AUG-CC-PVTZ AUX)
    Blend: AUG-CC-PVTZ-JKFIT

    Orbital Energies [Eh]
    ---------------------

    Doubly Occupied:

       1A    -11.243750     2A    -11.243510     3A    -11.242880
       4A    -11.241558     5A    -11.232185     6A    -11.232059
       7A     -1.110055     8A     -1.057746     9A     -0.982523
      10A     -0.848818    11A     -0.762771    12A     -0.760313
      13A     -0.664843    14A     -0.634181    15A     -0.600505
      16A     -0.568944    17A     -0.541555    18A     -0.516377
      19A     -0.495826    20A     -0.466796    21A     -0.396468
      22A     -0.294118

  @DF-RHF Final Energy:  -231.89159848162234

   => Energetics <=

    Nuclear Repulsion Energy =            193.6057301968943705
    One-Electron Energy =                -694.7190901813797836
    Two-Electron Energy =                 269.2217615028631030
    Total Energy =                       -231.8915984816223386
  Basis Set: (AUG-CC-PVTZ AUX)
    Blend: AUG-CC-PVTZ-RI
    Molecular point group: c1

    Geometry (in Angstrom), charge = 0, multiplicity = 1:

       Center              X                  Y                   Z               Mass
    ------------   -----------------  -----------------  -----------------  -----------------
         C           -0.607283823683     0.298750006294     0.001246106286    12.000000000000
         C            0.607283176317    -0.298747993706     0.001254106286    12.000000000000
         C           -1.864941823683    -0.425310993706     0.001258106286    12.000000000000
         C            1.864942176317     0.425311006294     0.001249106286    12.000000000000
         C           -3.072130823683     0.170037006294     0.001256106286    12.000000000000
         C            3.072131176317    -0.170038993706     0.001287106286    12.000000000000
         H           -0.662623923683     1.388926506294    -0.098769893714     1.007825032230
         H            0.662624176317    -1.388925993706     0.001270106286     1.007825032230
         H           -1.806285823683    -1.513972993706     0.001271106286     1.007825032230
         H            1.806289176317     1.513973006294     0.001211106286     1.007825032230
         H           -3.991423823683    -0.405660993706     0.001267106286     1.007825032230
         H           -3.170073823683     1.252257006294     0.001245106286     1.007825032230
         H            3.991422176317     0.405662006294     0.001280106286     1.007825032230
         H            3.170071176317    -1.252258993706     0.001321106286     1.007825032230

  Basis Set: AUG-CC-PVTZ
    Blend: AUG-CC-PVTZ
  Basis Set: (AUG-CC-PVTZ AUX)
    Blend: AUG-CC-PVTZ-JKFIT
	 Reference Energy          =    -231.8915984816223386 [Eh]
	 Singles Energy            =      -0.0000000000000000 [Eh]
	 Same-Spin Energy          =      -0.2429185061084435 [Eh]
	 Opposite-Spin Energy      =      -0.8493476473547728 [Eh]
	 Correlation Energy        =      -1.0922661534632163 [Eh]
	 Total Energy              =    -232.9838646350855527 [Eh]

	 ================> DF-SCS-MP2 Energies <==================
	-----------------------------------------------------------
	 SCS Same-Spin Scale       =       0.3333333333333333 [-]
	 SCS Opposite-Spin Scale   =       1.2000000000000000 [-]
	 SCS Same-Spin Energy      =      -0.0809728353694812 [Eh]
	 SCS Opposite-Spin Energy  =      -1.0192171768257272 [Eh]
	 SCS Correlation Energy    =      -1.1001900121952084 [Eh]
	 SCS Total Energy          =    -232.9917884938175519 [Eh]
	-----------------------------------------------------------

  Dipole Moment: [D]
     X:     0.0030      Y:    -0.0052      Z:    -0.0616     Total:     0.0619

*** Psi4 exiting successfully. Buy a developer a beer!
