                               Psi4 1.3.2 release

  ==> Input File <==

--------------------------------------------------------------------------
#psi4
#
memory 32 gb

molecule  {
0 1
  C       -0.6072840     0.2987500    -0.0000130
  C        0.6072830    -0.2987480    -0.0000050
  C       -1.8649420    -0.4253110    -0.0000010
  C        1.8649420     0.4253110    -0.0000100
  C       -3.0721310     0.1700370    -0.0000030
  C        3.0721310    -0.1700390     0.0000280
  H       -0.6626242     1.3889250    -0.2000290
  H        0.6626240    -1.3889260     0.0000110
  H       -1.8062860    -1.5139730     0.0000120
  H        1.8062890     1.5139730    -0.0000480
  H       -3.9914240    -0.4056610     0.0000080
  H       -3.1700740     1.2522570    -0.0000140
  H        3.9914220     0.4056620     0.0000210
  H        3.1700710    -1.2522590     0.0000620
units angstrom
no_reorient  #important for SAPT in psi4, default
symmetry c1  #important for SAPT in psi4, default
}

set PROPERTIES_ORIGIN ["COM"]
properties('MP2/aug-cc-pvtz', properties = ['dipole'])
--------------------------------------------------------------------------

    Molecular point group: c1
  Charge       = 0
  Multiplicity = 1
  Basis Set: AUG-CC-PVTZ
    Blend: AUG-CC-PVTZ
  Basis Set: (AUG-CC-PVTZ AUX)
    Blend: AUG-CC-PVTZ-JKFIT

    Orbital Energies [Eh]
    ---------------------

    Doubly Occupied:

       1A    -11.244394     2A    -11.243640     3A    -11.243174
       4A    -11.242209     5A    -11.232440     6A    -11.231946
       7A     -1.109918     8A     -1.057755     9A     -0.982470
      10A     -0.848703    11A     -0.762828    12A     -0.758541
      13A     -0.664667    14A     -0.633645    15A     -0.600363
      16A     -0.568686    17A     -0.541098    18A     -0.516357
      19A     -0.496329    20A     -0.464945    21A     -0.396421
      22A     -0.294198

  @DF-RHF Final Energy:  -231.88964241932001

   => Energetics <=

    Nuclear Repulsion Energy =            193.5532693234358135
    One-Electron Energy =                -694.6163708844985649
    Two-Electron Energy =                 269.1734591417427396
    Total Energy =                       -231.8896424193200119
  Basis Set: (AUG-CC-PVTZ AUX)
    Blend: AUG-CC-PVTZ-RI
    Molecular point group: c1

    Geometry (in Angstrom), charge = 0, multiplicity = 1:

       Center              X                  Y                   Z               Mass
    ------------   -----------------  -----------------  -----------------  -----------------
         C           -0.607283822424     0.298750025176     0.002504902564    12.000000000000
         C            0.607283177576    -0.298747974824     0.002512902564    12.000000000000
         C           -1.864941822424    -0.425310974824     0.002516902564    12.000000000000
         C            1.864942177576     0.425311025176     0.002507902564    12.000000000000
         C           -3.072130822424     0.170037025176     0.002514902564    12.000000000000
         C            3.072131177576    -0.170038974824     0.002545902564    12.000000000000
         H           -0.662624022424     1.388925025176    -0.197511097436     1.007825032230
         H            0.662624177576    -1.388925974824     0.002528902564     1.007825032230
         H           -1.806285822424    -1.513972974824     0.002529902564     1.007825032230
         H            1.806289177576     1.513973025176     0.002469902564     1.007825032230
         H           -3.991423822424    -0.405660974824     0.002525902564     1.007825032230
         H           -3.170073822424     1.252257025176     0.002503902564     1.007825032230
         H            3.991422177576     0.405662025176     0.002538902564     1.007825032230
         H            3.170071177576    -1.252258974824     0.002579902564     1.007825032230

  Basis Set: AUG-CC-PVTZ
    Blend: AUG-CC-PVTZ
  Basis Set: (AUG-CC-PVTZ AUX)
    Blend: AUG-CC-PVTZ-JKFIT
	 Reference Energy          =    -231.8896424193200119 [Eh]
	 Singles Energy            =      -0.0000000000000000 [Eh]
	 Same-Spin Energy          =      -0.2430213447788603 [Eh]
	 Opposite-Spin Energy      =      -0.8495779888892381 [Eh]
	 Correlation Energy        =      -1.0925993336680984 [Eh]
	 Total Energy              =    -232.9822417529881022 [Eh]

	 ================> DF-SCS-MP2 Energies <==================
	-----------------------------------------------------------
	 SCS Same-Spin Scale       =       0.3333333333333333 [-]
	 SCS Opposite-Spin Scale   =       1.2000000000000000 [-]
	 SCS Same-Spin Energy      =      -0.0810071149262867 [Eh]
	 SCS Opposite-Spin Energy  =      -1.0194935866670856 [Eh]
	 SCS Correlation Energy    =      -1.1005007015933723 [Eh]
	 SCS Total Energy          =    -232.9901431209133875 [Eh]
	-----------------------------------------------------------

  Dipole Moment: [D]
     X:     0.0117      Y:    -0.0207      Z:    -0.1222     Total:     0.1245

*** Psi4 exiting successfully. Buy a developer a beer!
