                               Psi4 1.3.2 release

  ==> Input File <==

--------------------------------------------------------------------------
#psi4
#
memory 32 gb

molecule  {
0 1
  C       -0.6072840     0.2987500    -0.0000130
  C        0.6072830    -0.2987480    -0.0000050
  C       -1.8649420    -0.4253110    -0.0000010
  C        1.8649420     0.4253110    -0.0000100
  C       -3.0721310     0.1700370    -0.0000030
  C        3.0721310    -0.1700390     0.0000280
  H       -0.6626240     1.3889280    -0.0000290
  H        0.6626240    -1.3889260     0.0000110
  H       -1.8062850    -1.5139695     0.3000120
  H        1.8062890     1.5139730    -0.0000480
  H       -3.9914240    -0.4056610     0.0000080
  H       -3.1700740     1.2522570    -0.0000140
  H        3.9914220     0.4056620     0.0000210
  H        3.1700710    -1.2522590     0.0000620
units angstrom
no_reorient  #important for SAPT in psi4, default
symmetry c1  #important for SAPT in psi4, default
}

set PROPERTIES_ORIGIN ["COM"]
properties('MP2/aug-cc-pvtz', properties = ['dipole'])
--------------------------------------------------------------------------

    Molecular point group: c1
  Charge       = 0
  Multiplicity = 1
  Basis Set: AUG-CC-PVTZ
    Blend: AUG-CC-PVTZ
  Basis Set: (AUG-CC-PVTZ AUX)
    Blend: AUG-CC-PVTZ-JKFIT

    Orbital Energies [Eh]
    ---------------------

    Doubly Occupied:

       1A    -11.247371     2A    -11.243471     3A    -11.242691
       4A    -11.241219     5A    -11.233555     6A    -11.232053
       7A     -1.109690     8A     -1.057321     9A     -0.982629
      10A     -0.848778    11A     -0.762016    12A     -0.756356
      13A     -0.662804    14A     -0.634218    15A     -0.599748
      16A     -0.568435    17A     -0.541754    18A     -0.515306
      19A     -0.496040    20A     -0.463622    21A     -0.395077
      22A     -0.294362

  @DF-RHF Final Energy:  -231.88590229372690

   => Energetics <=

    Nuclear Repulsion Energy =            193.4748765433530195
    One-Electron Energy =                -694.4645301572420522
    Two-Electron Energy =                 269.1037513201621323
    Total Energy =                       -231.8859022937268719
  Basis Set: (AUG-CC-PVTZ AUX)
    Blend: AUG-CC-PVTZ-RI
    Molecular point group: c1

    Geometry (in Angstrom), charge = 0, multiplicity = 1:

       Center              X                  Y                   Z               Mass
    ------------   -----------------  -----------------  -----------------  -----------------
         C           -0.607283837529     0.298749943354    -0.003789078827    12.000000000000
         C            0.607283162471    -0.298748056646    -0.003781078827    12.000000000000
         C           -1.864941837529    -0.425311056646    -0.003777078827    12.000000000000
         C            1.864942162471     0.425310943354    -0.003786078827    12.000000000000
         C           -3.072130837529     0.170036943354    -0.003779078827    12.000000000000
         C            3.072131162471    -0.170039056646    -0.003748078827    12.000000000000
         H           -0.662623837529     1.388927943354    -0.003805078827     1.007825032230
         H            0.662624162471    -1.388926056646    -0.003765078827     1.007825032230
         H           -1.806284837529    -1.513969556646     0.296235921173     1.007825032230
         H            1.806289162471     1.513972943354    -0.003824078827     1.007825032230
         H           -3.991423837529    -0.405661056646    -0.003768078827     1.007825032230
         H           -3.170073837529     1.252256943354    -0.003790078827     1.007825032230
         H            3.991422162471     0.405661943354    -0.003755078827     1.007825032230
         H            3.170071162471    -1.252259056646    -0.003714078827     1.007825032230

  Basis Set: AUG-CC-PVTZ
    Blend: AUG-CC-PVTZ
  Basis Set: (AUG-CC-PVTZ AUX)
    Blend: AUG-CC-PVTZ-JKFIT
	 Reference Energy          =    -231.8859022937269003 [Eh]
	 Singles Energy            =      -0.0000000000000000 [Eh]
	 Same-Spin Energy          =      -0.2431513702031949 [Eh]
	 Opposite-Spin Energy      =      -0.8499588879499158 [Eh]
	 Correlation Energy        =      -1.0931102581531107 [Eh]
	 Total Energy              =    -232.9790125518800039 [Eh]

	 ================> DF-SCS-MP2 Energies <==================
	-----------------------------------------------------------
	 SCS Same-Spin Scale       =       0.3333333333333333 [-]
	 SCS Opposite-Spin Scale   =       1.2000000000000000 [-]
	 SCS Same-Spin Energy      =      -0.0810504567343983 [Eh]
	 SCS Opposite-Spin Energy  =      -1.0199506655398989 [Eh]
	 SCS Correlation Energy    =      -1.1010011222742973 [Eh]
	 SCS Total Energy          =    -232.9869034160011836 [Eh]
	-----------------------------------------------------------

  Dipole Moment: [D]
     X:    -0.0046      Y:     0.0473      Z:     0.1885     Total:     0.1943

*** Psi4 exiting successfully. Buy a developer a beer!
