                               Psi4 1.3.2 release

  ==> Input File <==

--------------------------------------------------------------------------
#psi4
#
memory 32 gb

molecule  {
0 1
  C       -0.6072840     0.2987500    -0.0000130
  C        0.6072830    -0.2987480    -0.0000050
  C       -1.8649420    -0.4253110    -0.0000010
  C        1.8649420     0.4253110    -0.0000100
  C       -3.0721310     0.1700370    -0.0000030
  C        3.0721310    -0.1700390     0.0000280
  H       -0.6626241     1.3889258    -0.1500290
  H        0.6626240    -1.3889260     0.0000110
  H       -1.8062860    -1.5139730     0.0000120
  H        1.8062890     1.5139730    -0.0000480
  H       -3.9914240    -0.4056610     0.0000080
  H       -3.1700740     1.2522570    -0.0000140
  H        3.9914220     0.4056620     0.0000210
  H        3.1700710    -1.2522590     0.0000620
units angstrom
no_reorient  #important for SAPT in psi4, default
symmetry c1  #important for SAPT in psi4, default
}

set PROPERTIES_ORIGIN ["COM"]
properties('MP2/aug-cc-pvtz', properties = ['dipole'])
--------------------------------------------------------------------------

    Molecular point group: c1
  Charge       = 0
  Multiplicity = 1
  Basis Set: AUG-CC-PVTZ
    Blend: AUG-CC-PVTZ
  Basis Set: (AUG-CC-PVTZ AUX)
    Blend: AUG-CC-PVTZ-JKFIT

    Orbital Energies [Eh]
    ---------------------

    Doubly Occupied:

       1A    -11.243951     2A    -11.243553     3A    -11.243060
       4A    -11.241851     5A    -11.232292     6A    -11.232011
       7A     -1.109996     8A     -1.057749     9A     -0.982499
      10A     -0.848768    11A     -0.762787    12A     -0.759568
      13A     -0.664768    14A     -0.633953    15A     -0.600444
      16A     -0.568836    17A     -0.541367    18A     -0.516368
      19A     -0.496046    20A     -0.466013    21A     -0.396448
      22A     -0.294151

  @DF-RHF Final Energy:  -231.89080199003456

   => Energetics <=

    Nuclear Repulsion Energy =            193.5836949416297159
    One-Electron Energy =                -694.6760387070161187
    Two-Electron Energy =                 269.2015417753518705
    Total Energy =                       -231.8908019900345607
  Basis Set: (AUG-CC-PVTZ AUX)
    Blend: AUG-CC-PVTZ-RI
    Molecular point group: c1

    Geometry (in Angstrom), charge = 0, multiplicity = 1:

       Center              X                  Y                   Z               Mass
    ------------   -----------------  -----------------  -----------------  -----------------
         C           -0.607283823683     0.298750015106     0.001875504425    12.000000000000
         C            0.607283176317    -0.298747984894     0.001883504425    12.000000000000
         C           -1.864941823683    -0.425310984894     0.001887504425    12.000000000000
         C            1.864942176317     0.425311015106     0.001878504425    12.000000000000
         C           -3.072130823683     0.170037015106     0.001885504425    12.000000000000
         C            3.072131176317    -0.170038984894     0.001916504425    12.000000000000
         H           -0.662623923683     1.388925815106    -0.148140495575     1.007825032230
         H            0.662624176317    -1.388925984894     0.001899504425     1.007825032230
         H           -1.806285823683    -1.513972984894     0.001900504425     1.007825032230
         H            1.806289176317     1.513973015106     0.001840504425     1.007825032230
         H           -3.991423823683    -0.405660984894     0.001896504425     1.007825032230
         H           -3.170073823683     1.252257015106     0.001874504425     1.007825032230
         H            3.991422176317     0.405662015106     0.001909504425     1.007825032230
         H            3.170071176317    -1.252258984894     0.001950504425     1.007825032230

  Basis Set: AUG-CC-PVTZ
    Blend: AUG-CC-PVTZ
  Basis Set: (AUG-CC-PVTZ AUX)
    Blend: AUG-CC-PVTZ-JKFIT
	 Reference Energy          =    -231.8908019900345607 [Eh]
	 Singles Energy            =      -0.0000000000000000 [Eh]
	 Same-Spin Energy          =      -0.2429616226086134 [Eh]
	 Opposite-Spin Energy      =      -0.8494396513490818 [Eh]
	 Correlation Energy        =      -1.0924012739576954 [Eh]
	 Total Energy              =    -232.9832032639922659 [Eh]

	 ================> DF-SCS-MP2 Energies <==================
	-----------------------------------------------------------
	 SCS Same-Spin Scale       =       0.3333333333333333 [-]
	 SCS Opposite-Spin Scale   =       1.2000000000000000 [-]
	 SCS Same-Spin Energy      =      -0.0809872075362045 [Eh]
	 SCS Opposite-Spin Energy  =      -1.0193275816188982 [Eh]
	 SCS Correlation Energy    =      -1.1003147891551026 [Eh]
	 SCS Total Energy          =    -232.9911167791896673 [Eh]
	-----------------------------------------------------------

  Dipole Moment: [D]
     X:     0.0067      Y:    -0.0117      Z:    -0.0921     Total:     0.0931

*** Psi4 exiting successfully. Buy a developer a beer!
