                               Psi4 1.3.2 release

  ==> Input File <==

--------------------------------------------------------------------------
#psi4
#
memory 32 gb

molecule  {
0 1
  C       -0.6072840     0.2987500    -0.0000130
  C        0.6072830    -0.2987480    -0.0000050
  C       -1.8649420    -0.4253110    -0.0000010
  C        1.8649420     0.4253110    -0.0000100
  C       -3.0721310     0.1700370    -0.0000030
  C        3.0721310    -0.1700390     0.0000280
  H       -0.6626240     1.3889280    -0.0000290
  H        0.6626240    -1.3889260     0.0000110
  H       -1.8062853    -1.5139707     0.2000120
  H        1.8062890     1.5139730    -0.0000480
  H       -3.9914240    -0.4056610     0.0000080
  H       -3.1700740     1.2522570    -0.0000140
  H        3.9914220     0.4056620     0.0000210
  H        3.1700710    -1.2522590     0.0000620
units angstrom
no_reorient  #important for SAPT in psi4, default
symmetry c1  #important for SAPT in psi4, default
}

set PROPERTIES_ORIGIN ["COM"]
properties('MP2/aug-cc-pvtz', properties = ['dipole'])
--------------------------------------------------------------------------

    Molecular point group: c1
  Charge       = 0
  Multiplicity = 1
  Basis Set: AUG-CC-PVTZ
    Blend: AUG-CC-PVTZ
  Basis Set: (AUG-CC-PVTZ AUX)
    Blend: AUG-CC-PVTZ-JKFIT

    Orbital Energies [Eh]
    ---------------------

    Doubly Occupied:

       1A    -11.245238     2A    -11.243523     3A    -11.242713
       4A    -11.241261     5A    -11.232751     6A    -11.232073
       7A     -1.109905     8A     -1.057539     9A     -0.982573
      10A     -0.848810    11A     -0.762178    12A     -0.759001
      13A     -0.663935    14A     -0.634290    15A     -0.600179
      16A     -0.568769    17A     -0.541717    18A     -0.515932
      19A     -0.495852    20A     -0.465681    21A     -0.395850
      22A     -0.294210

  @DF-RHF Final Energy:  -231.88956395010649

   => Energetics <=

    Nuclear Repulsion Energy =            193.5559202721646841
    One-Electron Energy =                -694.6230072421768682
    Two-Electron Energy =                 269.1775230199056637
    Total Energy =                       -231.8895639501064920
  Basis Set: (AUG-CC-PVTZ AUX)
    Blend: AUG-CC-PVTZ-RI
    Molecular point group: c1

    Geometry (in Angstrom), charge = 0, multiplicity = 1:

       Center              X                  Y                   Z               Mass
    ------------   -----------------  -----------------  -----------------  -----------------
         C           -0.607283833753     0.298749958460    -0.002530282549    12.000000000000
         C            0.607283166247    -0.298748041540    -0.002522282549    12.000000000000
         C           -1.864941833753    -0.425311041540    -0.002518282549    12.000000000000
         C            1.864942166247     0.425310958460    -0.002527282549    12.000000000000
         C           -3.072130833753     0.170036958460    -0.002520282549    12.000000000000
         C            3.072131166247    -0.170039041540    -0.002489282549    12.000000000000
         H           -0.662623833753     1.388927958460    -0.002546282549     1.007825032230
         H            0.662624166247    -1.388926041540    -0.002506282549     1.007825032230
         H           -1.806285133753    -1.513970741540     0.197494717451     1.007825032230
         H            1.806289166247     1.513972958460    -0.002565282549     1.007825032230
         H           -3.991423833753    -0.405661041540    -0.002509282549     1.007825032230
         H           -3.170073833753     1.252256958460    -0.002531282549     1.007825032230
         H            3.991422166247     0.405661958460    -0.002496282549     1.007825032230
         H            3.170071166247    -1.252259041540    -0.002455282549     1.007825032230

  Basis Set: AUG-CC-PVTZ
    Blend: AUG-CC-PVTZ
  Basis Set: (AUG-CC-PVTZ AUX)
    Blend: AUG-CC-PVTZ-JKFIT
	 Reference Energy          =    -231.8895639501064920 [Eh]
	 Singles Energy            =      -0.0000000000000000 [Eh]
	 Same-Spin Energy          =      -0.2430040104187771 [Eh]
	 Opposite-Spin Energy      =      -0.8495476892832675 [Eh]
	 Correlation Energy        =      -1.0925516997020446 [Eh]
	 Total Energy              =    -232.9821156498085486 [Eh]

	 ================> DF-SCS-MP2 Energies <==================
	-----------------------------------------------------------
	 SCS Same-Spin Scale       =       0.3333333333333333 [-]
	 SCS Opposite-Spin Scale   =       1.2000000000000000 [-]
	 SCS Same-Spin Energy      =      -0.0810013368062590 [Eh]
	 SCS Opposite-Spin Energy  =      -1.0194572271399209 [Eh]
	 SCS Correlation Energy    =      -1.1004585639461799 [Eh]
	 SCS Total Energy          =    -232.9900225140526686 [Eh]
	-----------------------------------------------------------

  Dipole Moment: [D]
     X:    -0.0022      Y:     0.0213      Z:     0.1275     Total:     0.1293

*** Psi4 exiting successfully. Buy a developer a beer!
