                               Psi4 1.3.2 release

  ==> Input File <==

--------------------------------------------------------------------------
#psi4
#
memory 32 gb

molecule  {
0 1
  C       -0.6072840     0.2987500    -0.0000130
  C        0.6072830    -0.2987480    -0.0000050
  C       -1.8649420    -0.4253110    -0.0000010
  C        1.8649420     0.4253110    -0.0000100
  C       -3.0721310     0.1700370    -0.0000030
  C        3.0721310    -0.1700390     0.0000280
  H       -0.6626240     1.3889280    -0.0000290
  H        0.6626240    -1.3889260     0.0000110
  H       -1.8062857    -1.5139718     0.1000120
  H        1.8062890     1.5139730    -0.0000480
  H       -3.9914240    -0.4056610     0.0000080
  H       -3.1700740     1.2522570    -0.0000140
  H        3.9914220     0.4056620     0.0000210
  H        3.1700710    -1.2522590     0.0000620
units angstrom
no_reorient  #important for SAPT in psi4, default
symmetry c1  #important for SAPT in psi4, default
}

set PROPERTIES_ORIGIN ["COM"]
properties('MP2/aug-cc-pvtz', properties = ['dipole'])
--------------------------------------------------------------------------

    Molecular point group: c1
  Charge       = 0
  Multiplicity = 1
  Basis Set: AUG-CC-PVTZ
    Blend: AUG-CC-PVTZ
  Basis Set: (AUG-CC-PVTZ AUX)
    Blend: AUG-CC-PVTZ-JKFIT

    Orbital Energies [Eh]
    ---------------------

    Doubly Occupied:

       1A    -11.243974     2A    -11.243551     3A    -11.242710
       4A    -11.241290     5A    -11.232263     6A    -11.232092
       7A     -1.110053     8A     -1.057689     9A     -0.982549
      10A     -0.848846    11A     -0.762524    12A     -0.760511
      13A     -0.664657    14A     -0.634346    15A     -0.600458
      16A     -0.568966    17A     -0.541704    18A     -0.516275
      19A     -0.495698    20A     -0.466987    21A     -0.396323
      22A     -0.294121

  @DF-RHF Final Energy:  -231.89157905200264

   => Energetics <=

    Nuclear Repulsion Energy =            193.6063942426521010
    One-Electron Energy =                -694.7207741741488007
    Two-Electron Energy =                 269.2228008794940592
    Total Energy =                       -231.8915790520026690
  Basis Set: (AUG-CC-PVTZ AUX)
    Blend: AUG-CC-PVTZ-RI
    Molecular point group: c1

    Geometry (in Angstrom), charge = 0, multiplicity = 1:

       Center              X                  Y                   Z               Mass
    ------------   -----------------  -----------------  -----------------  -----------------
         C           -0.607283828718     0.298749972306    -0.001271486270    12.000000000000
         C            0.607283171282    -0.298748027694    -0.001263486270    12.000000000000
         C           -1.864941828718    -0.425311027694    -0.001259486270    12.000000000000
         C            1.864942171282     0.425310972306    -0.001268486270    12.000000000000
         C           -3.072130828718     0.170036972306    -0.001261486270    12.000000000000
         C            3.072131171282    -0.170039027694    -0.001230486270    12.000000000000
         H           -0.662623828718     1.388927972306    -0.001287486270     1.007825032230
         H            0.662624171282    -1.388926027694    -0.001247486270     1.007825032230
         H           -1.806285528718    -1.513971827694     0.098753513730     1.007825032230
         H            1.806289171282     1.513972972306    -0.001306486270     1.007825032230
         H           -3.991423828718    -0.405661027694    -0.001250486270     1.007825032230
         H           -3.170073828718     1.252256972306    -0.001272486270     1.007825032230
         H            3.991422171282     0.405661972306    -0.001237486270     1.007825032230
         H            3.170071171282    -1.252259027694    -0.001196486270     1.007825032230

  Basis Set: AUG-CC-PVTZ
    Blend: AUG-CC-PVTZ
  Basis Set: (AUG-CC-PVTZ AUX)
    Blend: AUG-CC-PVTZ-JKFIT
	 Reference Energy          =    -231.8915790520026405 [Eh]
	 Singles Energy            =      -0.0000000000000000 [Eh]
	 Same-Spin Energy          =      -0.2429138548884113 [Eh]
	 Opposite-Spin Energy      =      -0.8493342588941174 [Eh]
	 Correlation Energy        =      -1.0922481137825288 [Eh]
	 Total Energy              =    -232.9838271657851578 [Eh]

	 ================> DF-SCS-MP2 Energies <==================
	-----------------------------------------------------------
	 SCS Same-Spin Scale       =       0.3333333333333333 [-]
	 SCS Opposite-Spin Scale   =       1.2000000000000000 [-]
	 SCS Same-Spin Energy      =      -0.0809712849628038 [Eh]
	 SCS Opposite-Spin Energy  =      -1.0192011106729408 [Eh]
	 SCS Correlation Energy    =      -1.1001723956357445 [Eh]
	 SCS Total Energy          =    -232.9917514476383928 [Eh]
	-----------------------------------------------------------

  Dipole Moment: [D]
     X:    -0.0006      Y:     0.0054      Z:     0.0643     Total:     0.0646

*** Psi4 exiting successfully. Buy a developer a beer!
