                               Psi4 1.3.2 release

  ==> Input File <==

--------------------------------------------------------------------------
#psi4
#
memory 32 gb

molecule  {
0 1
  C       -0.6072840     0.2987500    -0.0000130
  C        0.6072830    -0.2987480    -0.0000050
  C       -1.8649420    -0.4253110    -0.0000010
  C        1.8649420     0.4253110    -0.0000100
  C       -3.0721310     0.1700370    -0.0000030
  C        3.0721310    -0.1700390     0.0000280
  H       -0.6626240     1.3889280    -0.0000290
  H        0.6626240    -1.3889260     0.0000110
  H       -1.8062855    -1.5139713     0.1500120
  H        1.8062890     1.5139730    -0.0000480
  H       -3.9914240    -0.4056610     0.0000080
  H       -3.1700740     1.2522570    -0.0000140
  H        3.9914220     0.4056620     0.0000210
  H        3.1700710    -1.2522590     0.0000620
units angstrom
no_reorient  #important for SAPT in psi4, default
symmetry c1  #important for SAPT in psi4, default
}

set PROPERTIES_ORIGIN ["COM"]
properties('MP2/aug-cc-pvtz', properties = ['dipole'])
--------------------------------------------------------------------------

    Molecular point group: c1
  Charge       = 0
  Multiplicity = 1
  Basis Set: AUG-CC-PVTZ
    Blend: AUG-CC-PVTZ
  Basis Set: (AUG-CC-PVTZ AUX)
    Blend: AUG-CC-PVTZ-JKFIT

    Orbital Energies [Eh]
    ---------------------

    Doubly Occupied:

       1A    -11.244491     2A    -11.243542     3A    -11.242717
       4A    -11.241278     5A    -11.232466     6A    -11.232083
       7A     -1.109989     8A     -1.057624     9A     -0.982558
      10A     -0.848829    11A     -0.762327    12A     -0.759917
      13A     -0.664352    14A     -0.634321    15A     -0.600340
      16A     -0.568884    17A     -0.541708    18A     -0.516135
      19A     -0.495766    20A     -0.466436    21A     -0.396125
      22A     -0.294158

  @DF-RHF Final Energy:  -231.89075804048133

   => Energetics <=

    Nuclear Repulsion Energy =            193.5851875306544514
    One-Electron Energy =                -694.6798001489172520
    Two-Electron Energy =                 269.2038545777814420
    Total Energy =                       -231.8907580404813302
  Basis Set: (AUG-CC-PVTZ AUX)
    Blend: AUG-CC-PVTZ-RI
    Molecular point group: c1

    Geometry (in Angstrom), charge = 0, multiplicity = 1:

       Center              X                  Y                   Z               Mass
    ------------   -----------------  -----------------  -----------------  -----------------
         C           -0.607283831235     0.298749966013    -0.001900884409    12.000000000000
         C            0.607283168765    -0.298748033987    -0.001892884409    12.000000000000
         C           -1.864941831235    -0.425311033987    -0.001888884409    12.000000000000
         C            1.864942168765     0.425310966013    -0.001897884409    12.000000000000
         C           -3.072130831235     0.170036966013    -0.001890884409    12.000000000000
         C            3.072131168765    -0.170039033987    -0.001859884409    12.000000000000
         H           -0.662623831235     1.388927966013    -0.001916884409     1.007825032230
         H            0.662624168765    -1.388926033987    -0.001876884409     1.007825032230
         H           -1.806285331235    -1.513971333987     0.148124115591     1.007825032230
         H            1.806289168765     1.513972966013    -0.001935884409     1.007825032230
         H           -3.991423831235    -0.405661033987    -0.001879884409     1.007825032230
         H           -3.170073831235     1.252256966013    -0.001901884409     1.007825032230
         H            3.991422168765     0.405661966013    -0.001866884409     1.007825032230
         H            3.170071168765    -1.252259033987    -0.001825884409     1.007825032230

  Basis Set: AUG-CC-PVTZ
    Blend: AUG-CC-PVTZ
  Basis Set: (AUG-CC-PVTZ AUX)
    Blend: AUG-CC-PVTZ-JKFIT
	 Reference Energy          =    -231.8907580404813302 [Eh]
	 Singles Energy            =      -0.0000000000000000 [Eh]
	 Same-Spin Energy          =      -0.2429515259792926 [Eh]
	 Opposite-Spin Energy      =      -0.8494168322977306 [Eh]
	 Correlation Energy        =      -1.0923683582770232 [Eh]
	 Total Energy              =    -232.9831263987583441 [Eh]

	 ================> DF-SCS-MP2 Energies <==================
	-----------------------------------------------------------
	 SCS Same-Spin Scale       =       0.3333333333333333 [-]
	 SCS Opposite-Spin Scale   =       1.2000000000000000 [-]
	 SCS Same-Spin Energy      =      -0.0809838419930975 [Eh]
	 SCS Opposite-Spin Energy  =      -1.0193001987572767 [Eh]
	 SCS Correlation Energy    =      -1.1002840407503742 [Eh]
	 SCS Total Energy          =    -232.9910420812317113 [Eh]
	-----------------------------------------------------------

  Dipole Moment: [D]
     X:    -0.0013      Y:     0.0121      Z:     0.0961     Total:     0.0969

*** Psi4 exiting successfully. Buy a developer a beer!
