                               Psi4 1.3.2 release

  ==> Input File <==

--------------------------------------------------------------------------
#psi4
#
memory 32 gb

molecule  {
0 1
  C       -0.6072840     0.2987500    -0.0000130
  C        0.6072830    -0.2987480    -0.0000050
  C       -1.8649420    -0.4253110    -0.0000010
  C        1.8649420     0.4253110    -0.0000100
  C       -3.0721310     0.1700370    -0.0000030
  C        3.0721310    -0.1700390     0.0000280
  H       -0.6626240     1.3889273    -0.0500290
  H        0.6626240    -1.3889260     0.0000110
  H       -1.8062860    -1.5139730     0.0000120
  H        1.8062890     1.5139730    -0.0000480
  H       -3.9914240    -0.4056610     0.0000080
  H       -3.1700740     1.2522570    -0.0000140
  H        3.9914220     0.4056620     0.0000210
  H        3.1700710    -1.2522590     0.0000620
units angstrom
no_reorient  #important for SAPT in psi4, default
symmetry c1  #important for SAPT in psi4, default
}

set PROPERTIES_ORIGIN ["COM"]
properties('MP2/aug-cc-pvtz', properties = ['dipole'])
--------------------------------------------------------------------------

    Molecular point group: c1
  Charge       = 0
  Multiplicity = 1
  Basis Set: AUG-CC-PVTZ
    Blend: AUG-CC-PVTZ
  Basis Set: (AUG-CC-PVTZ AUX)
    Blend: AUG-CC-PVTZ-JKFIT

    Orbital Energies [Eh]
    ---------------------

    Doubly Occupied:

       1A    -11.243673     2A    -11.243495     3A    -11.242736
       4A    -11.241366     5A    -11.232121     6A    -11.232090
       7A     -1.110093     8A     -1.057744     9A     -0.982539
      10A     -0.848851    11A     -0.762775    12A     -0.760759
      13A     -0.664890    14A     -0.634321    15A     -0.600542
      16A     -0.569011    17A     -0.541666    18A     -0.516382
      19A     -0.495687    20A     -0.467275    21A     -0.396479
      22A     -0.294099

  @DF-RHF Final Energy:  -231.89206277661782

   => Energetics <=

    Nuclear Repulsion Energy =            193.6190749489567224
    One-Electron Energy =                -694.7450846260514936
    Two-Electron Energy =                 269.2339469004769512
    Total Energy =                       -231.8920627766178200
  Basis Set: (AUG-CC-PVTZ AUX)
    Blend: AUG-CC-PVTZ-RI
    Molecular point group: c1

    Geometry (in Angstrom), charge = 0, multiplicity = 1:

       Center              X                  Y                   Z               Mass
    ------------   -----------------  -----------------  -----------------  -----------------
         C           -0.607283824941     0.298749996224     0.000616708147    12.000000000000
         C            0.607283175059    -0.298748003776     0.000624708147    12.000000000000
         C           -1.864941824941    -0.425311003776     0.000628708147    12.000000000000
         C            1.864942175059     0.425310996224     0.000619708147    12.000000000000
         C           -3.072130824941     0.170036996224     0.000626708147    12.000000000000
         C            3.072131175059    -0.170039003776     0.000657708147    12.000000000000
         H           -0.662623824941     1.388927296224    -0.049399291853     1.007825032230
         H            0.662624175059    -1.388926003776     0.000640708147     1.007825032230
         H           -1.806285824941    -1.513973003776     0.000641708147     1.007825032230
         H            1.806289175059     1.513972996224     0.000581708147     1.007825032230
         H           -3.991423824941    -0.405661003776     0.000637708147     1.007825032230
         H           -3.170073824941     1.252256996224     0.000615708147     1.007825032230
         H            3.991422175059     0.405661996224     0.000650708147     1.007825032230
         H            3.170071175059    -1.252259003776     0.000691708147     1.007825032230

  Basis Set: AUG-CC-PVTZ
    Blend: AUG-CC-PVTZ
  Basis Set: (AUG-CC-PVTZ AUX)
    Blend: AUG-CC-PVTZ-JKFIT
	 Reference Energy          =    -231.8920627766178200 [Eh]
	 Singles Energy            =      -0.0000000000000000 [Eh]
	 Same-Spin Energy          =      -0.2428924518669498 [Eh]
	 Opposite-Spin Energy      =      -0.8492971415836663 [Eh]
	 Correlation Energy        =      -1.0921895934506161 [Eh]
	 Total Energy              =    -232.9842523700684467 [Eh]

	 ================> DF-SCS-MP2 Energies <==================
	-----------------------------------------------------------
	 SCS Same-Spin Scale       =       0.3333333333333333 [-]
	 SCS Opposite-Spin Scale   =       1.2000000000000000 [-]
	 SCS Same-Spin Energy      =      -0.0809641506223166 [Eh]
	 SCS Opposite-Spin Energy  =      -1.0191565699003995 [Eh]
	 SCS Correlation Energy    =      -1.1001207205227161 [Eh]
	 SCS Total Energy          =    -232.9921834971405303 [Eh]
	-----------------------------------------------------------

  Dipole Moment: [D]
     X:     0.0008      Y:    -0.0013      Z:    -0.0309     Total:     0.0309

*** Psi4 exiting successfully. Buy a developer a beer!
