                               Psi4 1.3.2 release

  ==> Input File <==

--------------------------------------------------------------------------
#psi4
#
memory 32 gb

molecule  {
0 1
  C       -0.6072840     0.2987500    -0.0000130
  C        0.6072830    -0.2987480    -0.0000050
  C       -1.8649420    -0.4253110    -0.0000010
  C        1.8649420     0.4253110    -0.0000100
  C       -3.0721310     0.1700370    -0.0000030
  C        3.0721310    -0.1700390     0.0000280
  H       -0.6626240     1.3889280    -0.0000290
  H        0.6626240    -1.3889260     0.0000110
  H       -1.8062851    -1.5139701     0.2500120
  H        1.8062890     1.5139730    -0.0000480
  H       -3.9914240    -0.4056610     0.0000080
  H       -3.1700740     1.2522570    -0.0000140
  H        3.9914220     0.4056620     0.0000210
  H        3.1700710    -1.2522590     0.0000620
units angstrom
no_reorient  #important for SAPT in psi4, default
symmetry c1  #important for SAPT in psi4, default
}

set PROPERTIES_ORIGIN ["COM"]
properties('MP2/aug-cc-pvtz', properties = ['dipole'])
--------------------------------------------------------------------------

    Molecular point group: c1
  Charge       = 0
  Multiplicity = 1
  Basis Set: AUG-CC-PVTZ
    Blend: AUG-CC-PVTZ
  Basis Set: (AUG-CC-PVTZ AUX)
    Blend: AUG-CC-PVTZ-JKFIT

    Orbital Energies [Eh]
    ---------------------

    Doubly Occupied:

       1A    -11.246203     2A    -11.243498     3A    -11.242704
       4A    -11.241241     5A    -11.233115     6A    -11.232063
       7A     -1.109804     8A     -1.057436     9A     -0.982596
      10A     -0.848792    11A     -0.762080    12A     -0.757795
      13A     -0.663416    14A     -0.634255    15A     -0.599981
      16A     -0.568619    17A     -0.541731    18A     -0.515659
      19A     -0.495947    20A     -0.464737    21A     -0.395500
      22A     -0.294279

  @DF-RHF Final Energy:  -231.88795892501130

   => Energetics <=

    Nuclear Repulsion Energy =            193.5189899144677668
    One-Electron Energy =                -694.5509983071609668
    Two-Electron Energy =                 269.1440494676819526
    Total Energy =                       -231.8879589250112758
  Basis Set: (AUG-CC-PVTZ AUX)
    Blend: AUG-CC-PVTZ-RI
    Molecular point group: c1

    Geometry (in Angstrom), charge = 0, multiplicity = 1:

       Center              X                  Y                   Z               Mass
    ------------   -----------------  -----------------  -----------------  -----------------
         C           -0.607283836271     0.298749950907    -0.003159680688    12.000000000000
         C            0.607283163729    -0.298748049093    -0.003151680688    12.000000000000
         C           -1.864941836271    -0.425311049093    -0.003147680688    12.000000000000
         C            1.864942163729     0.425310950907    -0.003156680688    12.000000000000
         C           -3.072130836271     0.170036950907    -0.003149680688    12.000000000000
         C            3.072131163729    -0.170039049093    -0.003118680688    12.000000000000
         H           -0.662623836271     1.388927950907    -0.003175680688     1.007825032230
         H            0.662624163729    -1.388926049093    -0.003135680688     1.007825032230
         H           -1.806284936271    -1.513970149093     0.246865319312     1.007825032230
         H            1.806289163729     1.513972950907    -0.003194680688     1.007825032230
         H           -3.991423836271    -0.405661049093    -0.003138680688     1.007825032230
         H           -3.170073836271     1.252256950907    -0.003160680688     1.007825032230
         H            3.991422163729     0.405661950907    -0.003125680688     1.007825032230
         H            3.170071163729    -1.252259049093    -0.003084680688     1.007825032230

  Basis Set: AUG-CC-PVTZ
    Blend: AUG-CC-PVTZ
  Basis Set: (AUG-CC-PVTZ AUX)
    Blend: AUG-CC-PVTZ-JKFIT
	 Reference Energy          =    -231.8879589250113042 [Eh]
	 Singles Energy            =      -0.0000000000000000 [Eh]
	 Same-Spin Energy          =      -0.2430708321194860 [Eh]
	 Opposite-Spin Energy      =      -0.8497285895590954 [Eh]
	 Correlation Energy        =      -1.0927994216785815 [Eh]
	 Total Energy              =    -232.9807583466898961 [Eh]

	 ================> DF-SCS-MP2 Energies <==================
	-----------------------------------------------------------
	 SCS Same-Spin Scale       =       0.3333333333333333 [-]
	 SCS Opposite-Spin Scale   =       1.2000000000000000 [-]
	 SCS Same-Spin Energy      =      -0.0810236107064953 [Eh]
	 SCS Opposite-Spin Energy  =      -1.0196743074709145 [Eh]
	 SCS Correlation Energy    =      -1.1006979181774099 [Eh]
	 SCS Total Energy          =    -232.9886568431887213 [Eh]
	-----------------------------------------------------------

  Dipole Moment: [D]
     X:    -0.0033      Y:     0.0331      Z:     0.1583     Total:     0.1618

*** Psi4 exiting successfully. Buy a developer a beer!
