                               Psi4 1.3.2 release

  ==> Input File <==

--------------------------------------------------------------------------
#psi4
#
memory 32 gb

molecule  {
0 1
  C       -0.6072840     0.2987500    -0.0000130
  C        0.6072830    -0.2987480    -0.0000050
  C       -1.8649420    -0.4253110    -0.0000010
  C        1.8649420     0.4253110    -0.0000100
  C       -3.0721310     0.1700370    -0.0000030
  C        3.0721310    -0.1700390     0.0000280
  H       -0.6626240     1.3889280    -0.0000290
  H        0.6626240    -1.3889260     0.0000110
  H       -1.8062858    -1.5139724     0.0500120
  H        1.8062890     1.5139730    -0.0000480
  H       -3.9914240    -0.4056610     0.0000080
  H       -3.1700740     1.2522570    -0.0000140
  H        3.9914220     0.4056620     0.0000210
  H        3.1700710    -1.2522590     0.0000620
units angstrom
no_reorient  #important for SAPT in psi4, default
symmetry c1  #important for SAPT in psi4, default
}

set PROPERTIES_ORIGIN ["COM"]
properties('MP2/aug-cc-pvtz', properties = ['dipole'])
--------------------------------------------------------------------------

    Molecular point group: c1
  Charge       = 0
  Multiplicity = 1
  Basis Set: AUG-CC-PVTZ
    Blend: AUG-CC-PVTZ
  Basis Set: (AUG-CC-PVTZ AUX)
    Blend: AUG-CC-PVTZ-JKFIT

    Orbital Energies [Eh]
    ---------------------

    Doubly Occupied:

       1A    -11.243707     2A    -11.243528     3A    -11.242694
       4A    -11.241297     5A    -11.232141     6A    -11.232098
       7A     -1.110093     8A     -1.057730     9A     -0.982545
      10A     -0.848858    11A     -0.762705    12A     -0.760816
      13A     -0.664843    14A     -0.634363    15A     -0.600530
      16A     -0.569016    17A     -0.541703    18A     -0.516357
      19A     -0.495654    20A     -0.467324    21A     -0.396443
      22A     -0.294100

  @DF-RHF Final Energy:  -231.89205794210713

   => Energetics <=

    Nuclear Repulsion Energy =            193.6192414043191548
    One-Electron Energy =                -694.7455085393198715
    Two-Electron Energy =                 269.2342091928935588
    Total Energy =                       -231.8920579421071579
  Basis Set: (AUG-CC-PVTZ AUX)
    Blend: AUG-CC-PVTZ-RI
    Molecular point group: c1

    Geometry (in Angstrom), charge = 0, multiplicity = 1:

       Center              X                  Y                   Z               Mass
    ------------   -----------------  -----------------  -----------------  -----------------
         C           -0.607283827459     0.298749979859    -0.000642088131    12.000000000000
         C            0.607283172541    -0.298748020141    -0.000634088131    12.000000000000
         C           -1.864941827459    -0.425311020141    -0.000630088131    12.000000000000
         C            1.864942172541     0.425310979859    -0.000639088131    12.000000000000
         C           -3.072130827459     0.170036979859    -0.000632088131    12.000000000000
         C            3.072131172541    -0.170039020141    -0.000601088131    12.000000000000
         H           -0.662623827459     1.388927979859    -0.000658088131     1.007825032230
         H            0.662624172541    -1.388926020141    -0.000618088131     1.007825032230
         H           -1.806285627459    -1.513972420141     0.049382911869     1.007825032230
         H            1.806289172541     1.513972979859    -0.000677088131     1.007825032230
         H           -3.991423827459    -0.405661020141    -0.000621088131     1.007825032230
         H           -3.170073827459     1.252256979859    -0.000643088131     1.007825032230
         H            3.991422172541     0.405661979859    -0.000608088131     1.007825032230
         H            3.170071172541    -1.252259020141    -0.000567088131     1.007825032230

  Basis Set: AUG-CC-PVTZ
    Blend: AUG-CC-PVTZ
  Basis Set: (AUG-CC-PVTZ AUX)
    Blend: AUG-CC-PVTZ-JKFIT
	 Reference Energy          =    -231.8920579421071295 [Eh]
	 Singles Energy            =      -0.0000000000000000 [Eh]
	 Same-Spin Energy          =      -0.2428912535122841 [Eh]
	 Opposite-Spin Energy      =      -0.8492930188849255 [Eh]
	 Correlation Energy        =      -1.0921842723972095 [Eh]
	 Total Energy              =    -232.9842422145043486 [Eh]

	 ================> DF-SCS-MP2 Energies <==================
	-----------------------------------------------------------
	 SCS Same-Spin Scale       =       0.3333333333333333 [-]
	 SCS Opposite-Spin Scale   =       1.2000000000000000 [-]
	 SCS Same-Spin Energy      =      -0.0809637511707613 [Eh]
	 SCS Opposite-Spin Energy  =      -1.0191516226619106 [Eh]
	 SCS Correlation Energy    =      -1.1001153738326719 [Eh]
	 SCS Total Energy          =    -232.9921733159397945 [Eh]
	-----------------------------------------------------------

  Dipole Moment: [D]
     X:    -0.0001      Y:     0.0014      Z:     0.0322     Total:     0.0323

*** Psi4 exiting successfully. Buy a developer a beer!
