                               Psi4 1.4a2.dev612

  ==> Input File <==

--------------------------------------------------------------------------
#psi4
#
memory 32 gb

molecule  {
0 1
  O       -1.6636540     1.3623100    -0.0826750
  O        3.2950020     0.8732560    -0.0394660
  O        2.6676780    -1.2988900     0.0825990
  C       -2.5713650    -0.8630400     0.0337620
  C       -1.4513780     0.1516300    -0.0098980
  C       -3.9526870    -0.2300600    -0.0211700
  C       -0.0615660    -0.3898680     0.0323710
  C        0.9984040     0.4317740    -0.0078830
  C        2.3702780    -0.1170190     0.0219370
  H       -2.4419680    -1.4628000     0.9443570
  H       -2.4189490    -1.5634100    -0.8003330
  H       -4.1001540     0.4487780     0.8215890
  H       -4.7285220    -0.9991160     0.0102380
  H       -4.0749460     0.3516660    -0.9371360
  H        0.0882100    -1.4658090     0.0960520
  H        0.8678766     1.5157843     0.0810503
  H        4.1643390     0.4215720    -0.0233140
units angstrom
no_reorient  #important for SAPT in psi4, default
symmetry c1  #important for SAPT in psi4, default
}

set PROPERTIES_ORIGIN ["COM"]
properties('MP2/aug-cc-pvtz', properties = ['dipole'])
--------------------------------------------------------------------------

    Molecular point group: c1
  Charge       = 0
  Multiplicity = 1
  Basis Set: AUG-CC-PVTZ
    Blend: AUG-CC-PVTZ
  Basis Set: (AUG-CC-PVTZ AUX)
    Blend: AUG-CC-PVTZ-JKFIT

    Orbital Energies [Eh]
    ---------------------

    Doubly Occupied:

       1A    -20.627536     2A    -20.561383     3A    -20.560707
       4A    -11.405415     5A    -11.349965     6A    -11.277527
       7A    -11.275782     8A    -11.252524     9A    -11.225192
      10A     -1.472189    11A     -1.390612    12A     -1.367493
      13A     -1.108934    14A     -1.065642    15A     -0.957142
      16A     -0.887589    17A     -0.798825    18A     -0.745647
      19A     -0.718202    20A     -0.712881    21A     -0.661472
      22A     -0.644461    23A     -0.640422    24A     -0.638433
      25A     -0.606824    26A     -0.569384    27A     -0.539896
      28A     -0.539343    29A     -0.524433    30A     -0.500871
      31A     -0.496046    32A     -0.471154    33A     -0.435368
      34A     -0.403830

  @DF-RHF Final Energy:  -456.62687962982477

   => Energetics <=

    Nuclear Repulsion Energy =            413.4223346624895044
    One-Electron Energy =               -1443.2321849139873393
    Two-Electron Energy =                 573.1829706216731211
    Total Energy =                       -456.6268796298247707
  Basis Set: (AUG-CC-PVTZ AUX)
    Blend: AUG-CC-PVTZ-RI
    Molecular point group: c1

    Geometry (in Angstrom), charge = 0, multiplicity = 1:

       Center              X                  Y                   Z               Mass
    ------------   -----------------  -----------------  -----------------  -----------------
         O           -1.663651905637     1.362246140703    -0.083853991503    15.994914619570
         O            3.295004094363     0.873192140703    -0.040644991503    15.994914619570
         O            2.667680094363    -1.298953859297     0.081420008497    15.994914619570
         C           -2.571362905637    -0.863103859297     0.032583008497    12.000000000000
         C           -1.451375905637     0.151566140703    -0.011076991503    12.000000000000
         C           -3.952684905637    -0.230123859297    -0.022348991503    12.000000000000
         C           -0.061563905637    -0.389931859297     0.031192008497    12.000000000000
         C            0.998406094363     0.431710140703    -0.009061991503    12.000000000000
         C            2.370280094363    -0.117082859297     0.020758008497    12.000000000000
         H           -2.441965905637    -1.462863859297     0.943178008497     1.007825032230
         H           -2.418946905637    -1.563473859297    -0.801511991503     1.007825032230
         H           -4.100151905637     0.448714140703     0.820410008497     1.007825032230
         H           -4.728519905637    -0.999179859297     0.009059008497     1.007825032230
         H           -4.074943905637     0.351602140703    -0.938314991503     1.007825032230
         H            0.088212094363    -1.465872859297     0.094873008497     1.007825032230
         H            0.867878694363     1.515720440703     0.079871308497     1.007825032230
         H            4.164341094363     0.421508140703    -0.024492991503     1.007825032230

  Basis Set: AUG-CC-PVTZ
    Blend: AUG-CC-PVTZ
  Basis Set: (AUG-CC-PVTZ AUX)
    Blend: AUG-CC-PVTZ-JKFIT
	 Reference Energy          =    -456.6268796298247707 [Eh]
	 Singles Energy            =      -0.0000000000000000 [Eh]
	 Same-Spin Energy          =      -0.4483530196316331 [Eh]
	 Opposite-Spin Energy      =      -1.4092237501680933 [Eh]
	 Correlation Energy        =      -1.8575767697997265 [Eh]
	 Total Energy              =    -458.4844563996244915 [Eh]

	 ================> DF-SCS-MP2 Energies <==================
	-----------------------------------------------------------
	 SCS Same-Spin Scale       =       0.3333333333333333 [-]
	 SCS Opposite-Spin Scale   =       1.2000000000000000 [-]
	 SCS Same-Spin Energy      =      -0.1494510065438777 [Eh]
	 SCS Opposite-Spin Energy  =      -1.6910685002017118 [Eh]
	 SCS Correlation Energy    =      -1.8405195067455895 [Eh]
	 SCS Total Energy          =    -458.4673991365703500 [Eh]
	-----------------------------------------------------------

  Dipole Moment: [D]
     X:    -0.1736      Y:    -1.1833      Z:     0.1612     Total:     1.2068

*** Psi4 exiting successfully. Buy a developer a beer!
