                               Psi4 1.4a2.dev612

  ==> Input File <==

--------------------------------------------------------------------------
#psi4
#
memory 32 gb

molecule  {
0 1
  O       -1.6636540     1.3623100    -0.0826750
  O        3.2950020     0.8732560    -0.0394660
  O        2.6676780    -1.2988900     0.0825990
  C       -2.5713650    -0.8630400     0.0337620
  C       -1.4513780     0.1516300    -0.0098980
  C       -3.9526870    -0.2300600    -0.0211700
  C       -0.0615660    -0.3898680     0.0323710
  C        0.9974686     0.4152113    -0.3074240
  C        2.3702780    -0.1170190     0.0219370
  H       -2.4419680    -1.4628000     0.9443570
  H       -2.4189490    -1.5634100    -0.8003330
  H       -4.1001540     0.4487780     0.8215890
  H       -4.7285220    -0.9991160     0.0102380
  H       -4.0749460     0.3516660    -0.9371360
  H        0.0882100    -1.4658090     0.0960520
  H        0.8681440     1.5076730    -0.0687300
  H        4.1643390     0.4215720    -0.0233140
units angstrom
no_reorient  #important for SAPT in psi4, default
symmetry c1  #important for SAPT in psi4, default
}

set PROPERTIES_ORIGIN ["COM"]
properties('MP2/aug-cc-pvtz', properties = ['dipole'])
--------------------------------------------------------------------------

    Molecular point group: c1
  Charge       = 0
  Multiplicity = 1
  Basis Set: AUG-CC-PVTZ
    Blend: AUG-CC-PVTZ
  Basis Set: (AUG-CC-PVTZ AUX)
    Blend: AUG-CC-PVTZ-JKFIT

    Orbital Energies [Eh]
    ---------------------

    Doubly Occupied:

       1A    -20.625477     2A    -20.563897     3A    -20.559477
       4A    -11.405806     5A    -11.352228     6A    -11.287350
       7A    -11.282269     8A    -11.254260     9A    -11.226454
      10A     -1.469777    11A     -1.393137    12A     -1.365521
      13A     -1.103588    14A     -1.065261    15A     -0.953923
      16A     -0.884075    17A     -0.798401    18A     -0.742045
      19A     -0.715018    20A     -0.710341    21A     -0.660089
      22A     -0.644265    23A     -0.640751    24A     -0.634896
      25A     -0.599077    26A     -0.561682    27A     -0.543410
      28A     -0.537185    29A     -0.525892    30A     -0.500898
      31A     -0.495595    32A     -0.465544    33A     -0.438003
      34A     -0.401131

  @DF-RHF Final Energy:  -456.60176626452306

   => Energetics <=

    Nuclear Repulsion Energy =            412.4818258165119573
    One-Electron Energy =               -1441.3537386796192550
    Two-Electron Energy =                 572.2701465985843470
    Total Energy =                       -456.6017662645230075
  Basis Set: (AUG-CC-PVTZ AUX)
    Blend: AUG-CC-PVTZ-RI
    Molecular point group: c1

    Geometry (in Angstrom), charge = 0, multiplicity = 1:

       Center              X                  Y                   Z               Mass
    ------------   -----------------  -----------------  -----------------  -----------------
         O           -1.663566348942     1.363862161500    -0.054603526672    15.994914619570
         O            3.295089651058     0.874808161500    -0.011394526672    15.994914619570
         O            2.667765651058    -1.297337838500     0.110670473328    15.994914619570
         C           -2.571277348942    -0.861487838500     0.061833473328    12.000000000000
         C           -1.451290348942     0.153182161500     0.018173473328    12.000000000000
         C           -3.952599348942    -0.228507838500     0.006901473328    12.000000000000
         C           -0.061478348942    -0.388315838500     0.060442473328    12.000000000000
         C            0.997556251058     0.416763461500    -0.279352526672    12.000000000000
         C            2.370365651058    -0.115466838500     0.050008473328    12.000000000000
         H           -2.441880348942    -1.461247838500     0.972428473328     1.007825032230
         H           -2.418861348942    -1.561857838500    -0.772261526672     1.007825032230
         H           -4.100066348942     0.450330161500     0.849660473328     1.007825032230
         H           -4.728434348942    -0.997563838500     0.038309473328     1.007825032230
         H           -4.074858348942     0.353218161500    -0.909064526672     1.007825032230
         H            0.088297651058    -1.464256838500     0.124123473328     1.007825032230
         H            0.868231651058     1.509225161500    -0.040658526672     1.007825032230
         H            4.164426651058     0.423124161500     0.004757473328     1.007825032230

  Basis Set: AUG-CC-PVTZ
    Blend: AUG-CC-PVTZ
  Basis Set: (AUG-CC-PVTZ AUX)
    Blend: AUG-CC-PVTZ-JKFIT
	 Reference Energy          =    -456.6017662645230644 [Eh]
	 Singles Energy            =      -0.0000000000000000 [Eh]
	 Same-Spin Energy          =      -0.4496399277455039 [Eh]
	 Opposite-Spin Energy      =      -1.4126157131761699 [Eh]
	 Correlation Energy        =      -1.8622556409216737 [Eh]
	 Total Energy              =    -458.4640219054447243 [Eh]

	 ================> DF-SCS-MP2 Energies <==================
	-----------------------------------------------------------
	 SCS Same-Spin Scale       =       0.3333333333333333 [-]
	 SCS Opposite-Spin Scale   =       1.2000000000000000 [-]
	 SCS Same-Spin Energy      =      -0.1498799759151679 [Eh]
	 SCS Opposite-Spin Energy  =      -1.6951388558114038 [Eh]
	 SCS Correlation Energy    =      -1.8450188317265717 [Eh]
	 SCS Total Energy          =    -458.4467850962496414 [Eh]
	-----------------------------------------------------------

  Dipole Moment: [D]
     X:    -0.3066      Y:    -1.2519      Z:     0.1967     Total:     1.3038

*** Psi4 exiting successfully. Buy a developer a beer!
