                               Psi4 1.4a2.dev612

  ==> Input File <==

--------------------------------------------------------------------------
#psi4
#
memory 32 gb

molecule  {
0 1
  O       -1.6636540     1.3623100    -0.0826750
  O        3.2950020     0.8732560    -0.0394660
  O        2.6676780    -1.2988900     0.0825990
  C       -2.5713650    -0.8630400     0.0337620
  C       -1.4513780     0.1516300    -0.0098980
  C       -3.9526870    -0.2300600    -0.0211700
  C       -0.0620695    -0.3870508     0.0822890
  C        0.9984040     0.4317740    -0.0078830
  C        2.3702780    -0.1170190     0.0219370
  H       -2.4419680    -1.4628000     0.9443570
  H       -2.4189490    -1.5634100    -0.8003330
  H       -4.1001540     0.4487780     0.8215890
  H       -4.7285220    -0.9991160     0.0102380
  H       -4.0749460     0.3516660    -0.9371360
  H        0.0882100    -1.4658090     0.0960520
  H        0.8681440     1.5076730    -0.0687300
  H        4.1643390     0.4215720    -0.0233140
units angstrom
no_reorient  #important for SAPT in psi4, default
symmetry c1  #important for SAPT in psi4, default
}

set PROPERTIES_ORIGIN ["COM"]
properties('MP2/aug-cc-pvtz', properties = ['dipole'])
--------------------------------------------------------------------------

    Molecular point group: c1
  Charge       = 0
  Multiplicity = 1
  Basis Set: AUG-CC-PVTZ
    Blend: AUG-CC-PVTZ
  Basis Set: (AUG-CC-PVTZ AUX)
    Blend: AUG-CC-PVTZ-JKFIT

    Orbital Energies [Eh]
    ---------------------

    Doubly Occupied:

       1A    -20.627672     2A    -20.561458     3A    -20.560623
       4A    -11.405527     5A    -11.350029     6A    -11.277216
       7A    -11.275560     8A    -11.252490     9A    -11.225163
      10A     -1.472310    11A     -1.390563    12A     -1.367582
      13A     -1.108873    14A     -1.065639    15A     -0.957194
      16A     -0.887554    17A     -0.798886    18A     -0.746787
      19A     -0.718416    20A     -0.712923    21A     -0.661362
      22A     -0.643958    23A     -0.640949    24A     -0.638880
      25A     -0.606787    26A     -0.570095    27A     -0.540283
      28A     -0.538993    29A     -0.524375    30A     -0.500929
      31A     -0.496071    32A     -0.471305    33A     -0.435226
      34A     -0.404113

  @DF-RHF Final Energy:  -456.62768176359242

   => Energetics <=

    Nuclear Repulsion Energy =            413.4343601118839615
    One-Electron Energy =               -1443.2525034658724508
    Two-Electron Energy =                 573.1904615903960121
    Total Energy =                       -456.6276817635924772
  Basis Set: (AUG-CC-PVTZ AUX)
    Blend: AUG-CC-PVTZ-RI
    Molecular point group: c1

    Geometry (in Angstrom), charge = 0, multiplicity = 1:

       Center              X                  Y                   Z               Mass
    ------------   -----------------  -----------------  -----------------  -----------------
         O           -1.663606824596     1.362045967642    -0.087353194609    15.994914619570
         O            3.295049175404     0.872991967642    -0.044144194609    15.994914619570
         O            2.667725175404    -1.299154032358     0.077920805391    15.994914619570
         C           -2.571317824596    -0.863304032358     0.029083805391    12.000000000000
         C           -1.451330824596     0.151365967642    -0.014576194609    12.000000000000
         C           -3.952639824596    -0.230324032358    -0.025848194609    12.000000000000
         C           -0.062022324596    -0.387314832358     0.077610805391    12.000000000000
         C            0.998451175404     0.431509967642    -0.012561194609    12.000000000000
         C            2.370325175404    -0.117283032358     0.017258805391    12.000000000000
         H           -2.441920824596    -1.463064032358     0.939678805391     1.007825032230
         H           -2.418901824596    -1.563674032358    -0.805011194609     1.007825032230
         H           -4.100106824596     0.448513967642     0.816910805391     1.007825032230
         H           -4.728474824596    -0.999380032358     0.005559805391     1.007825032230
         H           -4.074898824596     0.351401967642    -0.941814194609     1.007825032230
         H            0.088257175404    -1.466073032358     0.091373805391     1.007825032230
         H            0.868191175404     1.507408967642    -0.073408194609     1.007825032230
         H            4.164386175404     0.421307967642    -0.027992194609     1.007825032230

  Basis Set: AUG-CC-PVTZ
    Blend: AUG-CC-PVTZ
  Basis Set: (AUG-CC-PVTZ AUX)
    Blend: AUG-CC-PVTZ-JKFIT
	 Reference Energy          =    -456.6276817635924203 [Eh]
	 Singles Energy            =      -0.0000000000000000 [Eh]
	 Same-Spin Energy          =      -0.4483190837511939 [Eh]
	 Opposite-Spin Energy      =      -1.4091758048694643 [Eh]
	 Correlation Energy        =      -1.8574948886206581 [Eh]
	 Total Energy              =    -458.4851766522130561 [Eh]

	 ================> DF-SCS-MP2 Energies <==================
	-----------------------------------------------------------
	 SCS Same-Spin Scale       =       0.3333333333333333 [-]
	 SCS Opposite-Spin Scale   =       1.2000000000000000 [-]
	 SCS Same-Spin Energy      =      -0.1494396945837313 [Eh]
	 SCS Opposite-Spin Energy  =      -1.6910109658433570 [Eh]
	 SCS Correlation Energy    =      -1.8404506604270883 [Eh]
	 SCS Total Energy          =    -458.4681324240195295 [Eh]
	-----------------------------------------------------------

  Dipole Moment: [D]
     X:    -0.1707      Y:    -1.1812      Z:     0.0379     Total:     1.1941

*** Psi4 exiting successfully. Buy a developer a beer!
