                               Psi4 1.4a2.dev612

  ==> Input File <==

--------------------------------------------------------------------------
#psi4
#
memory 32 gb

molecule  {
0 1
  O       -1.6636540     1.3623100    -0.0826750
  O        3.2950020     0.8732560    -0.0394660
  O        2.6676780    -1.2988900     0.0825990
  C       -2.5713650    -0.8630400     0.0337620
  C       -1.4513780     0.1516300    -0.0098980
  C       -3.9526870    -0.2300600    -0.0211700
  C       -0.0615660    -0.3898680     0.0323710
  C        0.9977804     0.4207322    -0.2075770
  C        2.3702780    -0.1170190     0.0219370
  H       -2.4419680    -1.4628000     0.9443570
  H       -2.4189490    -1.5634100    -0.8003330
  H       -4.1001540     0.4487780     0.8215890
  H       -4.7285220    -0.9991160     0.0102380
  H       -4.0749460     0.3516660    -0.9371360
  H        0.0882100    -1.4658090     0.0960520
  H        0.8681440     1.5076730    -0.0687300
  H        4.1643390     0.4215720    -0.0233140
units angstrom
no_reorient  #important for SAPT in psi4, default
symmetry c1  #important for SAPT in psi4, default
}

set PROPERTIES_ORIGIN ["COM"]
properties('MP2/aug-cc-pvtz', properties = ['dipole'])
--------------------------------------------------------------------------

    Molecular point group: c1
  Charge       = 0
  Multiplicity = 1
  Basis Set: AUG-CC-PVTZ
    Blend: AUG-CC-PVTZ
  Basis Set: (AUG-CC-PVTZ AUX)
    Blend: AUG-CC-PVTZ-JKFIT

    Orbital Energies [Eh]
    ---------------------

    Doubly Occupied:

       1A    -20.626631     2A    -20.562059     3A    -20.560514
       4A    -11.405633     5A    -11.350937     6A    -11.281309
       7A    -11.278652     8A    -11.253260     9A    -11.225728
      10A     -1.471123    11A     -1.391700    12A     -1.366613
      13A     -1.106563    14A     -1.065581    15A     -0.955655
      16A     -0.885975    17A     -0.798732    18A     -0.744311
      19A     -0.716787    20A     -0.711883    21A     -0.660841
      22A     -0.643993    23A     -0.640840    24A     -0.637062
      25A     -0.603430    26A     -0.566635    27A     -0.541948
      28A     -0.537967    29A     -0.525059    30A     -0.500789
      31A     -0.495942    32A     -0.468731    33A     -0.436502
      34A     -0.402815

  @DF-RHF Final Energy:  -456.61672678418336

   => Energetics <=

    Nuclear Repulsion Energy =            413.0327737028433717
    One-Electron Energy =               -1442.4545994711565982
    Two-Electron Energy =                 572.8050989841299270
    Total Energy =                       -456.6167267841833564
  Basis Set: (AUG-CC-PVTZ AUX)
    Blend: AUG-CC-PVTZ-RI
    Molecular point group: c1

    Geometry (in Angstrom), charge = 0, multiplicity = 1:

       Center              X                  Y                   Z               Mass
    ------------   -----------------  -----------------  -----------------  -----------------
         O           -1.663595569384     1.363344768496    -0.063960721921    15.994914619570
         O            3.295060430616     0.874290768496    -0.020751721921    15.994914619570
         O            2.667736430616    -1.297855231504     0.101313278079    15.994914619570
         C           -2.571306569384    -0.862005231504     0.052476278079    12.000000000000
         C           -1.451319569384     0.152664768496     0.008816278079    12.000000000000
         C           -3.952628569384    -0.229025231504    -0.002455721921    12.000000000000
         C           -0.061507569384    -0.388833231504     0.051085278079    12.000000000000
         C            0.997838830616     0.421766968496    -0.188862721921    12.000000000000
         C            2.370336430616    -0.115984231504     0.040651278079    12.000000000000
         H           -2.441909569384    -1.461765231504     0.963071278079     1.007825032230
         H           -2.418890569384    -1.562375231504    -0.781618721921     1.007825032230
         H           -4.100095569384     0.449812768496     0.840303278079     1.007825032230
         H           -4.728463569384    -0.998081231504     0.028952278079     1.007825032230
         H           -4.074887569384     0.352700768496    -0.918421721921     1.007825032230
         H            0.088268430616    -1.464774231504     0.114766278079     1.007825032230
         H            0.868202430616     1.508707768496    -0.050015721921     1.007825032230
         H            4.164397430616     0.422606768496    -0.004599721921     1.007825032230

  Basis Set: AUG-CC-PVTZ
    Blend: AUG-CC-PVTZ
  Basis Set: (AUG-CC-PVTZ AUX)
    Blend: AUG-CC-PVTZ-JKFIT
	 Reference Energy          =    -456.6167267841833564 [Eh]
	 Singles Energy            =      -0.0000000000000000 [Eh]
	 Same-Spin Energy          =      -0.4488771173842724 [Eh]
	 Opposite-Spin Energy      =      -1.4104989300542594 [Eh]
	 Correlation Energy        =      -1.8593760474385319 [Eh]
	 Total Energy              =    -458.4761028316219154 [Eh]

	 ================> DF-SCS-MP2 Energies <==================
	-----------------------------------------------------------
	 SCS Same-Spin Scale       =       0.3333333333333333 [-]
	 SCS Opposite-Spin Scale   =       1.2000000000000000 [-]
	 SCS Same-Spin Energy      =      -0.1496257057947575 [Eh]
	 SCS Opposite-Spin Energy  =      -1.6925987160651113 [Eh]
	 SCS Correlation Energy    =      -1.8422244218598687 [Eh]
	 SCS Total Energy          =    -458.4589512060432526 [Eh]
	-----------------------------------------------------------

  Dipole Moment: [D]
     X:    -0.2356      Y:    -1.2125      Z:     0.1460     Total:     1.2438

*** Psi4 exiting successfully. Buy a developer a beer!
