                               Psi4 1.4a2.dev612

  ==> Input File <==

--------------------------------------------------------------------------
#psi4
#
memory 32 gb

molecule  {
0 1
  O       -1.6636540     1.3623100    -0.0826750
  O        3.2950020     0.8732560    -0.0394660
  O        2.6676780    -1.2988900     0.0825990
  C       -2.5713650    -0.8630400     0.0337620
  C       -1.4513780     0.1516300    -0.0098980
  C       -3.9526870    -0.2300600    -0.0211700
  C       -0.0640833    -0.3757819     0.2819612
  C        0.9984040     0.4317740    -0.0078830
  C        2.3702780    -0.1170190     0.0219370
  H       -2.4419680    -1.4628000     0.9443570
  H       -2.4189490    -1.5634100    -0.8003330
  H       -4.1001540     0.4487780     0.8215890
  H       -4.7285220    -0.9991160     0.0102380
  H       -4.0749460     0.3516660    -0.9371360
  H        0.0882100    -1.4658090     0.0960520
  H        0.8681440     1.5076730    -0.0687300
  H        4.1643390     0.4215720    -0.0233140
units angstrom
no_reorient  #important for SAPT in psi4, default
symmetry c1  #important for SAPT in psi4, default
}

set PROPERTIES_ORIGIN ["COM"]
properties('MP2/aug-cc-pvtz', properties = ['dipole'])
--------------------------------------------------------------------------

    Molecular point group: c1
  Charge       = 0
  Multiplicity = 1
  Basis Set: AUG-CC-PVTZ
    Blend: AUG-CC-PVTZ
  Basis Set: (AUG-CC-PVTZ AUX)
    Blend: AUG-CC-PVTZ-JKFIT

    Orbital Energies [Eh]
    ---------------------

    Doubly Occupied:

       1A    -20.629081     2A    -20.563320     3A    -20.559301
       4A    -11.407165     5A    -11.351231     6A    -11.284272
       7A    -11.280763     8A    -11.252071     9A    -11.224799
      10A     -1.473796    11A     -1.389301    12A     -1.369041
      13A     -1.104233    14A     -1.064573    15A     -0.955099
      16A     -0.886715    17A     -0.796158    18A     -0.742182
      19A     -0.718670    20A     -0.712105    21A     -0.659128
      22A     -0.644560    23A     -0.641193    24A     -0.634785
      25A     -0.605826    26A     -0.564635    27A     -0.540930
      28A     -0.535648    29A     -0.523149    30A     -0.500886
      31A     -0.496068    32A     -0.472940    33A     -0.432029
      34A     -0.401678

  @DF-RHF Final Energy:  -456.61024997352530

   => Energetics <=

    Nuclear Repulsion Energy =            412.7376103598359691
    One-Electron Energy =               -1441.8610584725352055
    Two-Electron Energy =                 572.5131981391739373
    Total Energy =                       -456.6102499735252422
  Basis Set: (AUG-CC-PVTZ AUX)
    Blend: AUG-CC-PVTZ-RI
    Molecular point group: c1

    Geometry (in Angstrom), charge = 0, multiplicity = 1:

       Center              X                  Y                   Z               Mass
    ------------   -----------------  -----------------  -----------------  -----------------
         O           -1.663418100651     1.360989898881    -0.106065542113    15.994914619570
         O            3.295237899349     0.871935898881    -0.062856542113    15.994914619570
         O            2.667913899349    -1.300210101119     0.059208457887    15.994914619570
         C           -2.571129100651    -0.864360101119     0.010371457887    12.000000000000
         C           -1.451142100651     0.150309898881    -0.033288542113    12.000000000000
         C           -3.952451100651    -0.231380101119    -0.044560542113    12.000000000000
         C           -0.063847400651    -0.377102001119     0.258570657887    12.000000000000
         C            0.998639899349     0.430453898881    -0.031273542113    12.000000000000
         C            2.370513899349    -0.118339101119    -0.001453542113    12.000000000000
         H           -2.441732100651    -1.464120101119     0.920966457887     1.007825032230
         H           -2.418713100651    -1.564730101119    -0.823723542113     1.007825032230
         H           -4.099918100651     0.447457898881     0.798198457887     1.007825032230
         H           -4.728286100651    -1.000436101119    -0.013152542113     1.007825032230
         H           -4.074710100651     0.350345898881    -0.960526542113     1.007825032230
         H            0.088445899349    -1.467129101119     0.072661457887     1.007825032230
         H            0.868379899349     1.506352898881    -0.092120542113     1.007825032230
         H            4.164574899349     0.420251898881    -0.046704542113     1.007825032230

  Basis Set: AUG-CC-PVTZ
    Blend: AUG-CC-PVTZ
  Basis Set: (AUG-CC-PVTZ AUX)
    Blend: AUG-CC-PVTZ-JKFIT
	 Reference Energy          =    -456.6102499735252991 [Eh]
	 Singles Energy            =      -0.0000000000000000 [Eh]
	 Same-Spin Energy          =      -0.4493648118311502 [Eh]
	 Opposite-Spin Energy      =      -1.4117845972095968 [Eh]
	 Correlation Energy        =      -1.8611494090407470 [Eh]
	 Total Energy              =    -458.4713993825660623 [Eh]

	 ================> DF-SCS-MP2 Energies <==================
	-----------------------------------------------------------
	 SCS Same-Spin Scale       =       0.3333333333333333 [-]
	 SCS Opposite-Spin Scale   =       1.2000000000000000 [-]
	 SCS Same-Spin Energy      =      -0.1497882706103834 [Eh]
	 SCS Opposite-Spin Energy  =      -1.6941415166515161 [Eh]
	 SCS Correlation Energy    =      -1.8439297872618996 [Eh]
	 SCS Total Energy          =    -458.4541797607872127 [Eh]
	-----------------------------------------------------------

  Dipole Moment: [D]
     X:    -0.1149      Y:    -1.1301      Z:    -0.0691     Total:     1.1380

*** Psi4 exiting successfully. Buy a developer a beer!
