                               Psi4 1.4a2.dev612

  ==> Input File <==

--------------------------------------------------------------------------
#psi4
#
memory 32 gb

molecule  {
0 1
  O       -1.6636540     1.3623100    -0.0826750
  O        3.2950020     0.8732560    -0.0394660
  O        2.6676780    -1.2988900     0.0825990
  C       -2.5713650    -0.8630400     0.0337620
  C       -1.4513780     0.1516300    -0.0098980
  C       -3.9526870    -0.2300600    -0.0211700
  C       -0.0615660    -0.3898680     0.0323710
  C        0.9984040     0.4317740    -0.0078830
  C        2.3702780    -0.1170190     0.0219370
  H       -2.4419680    -1.4628000     0.9443570
  H       -2.4189490    -1.5634100    -0.8003330
  H       -4.1001540     0.4487780     0.8215890
  H       -4.7285220    -0.9991160     0.0102380
  H       -4.0749460     0.3516660    -0.9371360
  H        0.0882100    -1.4658090     0.0960520
  H        0.8676983     1.5211919     0.1809038
  H        4.1643390     0.4215720    -0.0233140
units angstrom
no_reorient  #important for SAPT in psi4, default
symmetry c1  #important for SAPT in psi4, default
}

set PROPERTIES_ORIGIN ["COM"]
properties('MP2/aug-cc-pvtz', properties = ['dipole'])
--------------------------------------------------------------------------

    Molecular point group: c1
  Charge       = 0
  Multiplicity = 1
  Basis Set: AUG-CC-PVTZ
    Blend: AUG-CC-PVTZ
  Basis Set: (AUG-CC-PVTZ AUX)
    Blend: AUG-CC-PVTZ-JKFIT

    Orbital Energies [Eh]
    ---------------------

    Doubly Occupied:

       1A    -20.627413     2A    -20.561417     3A    -20.560744
       4A    -11.405372     5A    -11.349968     6A    -11.278810
       7A    -11.276438     8A    -11.252561     9A    -11.225219
      10A     -1.472103    11A     -1.390603    12A     -1.367463
      13A     -1.108666    14A     -1.065564    15A     -0.956931
      16A     -0.887599    17A     -0.798539    18A     -0.743375
      19A     -0.717826    20A     -0.712765    21A     -0.661529
      22A     -0.645017    23A     -0.640164    24A     -0.637055
      25A     -0.606784    26A     -0.567606    27A     -0.539702
      28A     -0.539294    29A     -0.524463    30A     -0.500784
      31A     -0.496023    32A     -0.471013    33A     -0.435405
      34A     -0.403162

  @DF-RHF Final Energy:  -456.62402810251649

   => Energetics <=

    Nuclear Repulsion Energy =            413.3439255019766279
    One-Electron Energy =               -1443.0811625010403532
    Two-Electron Energy =                 573.1132088965472349
    Total Energy =                       -456.6240281025164904
  Basis Set: (AUG-CC-PVTZ AUX)
    Blend: AUG-CC-PVTZ-RI
    Molecular point group: c1

    Geometry (in Angstrom), charge = 0, multiplicity = 1:

       Center              X                  Y                   Z               Mass
    ------------   -----------------  -----------------  -----------------  -----------------
         O           -1.663650502288     1.362203578987    -0.084639910629    15.994914619570
         O            3.295005497712     0.873149578987    -0.041430910629    15.994914619570
         O            2.667681497712    -1.298996421013     0.080634089371    15.994914619570
         C           -2.571361502288    -0.863146421013     0.031797089371    12.000000000000
         C           -1.451374502288     0.151523578987    -0.011862910629    12.000000000000
         C           -3.952683502288    -0.230166421013    -0.023134910629    12.000000000000
         C           -0.061562502288    -0.389974421013     0.030406089371    12.000000000000
         C            0.998407497712     0.431667578987    -0.009847910629    12.000000000000
         C            2.370281497712    -0.117125421013     0.019972089371    12.000000000000
         H           -2.441964502288    -1.462906421013     0.942392089371     1.007825032230
         H           -2.418945502288    -1.563516421013    -0.802297910629     1.007825032230
         H           -4.100150502288     0.448671578987     0.819624089371     1.007825032230
         H           -4.728518502288    -0.999222421013     0.008273089371     1.007825032230
         H           -4.074942502288     0.351559578987    -0.939100910629     1.007825032230
         H            0.088213497712    -1.465915421013     0.094087089371     1.007825032230
         H            0.867701797712     1.521085478987     0.178938889371     1.007825032230
         H            4.164342497712     0.421465578987    -0.025278910629     1.007825032230

  Basis Set: AUG-CC-PVTZ
    Blend: AUG-CC-PVTZ
  Basis Set: (AUG-CC-PVTZ AUX)
    Blend: AUG-CC-PVTZ-JKFIT
	 Reference Energy          =    -456.6240281025164904 [Eh]
	 Singles Energy            =      -0.0000000000000000 [Eh]
	 Same-Spin Energy          =      -0.4484917770586989 [Eh]
	 Opposite-Spin Energy      =      -1.4095191138722276 [Eh]
	 Correlation Energy        =      -1.8580108909309265 [Eh]
	 Total Energy              =    -458.4820389934474179 [Eh]

	 ================> DF-SCS-MP2 Energies <==================
	-----------------------------------------------------------
	 SCS Same-Spin Scale       =       0.3333333333333333 [-]
	 SCS Opposite-Spin Scale   =       1.2000000000000000 [-]
	 SCS Same-Spin Energy      =      -0.1494972590195663 [Eh]
	 SCS Opposite-Spin Energy  =      -1.6914229366466731 [Eh]
	 SCS Correlation Energy    =      -1.8409201956662393 [Eh]
	 SCS Total Energy          =    -458.4649482981827191 [Eh]
	-----------------------------------------------------------

  Dipole Moment: [D]
     X:    -0.1729      Y:    -1.1919      Z:     0.2273     Total:     1.2257

*** Psi4 exiting successfully. Buy a developer a beer!
