                               Psi4 1.4a2.dev612

  ==> Input File <==

--------------------------------------------------------------------------
#psi4
#
memory 32 gb

molecule  {
0 1
  O       -1.6636540     1.3623100    -0.0826750
  O        3.2950020     0.8732560    -0.0394660
  O        2.6676780    -1.2988900     0.0825990
  C       -2.5713650    -0.8630400     0.0337620
  C       -1.4513780     0.1516300    -0.0098980
  C       -3.9526870    -0.2300600    -0.0211700
  C       -0.0615660    -0.3898680     0.0323710
  C        0.9984040     0.4317740    -0.0078830
  C        2.3702780    -0.1170190     0.0219370
  H       -2.4419680    -1.4628000     0.9443570
  H       -2.4189490    -1.5634100    -0.8003330
  H       -4.1001540     0.4487780     0.8215890
  H       -4.7285220    -0.9991160     0.0102380
  H       -4.0749460     0.3516660    -0.9371360
  H        0.0904553    -1.4832893    -0.2034299
  H        0.8681440     1.5076730    -0.0687300
  H        4.1643390     0.4215720    -0.0233140
units angstrom
no_reorient  #important for SAPT in psi4, default
symmetry c1  #important for SAPT in psi4, default
}

set PROPERTIES_ORIGIN ["COM"]
properties('MP2/aug-cc-pvtz', properties = ['dipole'])
--------------------------------------------------------------------------

    Molecular point group: c1
  Charge       = 0
  Multiplicity = 1
  Basis Set: AUG-CC-PVTZ
    Blend: AUG-CC-PVTZ
  Basis Set: (AUG-CC-PVTZ AUX)
    Blend: AUG-CC-PVTZ-JKFIT

    Orbital Energies [Eh]
    ---------------------

    Doubly Occupied:

       1A    -20.627745     2A    -20.561517     3A    -20.560860
       4A    -11.405566     5A    -11.350009     6A    -11.280093
       7A    -11.276818     8A    -11.252240     9A    -11.225009
      10A     -1.472373    11A     -1.390764    12A     -1.367588
      13A     -1.108316    14A     -1.065567    15A     -0.956671
      16A     -0.887359    17A     -0.798815    18A     -0.741738
      19A     -0.718517    20A     -0.711368    21A     -0.661339
      22A     -0.644238    23A     -0.640653    24A     -0.639028
      25A     -0.606069    26A     -0.566944    27A     -0.540579
      28A     -0.536795    29A     -0.524185    30A     -0.500689
      31A     -0.496035    32A     -0.471349    33A     -0.435718
      34A     -0.402870

  @DF-RHF Final Energy:  -456.62203064338303

   => Energetics <=

    Nuclear Repulsion Energy =            413.3000544061565051
    One-Electron Energy =               -1442.9933249138980500
    Two-Electron Energy =                 573.0712398643585175
    Total Energy =                       -456.6220306433830274
  Basis Set: (AUG-CC-PVTZ AUX)
    Blend: AUG-CC-PVTZ-RI
    Molecular point group: c1

    Geometry (in Angstrom), charge = 0, multiplicity = 1:

       Center              X                  Y                   Z               Mass
    ------------   -----------------  -----------------  -----------------  -----------------
         O           -1.663671682400     1.362447565068    -0.080317973678    15.994914619570
         O            3.294984317600     0.873393565068    -0.037108973678    15.994914619570
         O            2.667660317600    -1.298752434932     0.084956026322    15.994914619570
         C           -2.571382682400    -0.862902434932     0.036119026322    12.000000000000
         C           -1.451395682400     0.151767565068    -0.007540973678    12.000000000000
         C           -3.952704682400    -0.229922434932    -0.018812973678    12.000000000000
         C           -0.061583682400    -0.389730434932     0.034728026322    12.000000000000
         C            0.998386317600     0.431911565068    -0.005525973678    12.000000000000
         C            2.370260317600    -0.116881434932     0.024294026322    12.000000000000
         H           -2.441985682400    -1.462662434932     0.946714026322     1.007825032230
         H           -2.418966682400    -1.563272434932    -0.797975973678     1.007825032230
         H           -4.100171682400     0.448915565068     0.823946026322     1.007825032230
         H           -4.728539682400    -0.998978434932     0.012595026322     1.007825032230
         H           -4.074963682400     0.351803565068    -0.934778973678     1.007825032230
         H            0.090437617600    -1.483151734932    -0.201072873678     1.007825032230
         H            0.868126317600     1.507810565068    -0.066372973678     1.007825032230
         H            4.164321317600     0.421709565068    -0.020956973678     1.007825032230

  Basis Set: AUG-CC-PVTZ
    Blend: AUG-CC-PVTZ
  Basis Set: (AUG-CC-PVTZ AUX)
    Blend: AUG-CC-PVTZ-JKFIT
	 Reference Energy          =    -456.6220306433830274 [Eh]
	 Singles Energy            =      -0.0000000000000000 [Eh]
	 Same-Spin Energy          =      -0.4485857397030045 [Eh]
	 Opposite-Spin Energy      =      -1.4097900395094012 [Eh]
	 Correlation Energy        =      -1.8583757792124056 [Eh]
	 Total Energy              =    -458.4804064225954221 [Eh]

	 ================> DF-SCS-MP2 Energies <==================
	-----------------------------------------------------------
	 SCS Same-Spin Scale       =       0.3333333333333333 [-]
	 SCS Opposite-Spin Scale   =       1.2000000000000000 [-]
	 SCS Same-Spin Energy      =      -0.1495285799010015 [Eh]
	 SCS Opposite-Spin Energy  =      -1.6917480474112814 [Eh]
	 SCS Correlation Energy    =      -1.8412766273122829 [Eh]
	 SCS Total Energy          =    -458.4633072706953385 [Eh]
	-----------------------------------------------------------

  Dipole Moment: [D]
     X:    -0.1693      Y:    -1.1567      Z:    -0.1222     Total:     1.1754

*** Psi4 exiting successfully. Buy a developer a beer!
