                               Psi4 1.4a2.dev612

  ==> Input File <==

--------------------------------------------------------------------------
#psi4
#
memory 32 gb

molecule  {
0 1
  O       -1.6636540     1.3623100    -0.0826750
  O        3.2950020     0.8732560    -0.0394660
  O        2.6676780    -1.2988900     0.0825990
  C       -2.5713650    -0.8630400     0.0337620
  C       -1.4513780     0.1516300    -0.0098980
  C       -3.9526870    -0.2300600    -0.0211700
  C       -0.0635799    -0.3785991     0.2320431
  C        0.9984040     0.4317740    -0.0078830
  C        2.3702780    -0.1170190     0.0219370
  H       -2.4419680    -1.4628000     0.9443570
  H       -2.4189490    -1.5634100    -0.8003330
  H       -4.1001540     0.4487780     0.8215890
  H       -4.7285220    -0.9991160     0.0102380
  H       -4.0749460     0.3516660    -0.9371360
  H        0.0882100    -1.4658090     0.0960520
  H        0.8681440     1.5076730    -0.0687300
  H        4.1643390     0.4215720    -0.0233140
units angstrom
no_reorient  #important for SAPT in psi4, default
symmetry c1  #important for SAPT in psi4, default
}

set PROPERTIES_ORIGIN ["COM"]
properties('MP2/aug-cc-pvtz', properties = ['dipole'])
--------------------------------------------------------------------------

    Molecular point group: c1
  Charge       = 0
  Multiplicity = 1
  Basis Set: AUG-CC-PVTZ
    Blend: AUG-CC-PVTZ
  Basis Set: (AUG-CC-PVTZ AUX)
    Blend: AUG-CC-PVTZ-JKFIT

    Orbital Energies [Eh]
    ---------------------

    Doubly Occupied:

       1A    -20.628557     2A    -20.562628     3A    -20.559755
       4A    -11.406558     5A    -11.350792     6A    -11.281531
       7A    -11.279024     8A    -11.252221     9A    -11.224929
      10A     -1.473244    11A     -1.389747    12A     -1.368499
      13A     -1.105940    14A     -1.064957    15A     -0.955879
      16A     -0.887035    17A     -0.797124    18A     -0.743712
      19A     -0.718553    20A     -0.712435    21A     -0.659952
      22A     -0.644269    23A     -0.641310    24A     -0.636183
      25A     -0.606117    26A     -0.566737    27A     -0.541029
      28A     -0.536584    29A     -0.523612    30A     -0.500869
      31A     -0.496097    32A     -0.472334    33A     -0.433222
      34A     -0.402541

  @DF-RHF Final Energy:  -456.61687455571308

   => Energetics <=

    Nuclear Repulsion Energy =            412.9933011637764935
    One-Electron Energy =               -1442.3724007846881250
    Two-Electron Energy =                 572.7622250651985496
    Total Energy =                       -456.6168745557130251
  Basis Set: (AUG-CC-PVTZ AUX)
    Blend: AUG-CC-PVTZ-RI
    Molecular point group: c1

    Geometry (in Angstrom), charge = 0, multiplicity = 1:

       Center              X                  Y                   Z               Mass
    ------------   -----------------  -----------------  -----------------  -----------------
         O           -1.663465276951     1.361253913728    -0.101387450551    15.994914619570
         O            3.295190723049     0.872199913728    -0.058178450551    15.994914619570
         O            2.667866723049    -1.299946086272     0.063886549449    15.994914619570
         C           -2.571176276951    -0.864096086272     0.015049549449    12.000000000000
         C           -1.451189276951     0.150573913728    -0.028610450551    12.000000000000
         C           -3.952498276951    -0.231116086272    -0.039882450551    12.000000000000
         C           -0.063391176951    -0.379655186272     0.213330649449    12.000000000000
         C            0.998592723049     0.430717913728    -0.026595450551    12.000000000000
         C            2.370466723049    -0.118075086272     0.003224549449    12.000000000000
         H           -2.441779276951    -1.463856086272     0.925644549449     1.007825032230
         H           -2.418760276951    -1.564466086272    -0.819045450551     1.007825032230
         H           -4.099965276951     0.447721913728     0.802876549449     1.007825032230
         H           -4.728333276951    -1.000172086272    -0.008474450551     1.007825032230
         H           -4.074757276951     0.350609913728    -0.955848450551     1.007825032230
         H            0.088398723049    -1.466865086272     0.077339549449     1.007825032230
         H            0.868332723049     1.506616913728    -0.087442450551     1.007825032230
         H            4.164527723049     0.420515913728    -0.042026450551     1.007825032230

  Basis Set: AUG-CC-PVTZ
    Blend: AUG-CC-PVTZ
  Basis Set: (AUG-CC-PVTZ AUX)
    Blend: AUG-CC-PVTZ-JKFIT
	 Reference Energy          =    -456.6168745557130819 [Eh]
	 Singles Energy            =      -0.0000000000000000 [Eh]
	 Same-Spin Energy          =      -0.4489718889139480 [Eh]
	 Opposite-Spin Energy      =      -1.4107507083807120 [Eh]
	 Correlation Energy        =      -1.8597225972946601 [Eh]
	 Total Energy              =    -458.4765971530077309 [Eh]

	 ================> DF-SCS-MP2 Energies <==================
	-----------------------------------------------------------
	 SCS Same-Spin Scale       =       0.3333333333333333 [-]
	 SCS Opposite-Spin Scale   =       1.2000000000000000 [-]
	 SCS Same-Spin Energy      =      -0.1496572963046493 [Eh]
	 SCS Opposite-Spin Energy  =      -1.6929008500568543 [Eh]
	 SCS Correlation Energy    =      -1.8425581463615037 [Eh]
	 SCS Total Energy          =    -458.4594327020745936 [Eh]
	-----------------------------------------------------------

  Dipole Moment: [D]
     X:    -0.1332      Y:    -1.1497      Z:    -0.0398     Total:     1.1581

*** Psi4 exiting successfully. Buy a developer a beer!
