                               Psi4 1.4a2.dev612

  ==> Input File <==

--------------------------------------------------------------------------
#psi4
#
memory 32 gb

molecule  {
0 1
  O       -1.6636540     1.3623100    -0.0826750
  O        3.2950020     0.8732560    -0.0394660
  O        2.6676780    -1.2988900     0.0825990
  C       -2.5713650    -0.8630400     0.0337620
  C       -1.4513780     0.1516300    -0.0098980
  C       -3.9526870    -0.2300600    -0.0211700
  C       -0.0615660    -0.3898680     0.0323710
  C        0.9984040     0.4317740    -0.0078830
  C        2.3702780    -0.1170190     0.0219370
  H       -2.4419680    -1.4628000     0.9443570
  H       -2.4189490    -1.5634100    -0.8003330
  H       -4.1001540     0.4487780     0.8215890
  H       -4.7285220    -0.9991160     0.0102380
  H       -4.0749460     0.3516660    -0.9371360
  H        0.0889584    -1.4716358    -0.0037753
  H        0.8681440     1.5076730    -0.0687300
  H        4.1643390     0.4215720    -0.0233140
units angstrom
no_reorient  #important for SAPT in psi4, default
symmetry c1  #important for SAPT in psi4, default
}

set PROPERTIES_ORIGIN ["COM"]
properties('MP2/aug-cc-pvtz', properties = ['dipole'])
--------------------------------------------------------------------------

    Molecular point group: c1
  Charge       = 0
  Multiplicity = 1
  Basis Set: AUG-CC-PVTZ
    Blend: AUG-CC-PVTZ
  Basis Set: (AUG-CC-PVTZ AUX)
    Blend: AUG-CC-PVTZ-JKFIT

    Orbital Energies [Eh]
    ---------------------

    Doubly Occupied:

       1A    -20.627625     2A    -20.561390     3A    -20.560715
       4A    -11.405465     5A    -11.349976     6A    -11.277230
       7A    -11.275503     8A    -11.252478     9A    -11.225161
      10A     -1.472259    11A     -1.390641    12A     -1.367527
      13A     -1.108997    14A     -1.065678    15A     -0.957195
      16A     -0.887557    17A     -0.798978    18A     -0.746353
      19A     -0.718420    20A     -0.712789    21A     -0.661431
      22A     -0.643995    23A     -0.640814    24A     -0.639115
      25A     -0.606748    26A     -0.569909    27A     -0.540272
      28A     -0.538912    29A     -0.524398    30A     -0.500913
      31A     -0.496063    32A     -0.471246    33A     -0.435396
      34A     -0.404108

  @DF-RHF Final Energy:  -456.62775724654063

   => Energetics <=

    Nuclear Repulsion Energy =            413.4495957778879642
    One-Electron Energy =               -1443.2841865959758252
    Two-Electron Energy =                 573.2068335715472358
    Total Energy =                       -456.6277572465406820
  Basis Set: (AUG-CC-PVTZ AUX)
    Blend: AUG-CC-PVTZ-RI
    Molecular point group: c1

    Geometry (in Angstrom), charge = 0, multiplicity = 1:

       Center              X                  Y                   Z               Mass
    ------------   -----------------  -----------------  -----------------  -----------------
         O           -1.663659900717     1.362355843611    -0.081889399505    15.994914619570
         O            3.294996099283     0.873301843611    -0.038680399505    15.994914619570
         O            2.667672099283    -1.298844156389     0.083384600495    15.994914619570
         C           -2.571370900717    -0.862994156389     0.034547600495    12.000000000000
         C           -1.451383900717     0.151675843611    -0.009112399505    12.000000000000
         C           -3.952692900717    -0.230014156389    -0.020384399505    12.000000000000
         C           -0.061571900717    -0.389822156389     0.033156600495    12.000000000000
         C            0.998398099283     0.431819843611    -0.007097399505    12.000000000000
         C            2.370272099283    -0.116973156389     0.022722600495    12.000000000000
         H           -2.441973900717    -1.462754156389     0.945142600495     1.007825032230
         H           -2.418954900717    -1.563364156389    -0.799547399505     1.007825032230
         H           -4.100159900717     0.448823843611     0.822374600495     1.007825032230
         H           -4.728527900717    -0.999070156389     0.011023600495     1.007825032230
         H           -4.074951900717     0.351711843611    -0.936350399505     1.007825032230
         H            0.088952499283    -1.471589956389    -0.002989699505     1.007825032230
         H            0.868138099283     1.507718843611    -0.067944399505     1.007825032230
         H            4.164333099283     0.421617843611    -0.022528399505     1.007825032230

  Basis Set: AUG-CC-PVTZ
    Blend: AUG-CC-PVTZ
  Basis Set: (AUG-CC-PVTZ AUX)
    Blend: AUG-CC-PVTZ-JKFIT
	 Reference Energy          =    -456.6277572465406251 [Eh]
	 Singles Energy            =      -0.0000000000000000 [Eh]
	 Same-Spin Energy          =      -0.4483099544428127 [Eh]
	 Opposite-Spin Energy      =      -1.4091527858434372 [Eh]
	 Correlation Energy        =      -1.8574627402862500 [Eh]
	 Total Energy              =    -458.4852199868268485 [Eh]

	 ================> DF-SCS-MP2 Energies <==================
	-----------------------------------------------------------
	 SCS Same-Spin Scale       =       0.3333333333333333 [-]
	 SCS Opposite-Spin Scale   =       1.2000000000000000 [-]
	 SCS Same-Spin Energy      =      -0.1494366514809376 [Eh]
	 SCS Opposite-Spin Energy  =      -1.6909833430121246 [Eh]
	 SCS Correlation Energy    =      -1.8404199944930622 [Eh]
	 SCS Total Energy          =    -458.4681772410336862 [Eh]
	-----------------------------------------------------------

  Dipole Moment: [D]
     X:    -0.1730      Y:    -1.1816      Z:    -0.0002     Total:     1.1942

*** Psi4 exiting successfully. Buy a developer a beer!
