                               Psi4 1.4a2.dev612

  ==> Input File <==

--------------------------------------------------------------------------
#psi4
#
memory 32 gb

molecule  {
0 1
  O       -1.6636540     1.3623100    -0.0826750
  O        3.2950020     0.8732560    -0.0394660
  O        2.6676780    -1.2988900     0.0825990
  C       -2.5713650    -0.8630400     0.0337620
  C       -1.4513780     0.1516300    -0.0098980
  C       -3.9526870    -0.2300600    -0.0211700
  C       -0.0615660    -0.3898680     0.0323710
  C        0.9984040     0.4317740    -0.0078830
  C        2.3702780    -0.1170190     0.0219370
  H       -2.4419680    -1.4628000     0.9443570
  H       -2.4189490    -1.5634100    -0.8003330
  H       -4.1001540     0.4487780     0.8215890
  H       -4.7285220    -0.9991160     0.0102380
  H       -4.0749460     0.3516660    -0.9371360
  H        0.0900811    -1.4803759    -0.1535162
  H        0.8681440     1.5076730    -0.0687300
  H        4.1643390     0.4215720    -0.0233140
units angstrom
no_reorient  #important for SAPT in psi4, default
symmetry c1  #important for SAPT in psi4, default
}

set PROPERTIES_ORIGIN ["COM"]
properties('MP2/aug-cc-pvtz', properties = ['dipole'])
--------------------------------------------------------------------------

    Molecular point group: c1
  Charge       = 0
  Multiplicity = 1
  Basis Set: AUG-CC-PVTZ
    Blend: AUG-CC-PVTZ
  Basis Set: (AUG-CC-PVTZ AUX)
    Blend: AUG-CC-PVTZ-JKFIT

    Orbital Energies [Eh]
    ---------------------

    Doubly Occupied:

       1A    -20.627704     2A    -20.561476     3A    -20.560810
       4A    -11.405532     5A    -11.349995     6A    -11.279061
       7A    -11.276437     8A    -11.252321     9A    -11.225061
      10A     -1.472335    11A     -1.390721    12A     -1.367569
      13A     -1.108535    14A     -1.065604    15A     -0.956840
      16A     -0.887422    17A     -0.798862    18A     -0.743196
      19A     -0.718483    20A     -0.711881    21A     -0.661369
      22A     -0.644164    23A     -0.640698    24A     -0.639060
      25A     -0.606285    26A     -0.567958    27A     -0.540533
      28A     -0.537485    29A     -0.524259    30A     -0.500768
      31A     -0.496046    32A     -0.471316    33A     -0.435612
      34A     -0.403286

  @DF-RHF Final Energy:  -456.62411460413892

   => Energetics <=

    Nuclear Repulsion Energy =            413.3505464697590241
    One-Electron Energy =               -1443.0919547452294864
    Two-Electron Energy =                 573.1172936713313675
    Total Energy =                       -456.6241146041389811
  Basis Set: (AUG-CC-PVTZ AUX)
    Blend: AUG-CC-PVTZ-RI
    Molecular point group: c1

    Geometry (in Angstrom), charge = 0, multiplicity = 1:

       Center              X                  Y                   Z               Mass
    ------------   -----------------  -----------------  -----------------  -----------------
         O           -1.663668737176     1.362424634507    -0.080710830528    15.994914619570
         O            3.294987262824     0.873370634507    -0.037501830528    15.994914619570
         O            2.667663262824    -1.298775365493     0.084563169472    15.994914619570
         C           -2.571379737176    -0.862925365493     0.035726169472    12.000000000000
         C           -1.451392737176     0.151744634507    -0.007933830528    12.000000000000
         C           -3.952701737176    -0.229945365493    -0.019205830528    12.000000000000
         C           -0.061580737176    -0.389753365493     0.034335169472    12.000000000000
         C            0.998389262824     0.431888634507    -0.005918830528    12.000000000000
         C            2.370263262824    -0.116904365493     0.023901169472    12.000000000000
         H           -2.441982737176    -1.462685365493     0.946321169472     1.007825032230
         H           -2.418963737176    -1.563295365493    -0.798368830528     1.007825032230
         H           -4.100168737176     0.448892634507     0.823553169472     1.007825032230
         H           -4.728536737176    -0.999001365493     0.012202169472     1.007825032230
         H           -4.074960737176     0.351780634507    -0.935171830528     1.007825032230
         H            0.090066362824    -1.480261265493    -0.151552030528     1.007825032230
         H            0.868129262824     1.507787634507    -0.066765830528     1.007825032230
         H            4.164324262824     0.421686634507    -0.021349830528     1.007825032230

  Basis Set: AUG-CC-PVTZ
    Blend: AUG-CC-PVTZ
  Basis Set: (AUG-CC-PVTZ AUX)
    Blend: AUG-CC-PVTZ-JKFIT
	 Reference Energy          =    -456.6241146041389243 [Eh]
	 Singles Energy            =      -0.0000000000000000 [Eh]
	 Same-Spin Energy          =      -0.4484919304840798 [Eh]
	 Opposite-Spin Energy      =      -1.4095560656660349 [Eh]
	 Correlation Energy        =      -1.8580479961501146 [Eh]
	 Total Energy              =    -458.4821626002890298 [Eh]

	 ================> DF-SCS-MP2 Energies <==================
	-----------------------------------------------------------
	 SCS Same-Spin Scale       =       0.3333333333333333 [-]
	 SCS Opposite-Spin Scale   =       1.2000000000000000 [-]
	 SCS Same-Spin Energy      =      -0.1494973101613599 [Eh]
	 SCS Opposite-Spin Energy  =      -1.6914672787992417 [Eh]
	 SCS Correlation Energy    =      -1.8409645889606017 [Eh]
	 SCS Total Energy          =    -458.4650791930995410 [Eh]
	-----------------------------------------------------------

  Dipole Moment: [D]
     X:    -0.1704      Y:    -1.1659      Z:    -0.0921     Total:     1.1818

*** Psi4 exiting successfully. Buy a developer a beer!
