                               Psi4 1.4a2.dev612

  ==> Input File <==

--------------------------------------------------------------------------
#psi4
#
memory 32 gb

molecule  {
0 1
  O       -1.6636540     1.3623100    -0.0826750
  O        3.2950020     0.8732560    -0.0394660
  O        2.6676780    -1.2988900     0.0825990
  C       -2.5713650    -0.8630400     0.0337620
  C       -1.4513780     0.1516300    -0.0098980
  C       -3.9526870    -0.2300600    -0.0211700
  C       -0.0615660    -0.3898680     0.0323710
  C        0.9984040     0.4317740    -0.0078830
  C        2.3702780    -0.1170190     0.0219370
  H       -2.4419680    -1.4628000     0.9443570
  H       -2.4189490    -1.5634100    -0.8003330
  H       -4.1001540     0.4487780     0.8215890
  H       -4.7285220    -0.9991160     0.0102380
  H       -4.0749460     0.3516660    -0.9371360
  H        0.0885842    -1.4687224     0.0461384
  H        0.8681440     1.5076730    -0.0687300
  H        4.1643390     0.4215720    -0.0233140
units angstrom
no_reorient  #important for SAPT in psi4, default
symmetry c1  #important for SAPT in psi4, default
}

set PROPERTIES_ORIGIN ["COM"]
properties('MP2/aug-cc-pvtz', properties = ['dipole'])
--------------------------------------------------------------------------

    Molecular point group: c1
  Charge       = 0
  Multiplicity = 1
  Basis Set: AUG-CC-PVTZ
    Blend: AUG-CC-PVTZ
  Basis Set: (AUG-CC-PVTZ AUX)
    Blend: AUG-CC-PVTZ-JKFIT

    Orbital Energies [Eh]
    ---------------------

    Doubly Occupied:

       1A    -20.627612     2A    -20.561374     3A    -20.560701
       4A    -11.405454     5A    -11.349973     6A    -11.277007
       7A    -11.275327     8A    -11.252501     9A    -11.225176
      10A     -1.472246    11A     -1.390630    12A     -1.367518
      13A     -1.109068    14A     -1.065688    15A     -0.957249
      16A     -0.887579    17A     -0.798998    18A     -0.746845
      19A     -0.718411    20A     -0.712908    21A     -0.661441
      22A     -0.643962    23A     -0.640839    24A     -0.639122
      25A     -0.606820    26A     -0.570198    27A     -0.540150
      28A     -0.539191    29A     -0.524416    30A     -0.500931
      31A     -0.496064    32A     -0.471233    33A     -0.435364
      34A     -0.404221

  @DF-RHF Final Energy:  -456.62822768028042

   => Energetics <=

    Nuclear Repulsion Energy =            413.4637877368926979
    One-Electron Energy =               -1443.3115900653267545
    Two-Electron Energy =                 573.2195746481535252
    Total Energy =                       -456.6282276802804745
  Basis Set: (AUG-CC-PVTZ AUX)
    Blend: AUG-CC-PVTZ-RI
    Molecular point group: c1

    Geometry (in Angstrom), charge = 0, multiplicity = 1:

       Center              X                  Y                   Z               Mass
    ------------   -----------------  -----------------  -----------------  -----------------
         O           -1.663656955493     1.362332913050    -0.082282256356    15.994914619570
         O            3.294999044507     0.873278913050    -0.039073256356    15.994914619570
         O            2.667675044507    -1.298867086950     0.082991743644    15.994914619570
         C           -2.571367955493    -0.863017086950     0.034154743644    12.000000000000
         C           -1.451380955493     0.151652913050    -0.009505256356    12.000000000000
         C           -3.952689955493    -0.230037086950    -0.020777256356    12.000000000000
         C           -0.061568955493    -0.389845086950     0.032763743644    12.000000000000
         C            0.998401044507     0.431796913050    -0.007490256356    12.000000000000
         C            2.370275044507    -0.116996086950     0.022329743644    12.000000000000
         H           -2.441970955493    -1.462777086950     0.944749743644     1.007825032230
         H           -2.418951955493    -1.563387086950    -0.799940256356     1.007825032230
         H           -4.100156955493     0.448800913050     0.821981743644     1.007825032230
         H           -4.728524955493    -0.999093086950     0.010630743644     1.007825032230
         H           -4.074948955493     0.351688913050    -0.936743256356     1.007825032230
         H            0.088581244507    -1.468699486950     0.046531143644     1.007825032230
         H            0.868141044507     1.507695913050    -0.068337256356     1.007825032230
         H            4.164336044507     0.421594913050    -0.022921256356     1.007825032230

  Basis Set: AUG-CC-PVTZ
    Blend: AUG-CC-PVTZ
  Basis Set: (AUG-CC-PVTZ AUX)
    Blend: AUG-CC-PVTZ-JKFIT
	 Reference Energy          =    -456.6282276802804176 [Eh]
	 Singles Energy            =      -0.0000000000000000 [Eh]
	 Same-Spin Energy          =      -0.4482837990473837 [Eh]
	 Opposite-Spin Energy      =      -1.4091030532021915 [Eh]
	 Correlation Energy        =      -1.8573868522495753 [Eh]
	 Total Energy              =    -458.4856145325300076 [Eh]

	 ================> DF-SCS-MP2 Energies <==================
	-----------------------------------------------------------
	 SCS Same-Spin Scale       =       0.3333333333333333 [-]
	 SCS Opposite-Spin Scale   =       1.2000000000000000 [-]
	 SCS Same-Spin Energy      =      -0.1494279330157945 [Eh]
	 SCS Opposite-Spin Energy  =      -1.6909236638426297 [Eh]
	 SCS Correlation Energy    =      -1.8403515968584243 [Eh]
	 SCS Total Energy          =    -458.4685792771388151 [Eh]
	-----------------------------------------------------------

  Dipole Moment: [D]
     X:    -0.1736      Y:    -1.1829      Z:     0.0307     Total:     1.1960

*** Psi4 exiting successfully. Buy a developer a beer!
