                               Psi4 1.4a2.dev612

  ==> Input File <==

--------------------------------------------------------------------------
#psi4
#
memory 32 gb

molecule  {
0 1
  O       -1.6636540     1.3623100    -0.0826750
  O        3.2950020     0.8732560    -0.0394660
  O        2.6676780    -1.2988900     0.0825990
  C       -2.5713650    -0.8630400     0.0337620
  C       -1.4513780     0.1516300    -0.0098980
  C       -3.9526870    -0.2300600    -0.0211700
  C       -0.0625729    -0.3842336     0.1322071
  C        0.9984040     0.4317740    -0.0078830
  C        2.3702780    -0.1170190     0.0219370
  H       -2.4419680    -1.4628000     0.9443570
  H       -2.4189490    -1.5634100    -0.8003330
  H       -4.1001540     0.4487780     0.8215890
  H       -4.7285220    -0.9991160     0.0102380
  H       -4.0749460     0.3516660    -0.9371360
  H        0.0882100    -1.4658090     0.0960520
  H        0.8681440     1.5076730    -0.0687300
  H        4.1643390     0.4215720    -0.0233140
units angstrom
no_reorient  #important for SAPT in psi4, default
symmetry c1  #important for SAPT in psi4, default
}

set PROPERTIES_ORIGIN ["COM"]
properties('MP2/aug-cc-pvtz', properties = ['dipole'])
--------------------------------------------------------------------------

    Molecular point group: c1
  Charge       = 0
  Multiplicity = 1
  Basis Set: AUG-CC-PVTZ
    Blend: AUG-CC-PVTZ
  Basis Set: (AUG-CC-PVTZ AUX)
    Blend: AUG-CC-PVTZ-JKFIT

    Orbital Energies [Eh]
    ---------------------

    Doubly Occupied:

       1A    -20.627852     2A    -20.561698     3A    -20.560434
       4A    -11.405737     5A    -11.350186     6A    -11.278027
       7A    -11.276350     8A    -11.252434     9A    -11.225114
      10A     -1.472500    11A     -1.390390    12A     -1.367769
      13A     -1.108270    14A     -1.065497    15A     -0.956933
      16A     -0.887453    17A     -0.798519    18A     -0.746117
      19A     -0.718437    20A     -0.712835    21A     -0.661081
      22A     -0.643995    23A     -0.641143    24A     -0.638246
      25A     -0.606630    26A     -0.569444    27A     -0.540657
      28A     -0.538289    29A     -0.524225    30A     -0.500909
      31A     -0.496084    32A     -0.471516    33A     -0.434825
      34A     -0.403776

  @DF-RHF Final Energy:  -456.62555377660266

   => Energetics <=

    Nuclear Repulsion Energy =            413.3432941068354012
    One-Electron Energy =               -1443.0709529619048226
    Two-Electron Energy =                 573.1021050784667068
    Total Energy =                       -456.6255537766027146
  Basis Set: (AUG-CC-PVTZ AUX)
    Blend: AUG-CC-PVTZ-RI
    Molecular point group: c1

    Geometry (in Angstrom), charge = 0, multiplicity = 1:

       Center              X                  Y                   Z               Mass
    ------------   -----------------  -----------------  -----------------  -----------------
         O           -1.663559648296     1.361781952794    -0.092031286171    15.994914619570
         O            3.295096351704     0.872727952794    -0.048822286171    15.994914619570
         O            2.667772351704    -1.299418047206     0.073242713829    15.994914619570
         C           -2.571270648296    -0.863568047206     0.024405713829    12.000000000000
         C           -1.451283648296     0.151101952794    -0.019254286171    12.000000000000
         C           -3.952592648296    -0.230588047206    -0.030526286171    12.000000000000
         C           -0.062478548296    -0.384761647206     0.122850813829    12.000000000000
         C            0.998498351704     0.431245952794    -0.017239286171    12.000000000000
         C            2.370372351704    -0.117547047206     0.012580713829    12.000000000000
         H           -2.441873648296    -1.463328047206     0.935000713829     1.007825032230
         H           -2.418854648296    -1.563938047206    -0.809689286171     1.007825032230
         H           -4.100059648296     0.448249952794     0.812232713829     1.007825032230
         H           -4.728427648296    -0.999644047206     0.000881713829     1.007825032230
         H           -4.074851648296     0.351137952794    -0.946492286171     1.007825032230
         H            0.088304351704    -1.466337047206     0.086695713829     1.007825032230
         H            0.868238351704     1.507144952794    -0.078086286171     1.007825032230
         H            4.164433351704     0.421043952794    -0.032670286171     1.007825032230

  Basis Set: AUG-CC-PVTZ
    Blend: AUG-CC-PVTZ
  Basis Set: (AUG-CC-PVTZ AUX)
    Blend: AUG-CC-PVTZ-JKFIT
	 Reference Energy          =    -456.6255537766026578 [Eh]
	 Singles Energy            =      -0.0000000000000000 [Eh]
	 Same-Spin Energy          =      -0.4484494663085995 [Eh]
	 Opposite-Spin Energy      =      -1.4094604237838109 [Eh]
	 Correlation Energy        =      -1.8579098900924103 [Eh]
	 Total Energy              =    -458.4834636666950587 [Eh]

	 ================> DF-SCS-MP2 Energies <==================
	-----------------------------------------------------------
	 SCS Same-Spin Scale       =       0.3333333333333333 [-]
	 SCS Opposite-Spin Scale   =       1.2000000000000000 [-]
	 SCS Same-Spin Energy      =      -0.1494831554361998 [Eh]
	 SCS Opposite-Spin Energy  =      -1.6913525085405730 [Eh]
	 SCS Correlation Energy    =      -1.8408356639767729 [Eh]
	 SCS Total Energy          =    -458.4663894405794053 [Eh]
	-----------------------------------------------------------

  Dipole Moment: [D]
     X:    -0.1624      Y:    -1.1754      Z:     0.0134     Total:     1.1867

*** Psi4 exiting successfully. Buy a developer a beer!
