                               Psi4 1.4a2.dev612

  ==> Input File <==

--------------------------------------------------------------------------
#psi4
#
memory 32 gb

molecule  {
0 1
  O       -1.6636540     1.3623100    -0.0826750
  O        3.2950020     0.8732560    -0.0394660
  O        2.6676780    -1.2988900     0.0825990
  C       -2.5713650    -0.8630400     0.0337620
  C       -1.4513780     0.1516300    -0.0098980
  C       -3.9526870    -0.2300600    -0.0211700
  C       -0.0615660    -0.3898680     0.0323710
  C        0.9979363     0.4234926    -0.1576535
  C        2.3702780    -0.1170190     0.0219370
  H       -2.4419680    -1.4628000     0.9443570
  H       -2.4189490    -1.5634100    -0.8003330
  H       -4.1001540     0.4487780     0.8215890
  H       -4.7285220    -0.9991160     0.0102380
  H       -4.0749460     0.3516660    -0.9371360
  H        0.0882100    -1.4658090     0.0960520
  H        0.8681440     1.5076730    -0.0687300
  H        4.1643390     0.4215720    -0.0233140
units angstrom
no_reorient  #important for SAPT in psi4, default
symmetry c1  #important for SAPT in psi4, default
}

set PROPERTIES_ORIGIN ["COM"]
properties('MP2/aug-cc-pvtz', properties = ['dipole'])
--------------------------------------------------------------------------

    Molecular point group: c1
  Charge       = 0
  Multiplicity = 1
  Basis Set: AUG-CC-PVTZ
    Blend: AUG-CC-PVTZ
  Basis Set: (AUG-CC-PVTZ AUX)
    Blend: AUG-CC-PVTZ-JKFIT

    Orbital Energies [Eh]
    ---------------------

    Doubly Occupied:

       1A    -20.627052     2A    -20.561434     3A    -20.560898
       4A    -11.405556     5A    -11.350494     6A    -11.279266
       7A    -11.277241     8A    -11.252918     9A    -11.225479
      10A     -1.471610    11A     -1.391210    12A     -1.367009
      13A     -1.107676    14A     -1.065638    15A     -0.956318
      16A     -0.886671    17A     -0.798844    18A     -0.745391
      19A     -0.717469    20A     -0.712376    21A     -0.661096
      22A     -0.643962    23A     -0.640827    24A     -0.637959
      25A     -0.604924    26A     -0.568291    27A     -0.541310
      28A     -0.538358    29A     -0.524770    30A     -0.500822
      31A     -0.496012    32A     -0.469828    33A     -0.435978
      34A     -0.403455

  @DF-RHF Final Energy:  -456.62186502905848

   => Energetics <=

    Nuclear Repulsion Energy =            413.2275063182521535
    One-Electron Energy =               -1442.8424603176547407
    Two-Electron Energy =                 572.9930889703441608
    Total Energy =                       -456.6218650290584264
  Basis Set: (AUG-CC-PVTZ AUX)
    Blend: AUG-CC-PVTZ-RI
    Molecular point group: c1

    Geometry (in Angstrom), charge = 0, multiplicity = 1:

       Center              X                  Y                   Z               Mass
    ------------   -----------------  -----------------  -----------------  -----------------
         O           -1.663610179605     1.363086076680    -0.068639319546    15.994914619570
         O            3.295045820395     0.874032076680    -0.025430319546    15.994914619570
         O            2.667721820395    -1.298113923320     0.096634680454    15.994914619570
         C           -2.571321179605    -0.862263923320     0.047797680454    12.000000000000
         C           -1.451334179605     0.152406076680     0.004137680454    12.000000000000
         C           -3.952643179605    -0.229283923320    -0.007134319546    12.000000000000
         C           -0.061522179605    -0.389091923320     0.046406680454    12.000000000000
         C            0.997980120395     0.424268676680    -0.143617819546    12.000000000000
         C            2.370321820395    -0.116242923320     0.035972680454    12.000000000000
         H           -2.441924179605    -1.462023923320     0.958392680454     1.007825032230
         H           -2.418905179605    -1.562633923320    -0.786297319546     1.007825032230
         H           -4.100110179605     0.449554076680     0.835624680454     1.007825032230
         H           -4.728478179605    -0.998339923320     0.024273680454     1.007825032230
         H           -4.074902179605     0.352442076680    -0.923100319546     1.007825032230
         H            0.088253820395    -1.465032923320     0.110087680454     1.007825032230
         H            0.868187820395     1.508449076680    -0.054694319546     1.007825032230
         H            4.164382820395     0.422348076680    -0.009278319546     1.007825032230

  Basis Set: AUG-CC-PVTZ
    Blend: AUG-CC-PVTZ
  Basis Set: (AUG-CC-PVTZ AUX)
    Blend: AUG-CC-PVTZ-JKFIT
	 Reference Energy          =    -456.6218650290584833 [Eh]
	 Singles Energy            =      -0.0000000000000000 [Eh]
	 Same-Spin Energy          =      -0.4486107872096371 [Eh]
	 Opposite-Spin Energy      =      -1.4098092302373773 [Eh]
	 Correlation Energy        =      -1.8584200174470142 [Eh]
	 Total Energy              =    -458.4802850465055144 [Eh]

	 ================> DF-SCS-MP2 Energies <==================
	-----------------------------------------------------------
	 SCS Same-Spin Scale       =       0.3333333333333333 [-]
	 SCS Opposite-Spin Scale   =       1.2000000000000000 [-]
	 SCS Same-Spin Energy      =      -0.1495369290698790 [Eh]
	 SCS Opposite-Spin Energy  =      -1.6917710762848526 [Eh]
	 SCS Correlation Energy    =      -1.8413080053547315 [Eh]
	 SCS Total Energy          =    -458.4631730344132166 [Eh]
	-----------------------------------------------------------

  Dipole Moment: [D]
     X:    -0.2087      Y:    -1.1986      Z:     0.1231     Total:     1.2228

*** Psi4 exiting successfully. Buy a developer a beer!
