                               Psi4 1.4a2.dev612

  ==> Input File <==

--------------------------------------------------------------------------
#psi4
#
memory 32 gb

molecule  {
0 1
  O       -1.6636540     1.3623100    -0.0826750
  O        3.2950020     0.8732560    -0.0394660
  O        2.6676780    -1.2988900     0.0825990
  C       -2.5713650    -0.8630400     0.0337620
  C       -1.4513780     0.1516300    -0.0098980
  C       -3.9526870    -0.2300600    -0.0211700
  C       -0.0615660    -0.3898680     0.0323710
  C        0.9984040     0.4317740    -0.0078830
  C        2.3702780    -0.1170190     0.0219370
  H       -2.4419680    -1.4628000     0.9443570
  H       -2.4189490    -1.5634100    -0.8003330
  H       -4.1001540     0.4487780     0.8215890
  H       -4.7285220    -0.9991160     0.0102380
  H       -4.0749460     0.3516660    -0.9371360
  H        0.0897069    -1.4774625    -0.1036026
  H        0.8681440     1.5076730    -0.0687300
  H        4.1643390     0.4215720    -0.0233140
units angstrom
no_reorient  #important for SAPT in psi4, default
symmetry c1  #important for SAPT in psi4, default
}

set PROPERTIES_ORIGIN ["COM"]
properties('MP2/aug-cc-pvtz', properties = ['dipole'])
--------------------------------------------------------------------------

    Molecular point group: c1
  Charge       = 0
  Multiplicity = 1
  Basis Set: AUG-CC-PVTZ
    Blend: AUG-CC-PVTZ
  Basis Set: (AUG-CC-PVTZ AUX)
    Blend: AUG-CC-PVTZ-JKFIT

    Orbital Energies [Eh]
    ---------------------

    Doubly Occupied:

       1A    -20.627671     2A    -20.561441     3A    -20.560769
       4A    -11.405503     5A    -11.349985     6A    -11.278238
       7A    -11.276086     8A    -11.252388     9A    -11.225103
      10A     -1.472303    11A     -1.390686    12A     -1.367552
      13A     -1.108726    14A     -1.065636    15A     -0.956987
      16A     -0.887477    17A     -0.798907    18A     -0.744487
      19A     -0.718456    20A     -0.712283    21A     -0.661395
      22A     -0.644098    23A     -0.640741    24A     -0.639084
      25A     -0.606475    26A     -0.568791    27A     -0.540468
      28A     -0.538060    29A     -0.524319    30A     -0.500832
      31A     -0.496054    32A     -0.471288    33A     -0.435521
      34A     -0.403636

  @DF-RHF Final Energy:  -456.62573599736135

   => Energetics <=

    Nuclear Repulsion Energy =            413.3926169085027595
    One-Electron Energy =               -1443.1738096389699422
    Two-Electron Energy =                 573.1554567331058934
    Total Energy =                       -456.6257359973612893
  Basis Set: (AUG-CC-PVTZ AUX)
    Blend: AUG-CC-PVTZ-RI
    Molecular point group: c1

    Geometry (in Angstrom), charge = 0, multiplicity = 1:

       Center              X                  Y                   Z               Mass
    ------------   -----------------  -----------------  -----------------  -----------------
         O           -1.663665791952     1.362401703946    -0.081103686592    15.994914619570
         O            3.294990208048     0.873347703946    -0.037894686592    15.994914619570
         O            2.667666208048    -1.298798296054     0.084170313408    15.994914619570
         C           -2.571376791952    -0.862948296054     0.035333313408    12.000000000000
         C           -1.451389791952     0.151721703946    -0.008326686592    12.000000000000
         C           -3.952698791952    -0.229968296054    -0.019598686592    12.000000000000
         C           -0.061577791952    -0.389776296054     0.033942313408    12.000000000000
         C            0.998392208048     0.431865703946    -0.006311686592    12.000000000000
         C            2.370266208048    -0.116927296054     0.023508313408    12.000000000000
         H           -2.441979791952    -1.462708296054     0.945928313408     1.007825032230
         H           -2.418960791952    -1.563318296054    -0.798761686592     1.007825032230
         H           -4.100165791952     0.448869703946     0.823160313408     1.007825032230
         H           -4.728533791952    -0.999024296054     0.011809313408     1.007825032230
         H           -4.074957791952     0.351757703946    -0.935564686592     1.007825032230
         H            0.089695108048    -1.477370796054    -0.102031286592     1.007825032230
         H            0.868132208048     1.507764703946    -0.067158686592     1.007825032230
         H            4.164327208048     0.421663703946    -0.021742686592     1.007825032230

  Basis Set: AUG-CC-PVTZ
    Blend: AUG-CC-PVTZ
  Basis Set: (AUG-CC-PVTZ AUX)
    Blend: AUG-CC-PVTZ-JKFIT
	 Reference Energy          =    -456.6257359973613461 [Eh]
	 Singles Energy            =      -0.0000000000000000 [Eh]
	 Same-Spin Energy          =      -0.4484143505563534 [Eh]
	 Opposite-Spin Energy      =      -1.4093741570105367 [Eh]
	 Correlation Energy        =      -1.8577885075668901 [Eh]
	 Total Energy              =    -458.4835245049282548 [Eh]

	 ================> DF-SCS-MP2 Energies <==================
	-----------------------------------------------------------
	 SCS Same-Spin Scale       =       0.3333333333333333 [-]
	 SCS Opposite-Spin Scale   =       1.2000000000000000 [-]
	 SCS Same-Spin Energy      =      -0.1494714501854511 [Eh]
	 SCS Opposite-Spin Energy  =      -1.6912489884126440 [Eh]
	 SCS Correlation Energy    =      -1.8407204385980951 [Eh]
	 SCS Total Energy          =    -458.4664564359594578 [Eh]
	-----------------------------------------------------------

  Dipole Moment: [D]
     X:    -0.1714      Y:    -1.1731      Z:    -0.0616     Total:     1.1871

*** Psi4 exiting successfully. Buy a developer a beer!
