                               Psi4 1.4a2.dev612

  ==> Input File <==

--------------------------------------------------------------------------
#psi4
#
memory 32 gb

molecule  {
0 1
  O       -1.6636540     1.3623100    -0.0826750
  O        3.2950020     0.8732560    -0.0394660
  O        2.6676780    -1.2988900     0.0825990
  C       -2.5713650    -0.8630400     0.0337620
  C       -1.4513780     0.1516300    -0.0098980
  C       -3.9526870    -0.2300600    -0.0211700
  C       -0.0615660    -0.3898680     0.0323710
  C        0.9984040     0.4317740    -0.0078830
  C        2.3702780    -0.1170190     0.0219370
  H       -2.4419680    -1.4628000     0.9443570
  H       -2.4189490    -1.5634100    -0.8003330
  H       -4.1001540     0.4487780     0.8215890
  H       -4.7285220    -0.9991160     0.0102380
  H       -4.0749460     0.3516660    -0.9371360
  H        0.0882100    -1.4658090     0.0960520
  H        0.8680549     1.5103768    -0.0188032
  H        4.1643390     0.4215720    -0.0233140
units angstrom
no_reorient  #important for SAPT in psi4, default
symmetry c1  #important for SAPT in psi4, default
}

set PROPERTIES_ORIGIN ["COM"]
properties('MP2/aug-cc-pvtz', properties = ['dipole'])
--------------------------------------------------------------------------

    Molecular point group: c1
  Charge       = 0
  Multiplicity = 1
  Basis Set: AUG-CC-PVTZ
    Blend: AUG-CC-PVTZ
  Basis Set: (AUG-CC-PVTZ AUX)
    Blend: AUG-CC-PVTZ-JKFIT

    Orbital Energies [Eh]
    ---------------------

    Doubly Occupied:

       1A    -20.627599     2A    -20.561368     3A    -20.560694
       4A    -11.405443     5A    -11.349968     6A    -11.276996
       7A    -11.275329     8A    -11.252508     9A    -11.225180
      10A     -1.472234    11A     -1.390621    12A     -1.367510
      13A     -1.109076    14A     -1.065685    15A     -0.957254
      16A     -0.887586    17A     -0.798986    18A     -0.746864
      19A     -0.718383    20A     -0.712938    21A     -0.661446
      22A     -0.643995    23A     -0.640808    24A     -0.639057
      25A     -0.606843    26A     -0.570228    27A     -0.540023
      28A     -0.539340    29A     -0.524420    30A     -0.500922
      31A     -0.496060    32A     -0.471220    33A     -0.435353
      34A     -0.404191

  @DF-RHF Final Energy:  -456.62820641001389

   => Energetics <=

    Nuclear Repulsion Energy =            413.4628266181467779
    One-Electron Energy =               -1443.3098100977670128
    Two-Electron Energy =                 573.2187770696061762
    Total Energy =                       -456.6282064100139451
  Basis Set: (AUG-CC-PVTZ AUX)
    Blend: AUG-CC-PVTZ-RI
    Molecular point group: c1

    Geometry (in Angstrom), charge = 0, multiplicity = 1:

       Center              X                  Y                   Z               Mass
    ------------   -----------------  -----------------  -----------------  -----------------
         O           -1.663653308987     1.362288701631    -0.083068072376    15.994914619570
         O            3.295002691013     0.873234701631    -0.039859072376    15.994914619570
         O            2.667678691013    -1.298911298369     0.082205927624    15.994914619570
         C           -2.571364308987    -0.863061298369     0.033368927624    12.000000000000
         C           -1.451377308987     0.151608701631    -0.010291072376    12.000000000000
         C           -3.952686308987    -0.230081298369    -0.021563072376    12.000000000000
         C           -0.061565308987    -0.389889298369     0.031977927624    12.000000000000
         C            0.998404691013     0.431752701631    -0.008276072376    12.000000000000
         C            2.370278691013    -0.117040298369     0.021543927624    12.000000000000
         H           -2.441967308987    -1.462821298369     0.943963927624     1.007825032230
         H           -2.418948308987    -1.563431298369    -0.800726072376     1.007825032230
         H           -4.100153308987     0.448756701631     0.821195927624     1.007825032230
         H           -4.728521308987    -0.999137298369     0.009844927624     1.007825032230
         H           -4.074945308987     0.351644701631    -0.937529072376     1.007825032230
         H            0.088210691013    -1.465830298369     0.095658927624     1.007825032230
         H            0.868055591013     1.510355501631    -0.019196272376     1.007825032230
         H            4.164339691013     0.421550701631    -0.023707072376     1.007825032230

  Basis Set: AUG-CC-PVTZ
    Blend: AUG-CC-PVTZ
  Basis Set: (AUG-CC-PVTZ AUX)
    Blend: AUG-CC-PVTZ-JKFIT
	 Reference Energy          =    -456.6282064100138882 [Eh]
	 Singles Energy            =      -0.0000000000000000 [Eh]
	 Same-Spin Energy          =      -0.4482834384156307 [Eh]
	 Opposite-Spin Energy      =      -1.4091005061139279 [Eh]
	 Correlation Energy        =      -1.8573839445295586 [Eh]
	 Total Energy              =    -458.4855903545434330 [Eh]

	 ================> DF-SCS-MP2 Energies <==================
	-----------------------------------------------------------
	 SCS Same-Spin Scale       =       0.3333333333333333 [-]
	 SCS Opposite-Spin Scale   =       1.2000000000000000 [-]
	 SCS Same-Spin Energy      =      -0.1494278128052102 [Eh]
	 SCS Opposite-Spin Energy  =      -1.6909206073367133 [Eh]
	 SCS Correlation Energy    =      -1.8403484201419236 [Eh]
	 SCS Total Energy          =    -458.4685548301558242 [Eh]
	-----------------------------------------------------------

  Dipole Moment: [D]
     X:    -0.1739      Y:    -1.1810      Z:     0.0947     Total:     1.1975

*** Psi4 exiting successfully. Buy a developer a beer!
