                               Psi4 1.4a2.dev612

  ==> Input File <==

--------------------------------------------------------------------------
#psi4
#
memory 32 gb

molecule  {
0 1
  O       -1.6636540     1.3623100    -0.0826750
  O        3.2950020     0.8732560    -0.0394660
  O        2.6676780    -1.2988900     0.0825990
  C       -2.5713650    -0.8630400     0.0337620
  C       -1.4513780     0.1516300    -0.0098980
  C       -3.9526870    -0.2300600    -0.0211700
  C       -0.0615660    -0.3898680     0.0323710
  C        0.9984040     0.4317740    -0.0078830
  C        2.3702780    -0.1170190     0.0219370
  H       -2.4419680    -1.4628000     0.9443570
  H       -2.4189490    -1.5634100    -0.8003330
  H       -4.1001540     0.4487780     0.8215890
  H       -4.7285220    -0.9991160     0.0102380
  H       -4.0749460     0.3516660    -0.9371360
  H        0.0893326    -1.4745491    -0.0536889
  H        0.8681440     1.5076730    -0.0687300
  H        4.1643390     0.4215720    -0.0233140
units angstrom
no_reorient  #important for SAPT in psi4, default
symmetry c1  #important for SAPT in psi4, default
}

set PROPERTIES_ORIGIN ["COM"]
properties('MP2/aug-cc-pvtz', properties = ['dipole'])
--------------------------------------------------------------------------

    Molecular point group: c1
  Charge       = 0
  Multiplicity = 1
  Basis Set: AUG-CC-PVTZ
    Blend: AUG-CC-PVTZ
  Basis Set: (AUG-CC-PVTZ AUX)
    Blend: AUG-CC-PVTZ-JKFIT

    Orbital Energies [Eh]
    ---------------------

    Doubly Occupied:

       1A    -20.627645     2A    -20.561412     3A    -20.560737
       4A    -11.405481     5A    -11.349980     6A    -11.277632
       7A    -11.275768     8A    -11.252441     9A    -11.225137
      10A     -1.472278    11A     -1.390660    12A     -1.367538
      13A     -1.108882    14A     -1.065660    15A     -0.957106
      16A     -0.887523    17A     -0.798947    18A     -0.745555
      19A     -0.718435    20A     -0.712583    21A     -0.661416
      22A     -0.644040    23A     -0.640781    24A     -0.639103
      25A     -0.606632    26A     -0.569441    27A     -0.540381
      28A     -0.538534    29A     -0.524365    30A     -0.500880
      31A     -0.496060    32A     -0.471265    33A     -0.435448
      34A     -0.403912

  @DF-RHF Final Energy:  -456.62693719465989

   => Energetics <=

    Nuclear Repulsion Energy =            413.4257702278113698
    One-Electron Energy =               -1443.2381017711527420
    Two-Electron Energy =                 573.1853943486814842
    Total Energy =                       -456.6269371946598312
  Basis Set: (AUG-CC-PVTZ AUX)
    Blend: AUG-CC-PVTZ-RI
    Molecular point group: c1

    Geometry (in Angstrom), charge = 0, multiplicity = 1:

       Center              X                  Y                   Z               Mass
    ------------   -----------------  -----------------  -----------------  -----------------
         O           -1.663662845941     1.362378773385    -0.081496543442    15.994914619570
         O            3.294993154059     0.873324773385    -0.038287543442    15.994914619570
         O            2.667669154059    -1.298821226615     0.083777456558    15.994914619570
         C           -2.571373845941    -0.862971226615     0.034940456558    12.000000000000
         C           -1.451386845941     0.151698773385    -0.008719543442    12.000000000000
         C           -3.952695845941    -0.229991226615    -0.019991543442    12.000000000000
         C           -0.061574845941    -0.389799226615     0.033549456558    12.000000000000
         C            0.998395154059     0.431842773385    -0.006704543442    12.000000000000
         C            2.370269154059    -0.116950226615     0.023115456558    12.000000000000
         H           -2.441976845941    -1.462731226615     0.945535456558     1.007825032230
         H           -2.418957845941    -1.563341226615    -0.799154543442     1.007825032230
         H           -4.100162845941     0.448846773385     0.822767456558     1.007825032230
         H           -4.728530845941    -0.999047226615     0.011416456558     1.007825032230
         H           -4.074954845941     0.351734773385    -0.935957543442     1.007825032230
         H            0.089323754059    -1.474480326615    -0.052510443442     1.007825032230
         H            0.868135154059     1.507741773385    -0.067551543442     1.007825032230
         H            4.164330154059     0.421640773385    -0.022135543442     1.007825032230

  Basis Set: AUG-CC-PVTZ
    Blend: AUG-CC-PVTZ
  Basis Set: (AUG-CC-PVTZ AUX)
    Blend: AUG-CC-PVTZ-JKFIT
	 Reference Energy          =    -456.6269371946598881 [Eh]
	 Singles Energy            =      -0.0000000000000000 [Eh]
	 Same-Spin Energy          =      -0.4483535568296939 [Eh]
	 Opposite-Spin Energy      =      -1.4092412907143030 [Eh]
	 Correlation Energy        =      -1.8575948475439970 [Eh]
	 Total Energy              =    -458.4845320422039094 [Eh]

	 ================> DF-SCS-MP2 Energies <==================
	-----------------------------------------------------------
	 SCS Same-Spin Scale       =       0.3333333333333333 [-]
	 SCS Opposite-Spin Scale   =       1.2000000000000000 [-]
	 SCS Same-Spin Energy      =      -0.1494511856098980 [Eh]
	 SCS Opposite-Spin Energy  =      -1.6910895488571636 [Eh]
	 SCS Correlation Energy    =      -1.8405407344670615 [Eh]
	 SCS Total Energy          =    -458.4674779291269715 [Eh]
	-----------------------------------------------------------

  Dipole Moment: [D]
     X:    -0.1723      Y:    -1.1783      Z:    -0.0310     Total:     1.1913

*** Psi4 exiting successfully. Buy a developer a beer!
