                               Psi4 1.4a2.dev612

  ==> Input File <==

--------------------------------------------------------------------------
#psi4
#
memory 32 gb

molecule  {
0 1
  O       -1.6636540     1.3623100    -0.0826750
  O        3.2950020     0.8732560    -0.0394660
  O        2.6676780    -1.2988900     0.0825990
  C       -2.5713650    -0.8630400     0.0337620
  C       -1.4513780     0.1516300    -0.0098980
  C       -3.9526870    -0.2300600    -0.0211700
  C       -0.0615660    -0.3898680     0.0323710
  C        0.9984040     0.4317740    -0.0078830
  C        2.3702780    -0.1170190     0.0219370
  H       -2.4419680    -1.4628000     0.9443570
  H       -2.4189490    -1.5634100    -0.8003330
  H       -4.1001540     0.4487780     0.8215890
  H       -4.7285220    -0.9991160     0.0102380
  H       -4.0749460     0.3516660    -0.9371360
  H        0.0882100    -1.4658090     0.0960520
  H        0.8676091     1.5238957     0.2308306
  H        4.1643390     0.4215720    -0.0233140
units angstrom
no_reorient  #important for SAPT in psi4, default
symmetry c1  #important for SAPT in psi4, default
}

set PROPERTIES_ORIGIN ["COM"]
properties('MP2/aug-cc-pvtz', properties = ['dipole'])
--------------------------------------------------------------------------

    Molecular point group: c1
  Charge       = 0
  Multiplicity = 1
  Basis Set: AUG-CC-PVTZ
    Blend: AUG-CC-PVTZ
  Basis Set: (AUG-CC-PVTZ AUX)
    Blend: AUG-CC-PVTZ-JKFIT

    Orbital Energies [Eh]
    ---------------------

    Doubly Occupied:

       1A    -20.627331     2A    -20.561442     3A    -20.560770
       4A    -11.405349     5A    -11.349971     6A    -11.279762
       7A    -11.276788     8A    -11.252588     9A    -11.225239
      10A     -1.472046    11A     -1.390599    12A     -1.367445
      13A     -1.108496    14A     -1.065514    15A     -0.956796
      16A     -0.887608    17A     -0.798369    18A     -0.741950
      19A     -0.717557    20A     -0.712680    21A     -0.661569
      22A     -0.645253    23A     -0.640098    24A     -0.636165
      25A     -0.606757    26A     -0.566355    27A     -0.539628
      28A     -0.539191    29A     -0.524485    30A     -0.500728
      31A     -0.496009    32A     -0.470910    33A     -0.435431
      34A     -0.402725

  @DF-RHF Final Energy:  -456.62193017317236

   => Energetics <=

    Nuclear Repulsion Energy =            413.2915943436666453
    One-Electron Energy =               -1442.9798457753338425
    Two-Electron Energy =                 573.0663212584947814
    Total Energy =                       -456.6219301731723590
  Basis Set: (AUG-CC-PVTZ AUX)
    Blend: AUG-CC-PVTZ-RI
    Molecular point group: c1

    Geometry (in Angstrom), charge = 0, multiplicity = 1:

       Center              X                  Y                   Z               Mass
    ------------   -----------------  -----------------  -----------------  -----------------
         O           -1.663649800219     1.362182298129    -0.085032870586    15.994914619570
         O            3.295006199781     0.873128298129    -0.041823870586    15.994914619570
         O            2.667682199781    -1.299017701871     0.080241129414    15.994914619570
         C           -2.571360800219    -0.863167701871     0.031404129414    12.000000000000
         C           -1.451373800219     0.151502298129    -0.012255870586    12.000000000000
         C           -3.952682800219    -0.230187701871    -0.023527870586    12.000000000000
         C           -0.061561800219    -0.389995701871     0.030013129414    12.000000000000
         C            0.998408199781     0.431646298129    -0.010240870586    12.000000000000
         C            2.370282199781    -0.117146701871     0.019579129414    12.000000000000
         H           -2.441963800219    -1.462927701871     0.941999129414     1.007825032230
         H           -2.418944800219    -1.563537701871    -0.802690870586     1.007825032230
         H           -4.100149800219     0.448650298129     0.819231129414     1.007825032230
         H           -4.728517800219    -0.999243701871     0.007880129414     1.007825032230
         H           -4.074941800219     0.351538298129    -0.939493870586     1.007825032230
         H            0.088214199781    -1.465936701871     0.093694129414     1.007825032230
         H            0.867613299781     1.523767998129     0.228472729414     1.007825032230
         H            4.164343199781     0.421444298129    -0.025671870586     1.007825032230

  Basis Set: AUG-CC-PVTZ
    Blend: AUG-CC-PVTZ
  Basis Set: (AUG-CC-PVTZ AUX)
    Blend: AUG-CC-PVTZ-JKFIT
	 Reference Energy          =    -456.6219301731723590 [Eh]
	 Singles Energy            =      -0.0000000000000000 [Eh]
	 Same-Spin Energy          =      -0.4485859242765073 [Eh]
	 Opposite-Spin Energy      =      -1.4097434677648470 [Eh]
	 Correlation Energy        =      -1.8583293920413544 [Eh]
	 Total Energy              =    -458.4802595652137143 [Eh]

	 ================> DF-SCS-MP2 Energies <==================
	-----------------------------------------------------------
	 SCS Same-Spin Scale       =       0.3333333333333333 [-]
	 SCS Opposite-Spin Scale   =       1.2000000000000000 [-]
	 SCS Same-Spin Energy      =      -0.1495286414255024 [Eh]
	 SCS Opposite-Spin Energy  =      -1.6916921613178164 [Eh]
	 SCS Correlation Energy    =      -1.8412208027433188 [Eh]
	 SCS Total Energy          =    -458.4631509759156529 [Eh]
	-----------------------------------------------------------

  Dipole Moment: [D]
     X:    -0.1723      Y:    -1.1986      Z:     0.2601     Total:     1.2385

*** Psi4 exiting successfully. Buy a developer a beer!
