                               Psi4 1.4a2.dev612

  ==> Input File <==

--------------------------------------------------------------------------
#psi4
#
memory 32 gb

molecule  {
0 1
  O       -1.6636540     1.3623100    -0.0826750
  O        3.2950020     0.8732560    -0.0394660
  O        2.6676780    -1.2988900     0.0825990
  C       -2.5713650    -0.8630400     0.0337620
  C       -1.4513780     0.1516300    -0.0098980
  C       -3.9526870    -0.2300600    -0.0211700
  C       -0.0615660    -0.3898680     0.0323710
  C        0.9980922     0.4262531    -0.1077300
  C        2.3702780    -0.1170190     0.0219370
  H       -2.4419680    -1.4628000     0.9443570
  H       -2.4189490    -1.5634100    -0.8003330
  H       -4.1001540     0.4487780     0.8215890
  H       -4.7285220    -0.9991160     0.0102380
  H       -4.0749460     0.3516660    -0.9371360
  H        0.0882100    -1.4658090     0.0960520
  H        0.8681440     1.5076730    -0.0687300
  H        4.1643390     0.4215720    -0.0233140
units angstrom
no_reorient  #important for SAPT in psi4, default
symmetry c1  #important for SAPT in psi4, default
}

set PROPERTIES_ORIGIN ["COM"]
properties('MP2/aug-cc-pvtz', properties = ['dipole'])
--------------------------------------------------------------------------

    Molecular point group: c1
  Charge       = 0
  Multiplicity = 1
  Basis Set: AUG-CC-PVTZ
    Blend: AUG-CC-PVTZ
  Basis Set: (AUG-CC-PVTZ AUX)
    Blend: AUG-CC-PVTZ-JKFIT

    Orbital Energies [Eh]
    ---------------------

    Doubly Occupied:

       1A    -20.627359     2A    -20.561174     3A    -20.561001
       4A    -11.405497     5A    -11.350186     6A    -11.277894
       7A    -11.276148     8A    -11.252679     9A    -11.225305
      10A     -1.471962    11A     -1.390868    12A     -1.367295
      13A     -1.108482    14A     -1.065666    15A     -0.956818
      16A     -0.887177    17A     -0.798926    18A     -0.746263
      19A     -0.717976    20A     -0.712707    21A     -0.661282
      22A     -0.643956    23A     -0.640826    24A     -0.638618
      25A     -0.605986    26A     -0.569438    27A     -0.540737
      28A     -0.538759    29A     -0.524567    30A     -0.500872
      31A     -0.496044    32A     -0.470607    33A     -0.435611
      34A     -0.403920

  @DF-RHF Final Energy:  -456.62549721767755

   => Energetics <=

    Nuclear Repulsion Energy =            413.3657926757495034
    One-Electron Energy =               -1443.1173693351297516
    Two-Electron Energy =                 573.1260794417025863
    Total Energy =                       -456.6254972176775482
  Basis Set: (AUG-CC-PVTZ AUX)
    Blend: AUG-CC-PVTZ-RI
    Molecular point group: c1

    Geometry (in Angstrom), charge = 0, multiplicity = 1:

       Center              X                  Y                   Z               Mass
    ------------   -----------------  -----------------  -----------------  -----------------
         O           -1.663624789826     1.362827375493    -0.073317917170    15.994914619570
         O            3.295031210174     0.873773375493    -0.030108917170    15.994914619570
         O            2.667707210174    -1.298372624507     0.091956082830    15.994914619570
         C           -2.571335789826    -0.862522624507     0.043119082830    12.000000000000
         C           -1.451348789826     0.152147375493    -0.000540917170    12.000000000000
         C           -3.952657789826    -0.229542624507    -0.011812917170    12.000000000000
         C           -0.061536789826    -0.389350624507     0.041728082830    12.000000000000
         C            0.998121410174     0.426770475493    -0.098372917170    12.000000000000
         C            2.370307210174    -0.116501624507     0.031294082830    12.000000000000
         H           -2.441938789826    -1.462282624507     0.953714082830     1.007825032230
         H           -2.418919789826    -1.562892624507    -0.790975917170     1.007825032230
         H           -4.100124789826     0.449295375493     0.830946082830     1.007825032230
         H           -4.728492789826    -0.998598624507     0.019595082830     1.007825032230
         H           -4.074916789826     0.352183375493    -0.927778917170     1.007825032230
         H            0.088239210174    -1.465291624507     0.105409082830     1.007825032230
         H            0.868173210174     1.508190375493    -0.059372917170     1.007825032230
         H            4.164368210174     0.422089375493    -0.013956917170     1.007825032230

  Basis Set: AUG-CC-PVTZ
    Blend: AUG-CC-PVTZ
  Basis Set: (AUG-CC-PVTZ AUX)
    Blend: AUG-CC-PVTZ-JKFIT
	 Reference Energy          =    -456.6254972176775482 [Eh]
	 Singles Energy            =      -0.0000000000000000 [Eh]
	 Same-Spin Energy          =      -0.4484217265638932 [Eh]
	 Opposite-Spin Energy      =      -1.4093656171083104 [Eh]
	 Correlation Energy        =      -1.8577873436722037 [Eh]
	 Total Energy              =    -458.4832845613497625 [Eh]

	 ================> DF-SCS-MP2 Energies <==================
	-----------------------------------------------------------
	 SCS Same-Spin Scale       =       0.3333333333333333 [-]
	 SCS Opposite-Spin Scale   =       1.2000000000000000 [-]
	 SCS Same-Spin Energy      =      -0.1494739088546311 [Eh]
	 SCS Opposite-Spin Energy  =      -1.6912387405299725 [Eh]
	 SCS Correlation Energy    =      -1.8407126493846035 [Eh]
	 SCS Total Energy          =    -458.4662098670621617 [Eh]
	-----------------------------------------------------------

  Dipole Moment: [D]
     X:    -0.1890      Y:    -1.1888      Z:     0.1016     Total:     1.2081

*** Psi4 exiting successfully. Buy a developer a beer!
