                               Psi4 1.4a2.dev612

  ==> Input File <==

--------------------------------------------------------------------------
#psi4
#
memory 32 gb

molecule  {
0 1
  O       -1.6636540     1.3623100    -0.0826750
  O        3.2950020     0.8732560    -0.0394660
  O        2.6676780    -1.2988900     0.0825990
  C       -2.5713650    -0.8630400     0.0337620
  C       -1.4513780     0.1516300    -0.0098980
  C       -3.9526870    -0.2300600    -0.0211700
  C       -0.0615660    -0.3898680     0.0323710
  C        0.9984040     0.4317740    -0.0078830
  C        2.3702780    -0.1170190     0.0219370
  H       -2.4419680    -1.4628000     0.9443570
  H       -2.4189490    -1.5634100    -0.8003330
  H       -4.1001540     0.4487780     0.8215890
  H       -4.7285220    -0.9991160     0.0102380
  H       -4.0749460     0.3516660    -0.9371360
  H        0.0882100    -1.4658090     0.0960520
  H        0.8677874     1.5184881     0.1309771
  H        4.1643390     0.4215720    -0.0233140
units angstrom
no_reorient  #important for SAPT in psi4, default
symmetry c1  #important for SAPT in psi4, default
}

set PROPERTIES_ORIGIN ["COM"]
properties('MP2/aug-cc-pvtz', properties = ['dipole'])
--------------------------------------------------------------------------

    Molecular point group: c1
  Charge       = 0
  Multiplicity = 1
  Basis Set: AUG-CC-PVTZ
    Blend: AUG-CC-PVTZ
  Basis Set: (AUG-CC-PVTZ AUX)
    Blend: AUG-CC-PVTZ-JKFIT

    Orbital Energies [Eh]
    ---------------------

    Doubly Occupied:

       1A    -20.627482     2A    -20.561397     3A    -20.560723
       4A    -11.405395     5A    -11.349966     6A    -11.278063
       7A    -11.276100     8A    -11.252540     9A    -11.225204
      10A     -1.472151    11A     -1.390607    12A     -1.367479
      13A     -1.108813    14A     -1.065607    15A     -0.957047
      16A     -0.887593    17A     -0.798694    18A     -0.744623
      19A     -0.718039    20A     -0.712831    21A     -0.661496
      22A     -0.644747    23A     -0.640266    24A     -0.637826
      25A     -0.606806    26A     -0.568614    27A     -0.539802
      28A     -0.539332    29A     -0.524446    30A     -0.500832
      31A     -0.496035    32A     -0.471094    33A     -0.435384
      34A     -0.403532

  @DF-RHF Final Energy:  -456.62566338403622

   => Energetics <=

    Nuclear Repulsion Energy =            413.3876741616329582
    One-Electron Energy =               -1443.1655429377797191
    Two-Electron Energy =                 573.1522053921105453
    Total Energy =                       -456.6256633840362156
  Basis Set: (AUG-CC-PVTZ AUX)
    Blend: AUG-CC-PVTZ-RI
    Molecular point group: c1

    Geometry (in Angstrom), charge = 0, multiplicity = 1:

       Center              X                  Y                   Z               Mass
    ------------   -----------------  -----------------  -----------------  -----------------
         O           -1.663651203569     1.362224859845    -0.084246951459    15.994914619570
         O            3.295004796431     0.873170859845    -0.041037951459    15.994914619570
         O            2.667680796431    -1.298975140155     0.081027048541    15.994914619570
         C           -2.571362203569    -0.863125140155     0.032190048541    12.000000000000
         C           -1.451375203569     0.151544859845    -0.011469951459    12.000000000000
         C           -3.952684203569    -0.230145140155    -0.022741951459    12.000000000000
         C           -0.061563203569    -0.389953140155     0.030799048541    12.000000000000
         C            0.998406796431     0.431688859845    -0.009454951459    12.000000000000
         C            2.370280796431    -0.117104140155     0.020365048541    12.000000000000
         H           -2.441965203569    -1.462885140155     0.942785048541     1.007825032230
         H           -2.418946203569    -1.563495140155    -0.801904951459     1.007825032230
         H           -4.100151203569     0.448692859845     0.820017048541     1.007825032230
         H           -4.728519203569    -0.999201140155     0.008666048541     1.007825032230
         H           -4.074943203569     0.351580859845    -0.938707951459     1.007825032230
         H            0.088212796431    -1.465894140155     0.094480048541     1.007825032230
         H            0.867790196431     1.518402959845     0.129405148541     1.007825032230
         H            4.164341796431     0.421486859845    -0.024885951459     1.007825032230

  Basis Set: AUG-CC-PVTZ
    Blend: AUG-CC-PVTZ
  Basis Set: (AUG-CC-PVTZ AUX)
    Blend: AUG-CC-PVTZ-JKFIT
	 Reference Energy          =    -456.6256633840362156 [Eh]
	 Singles Energy            =      -0.0000000000000000 [Eh]
	 Same-Spin Energy          =      -0.4484139496400571 [Eh]
	 Opposite-Spin Energy      =      -1.4093470197893181 [Eh]
	 Correlation Energy        =      -1.8577609694293753 [Eh]
	 Total Energy              =    -458.4834243534655798 [Eh]

	 ================> DF-SCS-MP2 Energies <==================
	-----------------------------------------------------------
	 SCS Same-Spin Scale       =       0.3333333333333333 [-]
	 SCS Opposite-Spin Scale   =       1.2000000000000000 [-]
	 SCS Same-Spin Energy      =      -0.1494713165466857 [Eh]
	 SCS Opposite-Spin Energy  =      -1.6912164237471816 [Eh]
	 SCS Correlation Energy    =      -1.8406877402938673 [Eh]
	 SCS Total Energy          =    -458.4663511243300604 [Eh]
	-----------------------------------------------------------

  Dipole Moment: [D]
     X:    -0.1733      Y:    -1.1868      Z:     0.1943     Total:     1.2151

*** Psi4 exiting successfully. Buy a developer a beer!
