                               Psi4 1.4a2.dev612

  ==> Input File <==

--------------------------------------------------------------------------
#psi4
#
memory 32 gb

molecule  {
0 1
  O       -1.6636540     1.3623100    -0.0826750
  O        3.2950020     0.8732560    -0.0394660
  O        2.6676780    -1.2988900     0.0825990
  C       -2.5713650    -0.8630400     0.0337620
  C       -1.4513780     0.1516300    -0.0098980
  C       -3.9526870    -0.2300600    -0.0211700
  C       -0.0615660    -0.3898680     0.0323710
  C        0.9982481     0.4290135    -0.0578065
  C        2.3702780    -0.1170190     0.0219370
  H       -2.4419680    -1.4628000     0.9443570
  H       -2.4189490    -1.5634100    -0.8003330
  H       -4.1001540     0.4487780     0.8215890
  H       -4.7285220    -0.9991160     0.0102380
  H       -4.0749460     0.3516660    -0.9371360
  H        0.0882100    -1.4658090     0.0960520
  H        0.8681440     1.5076730    -0.0687300
  H        4.1643390     0.4215720    -0.0233140
units angstrom
no_reorient  #important for SAPT in psi4, default
symmetry c1  #important for SAPT in psi4, default
}

set PROPERTIES_ORIGIN ["COM"]
properties('MP2/aug-cc-pvtz', properties = ['dipole'])
--------------------------------------------------------------------------

    Molecular point group: c1
  Charge       = 0
  Multiplicity = 1
  Basis Set: AUG-CC-PVTZ
    Blend: AUG-CC-PVTZ
  Basis Set: (AUG-CC-PVTZ AUX)
    Blend: AUG-CC-PVTZ-JKFIT

    Orbital Energies [Eh]
    ---------------------

    Doubly Occupied:

       1A    -20.627545     2A    -20.561332     3A    -20.560755
       4A    -11.405459     5A    -11.350012     6A    -11.277140
       7A    -11.275462     8A    -11.252543     9A    -11.225206
      10A     -1.472174    11A     -1.390674    12A     -1.367465
      13A     -1.108960    14A     -1.065681    15A     -0.957139
      16A     -0.887484    17A     -0.798980    18A     -0.746826
      19A     -0.718292    20A     -0.712893    21A     -0.661398
      22A     -0.643952    23A     -0.640844    24A     -0.639003
      25A     -0.606625    26A     -0.570105    27A     -0.540252
      28A     -0.539150    29A     -0.524451    30A     -0.500914
      31A     -0.496058    32A     -0.471072    33A     -0.435403
      34A     -0.404189

  @DF-RHF Final Energy:  -456.62765798749450

   => Energetics <=

    Nuclear Repulsion Energy =            413.4462804261381734
    One-Electron Energy =               -1443.2770043250170602
    Two-Electron Energy =                 573.2030659113844422
    Total Energy =                       -456.6276579874944446
  Basis Set: (AUG-CC-PVTZ AUX)
    Blend: AUG-CC-PVTZ-RI
    Molecular point group: c1

    Geometry (in Angstrom), charge = 0, multiplicity = 1:

       Center              X                  Y                   Z               Mass
    ------------   -----------------  -----------------  -----------------  -----------------
         O           -1.663639400047     1.362568683677    -0.077996514795    15.994914619570
         O            3.295016599953     0.873514683677    -0.034787514795    15.994914619570
         O            2.667692599953    -1.298631316323     0.087277485205    15.994914619570
         C           -2.571350400047    -0.862781316323     0.038440485205    12.000000000000
         C           -1.451363400047     0.151888683677    -0.005219514795    12.000000000000
         C           -3.952672400047    -0.229801316323    -0.016491514795    12.000000000000
         C           -0.061551400047    -0.389609316323     0.037049485205    12.000000000000
         C            0.998262699953     0.429272183677    -0.053128014795    12.000000000000
         C            2.370292599953    -0.116760316323     0.026615485205    12.000000000000
         H           -2.441953400047    -1.462541316323     0.949035485205     1.007825032230
         H           -2.418934400047    -1.563151316323    -0.795654514795     1.007825032230
         H           -4.100139400047     0.449036683677     0.826267485205     1.007825032230
         H           -4.728507400047    -0.998857316323     0.014916485205     1.007825032230
         H           -4.074931400047     0.351924683677    -0.932457514795     1.007825032230
         H            0.088224599953    -1.465550316323     0.100730485205     1.007825032230
         H            0.868158599953     1.507931683677    -0.064051514795     1.007825032230
         H            4.164353599953     0.421830683677    -0.018635514795     1.007825032230

  Basis Set: AUG-CC-PVTZ
    Blend: AUG-CC-PVTZ
  Basis Set: (AUG-CC-PVTZ AUX)
    Blend: AUG-CC-PVTZ-JKFIT
	 Reference Energy          =    -456.6276579874945014 [Eh]
	 Singles Energy            =      -0.0000000000000000 [Eh]
	 Same-Spin Energy          =      -0.4483098665904714 [Eh]
	 Opposite-Spin Energy      =      -1.4091436122877874 [Eh]
	 Correlation Energy        =      -1.8574534788782588 [Eh]
	 Total Energy              =    -458.4851114663727571 [Eh]

	 ================> DF-SCS-MP2 Energies <==================
	-----------------------------------------------------------
	 SCS Same-Spin Scale       =       0.3333333333333333 [-]
	 SCS Opposite-Spin Scale   =       1.2000000000000000 [-]
	 SCS Same-Spin Energy      =      -0.1494366221968238 [Eh]
	 SCS Opposite-Spin Energy  =      -1.6909723347453449 [Eh]
	 SCS Correlation Energy    =      -1.8404089569421687 [Eh]
	 SCS Total Energy          =    -458.4680669444366572 [Eh]
	-----------------------------------------------------------

  Dipole Moment: [D]
     X:    -0.1772      Y:    -1.1834      Z:     0.0812     Total:     1.1993

*** Psi4 exiting successfully. Buy a developer a beer!
