                               Psi4 1.4a2.dev612

  ==> Input File <==

--------------------------------------------------------------------------
#psi4
#
memory 32 gb

molecule  {
0 1
  O       -1.6636540     1.3623100    -0.0826750
  O        3.2950020     0.8732560    -0.0394660
  O        2.6676780    -1.2988900     0.0825990
  C       -2.5713650    -0.8630400     0.0337620
  C       -1.4513780     0.1516300    -0.0098980
  C       -3.9526870    -0.2300600    -0.0211700
  C       -0.0615660    -0.3898680     0.0323710
  C        0.9984040     0.4317740    -0.0078830
  C        2.3702780    -0.1170190     0.0219370
  H       -2.4419680    -1.4628000     0.9443570
  H       -2.4189490    -1.5634100    -0.8003330
  H       -4.1001540     0.4487780     0.8215890
  H       -4.7285220    -0.9991160     0.0102380
  H       -4.0749460     0.3516660    -0.9371360
  H        0.0882100    -1.4658090     0.0960520
  H        0.8679657     1.5130806     0.0311235
  H        4.1643390     0.4215720    -0.0233140
units angstrom
no_reorient  #important for SAPT in psi4, default
symmetry c1  #important for SAPT in psi4, default
}

set PROPERTIES_ORIGIN ["COM"]
properties('MP2/aug-cc-pvtz', properties = ['dipole'])
--------------------------------------------------------------------------

    Molecular point group: c1
  Charge       = 0
  Multiplicity = 1
  Basis Set: AUG-CC-PVTZ
    Blend: AUG-CC-PVTZ
  Basis Set: (AUG-CC-PVTZ AUX)
    Blend: AUG-CC-PVTZ-JKFIT

    Orbital Energies [Eh]
    ---------------------

    Doubly Occupied:

       1A    -20.627575     2A    -20.561373     3A    -20.560697
       4A    -11.405432     5A    -11.349966     6A    -11.277183
       7A    -11.275511     8A    -11.252513     9A    -11.225184
      10A     -1.472217    11A     -1.390616    12A     -1.367504
      13A     -1.109022    14A     -1.065668    15A     -0.957212
      16A     -0.887586    17A     -0.798925    18A     -0.746403
      19A     -0.718316    20A     -0.712916    21A     -0.661455
      22A     -0.644191    23A     -0.640627    24A     -0.638840
      25A     -0.606836    26A     -0.569921    27A     -0.539971
      28A     -0.539343    29A     -0.524424    30A     -0.500901
      31A     -0.496054    32A     -0.471196    33A     -0.435358
      34A     -0.404051

  @DF-RHF Final Energy:  -456.62771669541581

   => Energetics <=

    Nuclear Repulsion Energy =            413.4474889560082147
    One-Electron Energy =               -1443.2804339102920039
    Two-Electron Energy =                 573.2052282588680328
    Total Energy =                       -456.6277166954158702
  Basis Set: (AUG-CC-PVTZ AUX)
    Blend: AUG-CC-PVTZ-RI
    Molecular point group: c1

    Geometry (in Angstrom), charge = 0, multiplicity = 1:

       Center              X                  Y                   Z               Mass
    ------------   -----------------  -----------------  -----------------  -----------------
         O           -1.663652606919     1.362267420773    -0.083461031546    15.994914619570
         O            3.295003393081     0.873213420773    -0.040252031546    15.994914619570
         O            2.667679393081    -1.298932579227     0.081812968454    15.994914619570
         C           -2.571363606919    -0.863082579227     0.032975968454    12.000000000000
         C           -1.451376606919     0.151587420773    -0.010684031546    12.000000000000
         C           -3.952685606919    -0.230102579227    -0.021956031546    12.000000000000
         C           -0.061564606919    -0.389910579227     0.031584968454    12.000000000000
         C            0.998405393081     0.431731420773    -0.008669031546    12.000000000000
         C            2.370279393081    -0.117061579227     0.021150968454    12.000000000000
         H           -2.441966606919    -1.462842579227     0.943570968454     1.007825032230
         H           -2.418947606919    -1.563452579227    -0.801119031546     1.007825032230
         H           -4.100152606919     0.448735420773     0.820802968454     1.007825032230
         H           -4.728520606919    -0.999158579227     0.009451968454     1.007825032230
         H           -4.074944606919     0.351623420773    -0.937922031546     1.007825032230
         H            0.088211393081    -1.465851579227     0.095265968454     1.007825032230
         H            0.867967093081     1.513038020773     0.030337468454     1.007825032230
         H            4.164340393081     0.421529420773    -0.024100031546     1.007825032230

  Basis Set: AUG-CC-PVTZ
    Blend: AUG-CC-PVTZ
  Basis Set: (AUG-CC-PVTZ AUX)
    Blend: AUG-CC-PVTZ-JKFIT
	 Reference Energy          =    -456.6277166954158133 [Eh]
	 Singles Energy            =      -0.0000000000000000 [Eh]
	 Same-Spin Energy          =      -0.4483094213283331 [Eh]
	 Opposite-Spin Energy      =      -1.4091438781394299 [Eh]
	 Correlation Energy        =      -1.8574532994677631 [Eh]
	 Total Energy              =    -458.4851699948835630 [Eh]

	 ================> DF-SCS-MP2 Energies <==================
	-----------------------------------------------------------
	 SCS Same-Spin Scale       =       0.3333333333333333 [-]
	 SCS Opposite-Spin Scale   =       1.2000000000000000 [-]
	 SCS Same-Spin Energy      =      -0.1494364737761110 [Eh]
	 SCS Opposite-Spin Energy  =      -1.6909726537673158 [Eh]
	 SCS Correlation Energy    =      -1.8404091275434267 [Eh]
	 SCS Total Energy          =    -458.4681258229592231 [Eh]
	-----------------------------------------------------------

  Dipole Moment: [D]
     X:    -0.1738      Y:    -1.1814      Z:     0.1280     Total:     1.2009

*** Psi4 exiting successfully. Buy a developer a beer!
