                               Psi4 1.4a2.dev612

  ==> Input File <==

--------------------------------------------------------------------------
#psi4
#
memory 32 gb

molecule  {
0 1
  O       -1.6636540     1.3623100    -0.0826750
  O        3.2950020     0.8732560    -0.0394660
  O        2.6676780    -1.2988900     0.0825990
  C       -2.5713650    -0.8630400     0.0337620
  C       -1.4513780     0.1516300    -0.0098980
  C       -3.9526870    -0.2300600    -0.0211700
  C       -0.0615660    -0.3898680     0.0323710
  C        0.9976245     0.4179717    -0.2575005
  C        2.3702780    -0.1170190     0.0219370
  H       -2.4419680    -1.4628000     0.9443570
  H       -2.4189490    -1.5634100    -0.8003330
  H       -4.1001540     0.4487780     0.8215890
  H       -4.7285220    -0.9991160     0.0102380
  H       -4.0749460     0.3516660    -0.9371360
  H        0.0882100    -1.4658090     0.0960520
  H        0.8681440     1.5076730    -0.0687300
  H        4.1643390     0.4215720    -0.0233140
units angstrom
no_reorient  #important for SAPT in psi4, default
symmetry c1  #important for SAPT in psi4, default
}

set PROPERTIES_ORIGIN ["COM"]
properties('MP2/aug-cc-pvtz', properties = ['dipole'])
--------------------------------------------------------------------------

    Molecular point group: c1
  Charge       = 0
  Multiplicity = 1
  Basis Set: AUG-CC-PVTZ
    Blend: AUG-CC-PVTZ
  Basis Set: (AUG-CC-PVTZ AUX)
    Blend: AUG-CC-PVTZ-JKFIT

    Orbital Energies [Eh]
    ---------------------

    Doubly Occupied:

       1A    -20.626103     2A    -20.562879     3A    -20.560035
       4A    -11.405720     5A    -11.351515     6A    -11.284018
       7A    -11.280335     8A    -11.253708     9A    -11.226053
      10A     -1.470509    11A     -1.392342    12A     -1.366113
      13A     -1.105182    14A     -1.065467    15A     -0.954850
      16A     -0.885104    17A     -0.798585    18A     -0.743151
      19A     -0.715959    20A     -0.711209    21A     -0.660510
      22A     -0.644081    23A     -0.640828    24A     -0.636008
      25A     -0.601487    26A     -0.564439    27A     -0.542648
      28A     -0.537582    29A     -0.525433    30A     -0.500804
      31A     -0.495811    32A     -0.467306    33A     -0.437180
      34A     -0.402029

  @DF-RHF Final Energy:  -456.61004084578207

   => Energetics <=

    Nuclear Repulsion Energy =            412.7834496643187663
    One-Electron Energy =               -1441.9570169339531276
    Two-Electron Energy =                 572.5635264238521813
    Total Energy =                       -456.6100408457821231
  Basis Set: (AUG-CC-PVTZ AUX)
    Blend: AUG-CC-PVTZ-RI
    Molecular point group: c1

    Geometry (in Angstrom), charge = 0, multiplicity = 1:

       Center              X                  Y                   Z               Mass
    ------------   -----------------  -----------------  -----------------  -----------------
         O           -1.663580959163     1.363603469684    -0.059282124297    15.994914619570
         O            3.295075040837     0.874549469684    -0.016073124297    15.994914619570
         O            2.667751040837    -1.297596530316     0.105991875703    15.994914619570
         C           -2.571291959163    -0.861746530316     0.057154875703    12.000000000000
         C           -1.451304959163     0.152923469684     0.013494875703    12.000000000000
         C           -3.952613959163    -0.228766530316     0.002222875703    12.000000000000
         C           -0.061492959163    -0.388574530316     0.055763875703    12.000000000000
         C            0.997697540837     0.419265169684    -0.234107624297    12.000000000000
         C            2.370351040837    -0.115725530316     0.045329875703    12.000000000000
         H           -2.441894959163    -1.461506530316     0.967749875703     1.007825032230
         H           -2.418875959163    -1.562116530316    -0.776940124297     1.007825032230
         H           -4.100080959163     0.450071469684     0.844981875703     1.007825032230
         H           -4.728448959163    -0.997822530316     0.033630875703     1.007825032230
         H           -4.074872959163     0.352959469684    -0.913743124297     1.007825032230
         H            0.088283040837    -1.464515530316     0.119444875703     1.007825032230
         H            0.868217040837     1.508966469684    -0.045337124297     1.007825032230
         H            4.164412040837     0.422865469684     0.000078875703     1.007825032230

  Basis Set: AUG-CC-PVTZ
    Blend: AUG-CC-PVTZ
  Basis Set: (AUG-CC-PVTZ AUX)
    Blend: AUG-CC-PVTZ-JKFIT
	 Reference Energy          =    -456.6100408457820663 [Eh]
	 Singles Energy            =      -0.0000000000000000 [Eh]
	 Same-Spin Energy          =      -0.4492204617075276 [Eh]
	 Opposite-Spin Energy      =      -1.4114370339693796 [Eh]
	 Correlation Energy        =      -1.8606574956769073 [Eh]
	 Total Energy              =    -458.4706983414589558 [Eh]

	 ================> DF-SCS-MP2 Energies <==================
	-----------------------------------------------------------
	 SCS Same-Spin Scale       =       0.3333333333333333 [-]
	 SCS Opposite-Spin Scale   =       1.2000000000000000 [-]
	 SCS Same-Spin Energy      =      -0.1497401539025092 [Eh]
	 SCS Opposite-Spin Energy  =      -1.6937244407632555 [Eh]
	 SCS Correlation Energy    =      -1.8434645946657646 [Eh]
	 SCS Total Energy          =    -458.4535054404478274 [Eh]
	-----------------------------------------------------------

  Dipole Moment: [D]
     X:    -0.2687      Y:    -1.2303      Z:     0.1706     Total:     1.2708

*** Psi4 exiting successfully. Buy a developer a beer!
