                               Psi4 1.4a2.dev612

  ==> Input File <==

--------------------------------------------------------------------------
#psi4
#
memory 32 gb

molecule  {
0 1
  O       -1.6636540     1.3623100    -0.0826750
  O        3.2950020     0.8732560    -0.0394660
  O        2.6676780    -1.2988900     0.0825990
  C       -2.5713650    -0.8630400     0.0337620
  C       -1.4513780     0.1516300    -0.0098980
  C       -3.9526870    -0.2300600    -0.0211700
  C       -0.0645868    -0.3729647     0.3318792
  C        0.9984040     0.4317740    -0.0078830
  C        2.3702780    -0.1170190     0.0219370
  H       -2.4419680    -1.4628000     0.9443570
  H       -2.4189490    -1.5634100    -0.8003330
  H       -4.1001540     0.4487780     0.8215890
  H       -4.7285220    -0.9991160     0.0102380
  H       -4.0749460     0.3516660    -0.9371360
  H        0.0882100    -1.4658090     0.0960520
  H        0.8681440     1.5076730    -0.0687300
  H        4.1643390     0.4215720    -0.0233140
units angstrom
no_reorient  #important for SAPT in psi4, default
symmetry c1  #important for SAPT in psi4, default
}

set PROPERTIES_ORIGIN ["COM"]
properties('MP2/aug-cc-pvtz', properties = ['dipole'])
--------------------------------------------------------------------------

    Molecular point group: c1
  Charge       = 0
  Multiplicity = 1
  Basis Set: AUG-CC-PVTZ
    Blend: AUG-CC-PVTZ
  Basis Set: (AUG-CC-PVTZ AUX)
    Blend: AUG-CC-PVTZ-JKFIT

    Orbital Energies [Eh]
    ---------------------

    Doubly Occupied:

       1A    -20.629716     2A    -20.564163     3A    -20.558802
       4A    -11.407902     5A    -11.351753     6A    -11.287613
       7A    -11.282741     8A    -11.251899     9A    -11.224649
      10A     -1.474466    11A     -1.388793    12A     -1.369700
      13A     -1.102189    14A     -1.064126    15A     -0.954158
      16A     -0.886318    17A     -0.795068    18A     -0.740599
      19A     -0.718837    20A     -0.711686    21A     -0.658155
      22A     -0.644947    23A     -0.640952    24A     -0.633146
      25A     -0.605551    26A     -0.562048    27A     -0.540552
      28A     -0.534680    29A     -0.522583    30A     -0.500955
      31A     -0.495994    32A     -0.473673    33A     -0.430583
      34A     -0.400679

  @DF-RHF Final Energy:  -456.60205087706220

   => Energetics <=

    Nuclear Repulsion Energy =            412.4310234499586727
    One-Electron Energy =               -1441.2467955091599379
    Two-Electron Energy =                 572.2137211821390110
    Total Energy =                       -456.6020508770621973
  Basis Set: (AUG-CC-PVTZ AUX)
    Blend: AUG-CC-PVTZ-RI
    Molecular point group: c1

    Geometry (in Angstrom), charge = 0, multiplicity = 1:

       Center              X                  Y                   Z               Mass
    ------------   -----------------  -----------------  -----------------  -----------------
         O           -1.663370914979     1.360725884034    -0.110743624303    15.994914619570
         O            3.295285085021     0.871671884034    -0.067534624303    15.994914619570
         O            2.667961085021    -1.300474115966     0.054530375697    15.994914619570
         C           -2.571081914979    -0.864624115966     0.005693375697    12.000000000000
         C           -1.451094914979     0.150045884034    -0.037966624303    12.000000000000
         C           -3.952403914979    -0.231644115966    -0.049238624303    12.000000000000
         C           -0.064303714979    -0.374548815966     0.303810575697    12.000000000000
         C            0.998687085021     0.430189884034    -0.035951624303    12.000000000000
         C            2.370561085021    -0.118603115966    -0.006131624303    12.000000000000
         H           -2.441684914979    -1.464384115966     0.916288375697     1.007825032230
         H           -2.418665914979    -1.564994115966    -0.828401624303     1.007825032230
         H           -4.099870914979     0.447193884034     0.793520375697     1.007825032230
         H           -4.728238914979    -1.000700115966    -0.017830624303     1.007825032230
         H           -4.074662914979     0.350081884034    -0.965204624303     1.007825032230
         H            0.088493085021    -1.467393115966     0.067983375697     1.007825032230
         H            0.868427085021     1.506088884034    -0.096798624303     1.007825032230
         H            4.164622085021     0.419987884034    -0.051382624303     1.007825032230

  Basis Set: AUG-CC-PVTZ
    Blend: AUG-CC-PVTZ
  Basis Set: (AUG-CC-PVTZ AUX)
    Blend: AUG-CC-PVTZ-JKFIT
	 Reference Energy          =    -456.6020508770621973 [Eh]
	 Singles Energy            =      -0.0000000000000000 [Eh]
	 Same-Spin Energy          =      -0.4498454607033400 [Eh]
	 Opposite-Spin Energy      =      -1.4130771575568635 [Eh]
	 Correlation Energy        =      -1.8629226182602034 [Eh]
	 Total Energy              =    -458.4649734953223970 [Eh]

	 ================> DF-SCS-MP2 Energies <==================
	-----------------------------------------------------------
	 SCS Same-Spin Scale       =       0.3333333333333333 [-]
	 SCS Opposite-Spin Scale   =       1.2000000000000000 [-]
	 SCS Same-Spin Energy      =      -0.1499484869011133 [Eh]
	 SCS Opposite-Spin Energy  =      -1.6956925890682362 [Eh]
	 SCS Correlation Energy    =      -1.8456410759693496 [Eh]
	 SCS Total Energy          =    -458.4476919530315513 [Eh]
	-----------------------------------------------------------

  Dipole Moment: [D]
     X:    -0.0963      Y:    -1.1062      Z:    -0.1002     Total:     1.1149

*** Psi4 exiting successfully. Buy a developer a beer!
