                               Psi4 1.4a2.dev612

  ==> Input File <==

--------------------------------------------------------------------------
#psi4
#
memory 32 gb

molecule  {
0 1
  O       -1.6636540     1.3623100    -0.0826750
  O        3.2950020     0.8732560    -0.0394660
  O        2.6676780    -1.2988900     0.0825990
  C       -2.5713650    -0.8630400     0.0337620
  C       -1.4513780     0.1516300    -0.0098980
  C       -3.9526870    -0.2300600    -0.0211700
  C       -0.0630764    -0.3814163     0.1821251
  C        0.9984040     0.4317740    -0.0078830
  C        2.3702780    -0.1170190     0.0219370
  H       -2.4419680    -1.4628000     0.9443570
  H       -2.4189490    -1.5634100    -0.8003330
  H       -4.1001540     0.4487780     0.8215890
  H       -4.7285220    -0.9991160     0.0102380
  H       -4.0749460     0.3516660    -0.9371360
  H        0.0882100    -1.4658090     0.0960520
  H        0.8681440     1.5076730    -0.0687300
  H        4.1643390     0.4215720    -0.0233140
units angstrom
no_reorient  #important for SAPT in psi4, default
symmetry c1  #important for SAPT in psi4, default
}

set PROPERTIES_ORIGIN ["COM"]
properties('MP2/aug-cc-pvtz', properties = ['dipole'])
--------------------------------------------------------------------------

    Molecular point group: c1
  Charge       = 0
  Multiplicity = 1
  Basis Set: AUG-CC-PVTZ
    Blend: AUG-CC-PVTZ
  Basis Set: (AUG-CC-PVTZ AUX)
    Blend: AUG-CC-PVTZ-JKFIT

    Orbital Energies [Eh]
    ---------------------

    Doubly Occupied:

       1A    -20.628147     2A    -20.562088     3A    -20.560139
       4A    -11.406081     5A    -11.350442     6A    -11.279445
       7A    -11.277538     8A    -11.252343     9A    -11.225035
      10A     -1.472811    11A     -1.390114    12A     -1.368075
      13A     -1.107290    14A     -1.065267    15A     -0.956493
      16A     -0.887280    17A     -0.797923    18A     -0.745062
      19A     -0.718479    20A     -0.712676    21A     -0.660608
      22A     -0.644087    23A     -0.641287    24A     -0.637337
      25A     -0.606396    26A     -0.568335    27A     -0.540922
      28A     -0.537472    29A     -0.523971    30A     -0.500884
      31A     -0.496097    32A     -0.471859    33A     -0.434155
      34A     -0.403247

  @DF-RHF Final Energy:  -456.62196263860528

   => Energetics <=

    Nuclear Repulsion Energy =            413.1958153413614809
    One-Electron Energy =               -1442.7767882500850192
    Two-Electron Energy =                 572.9590102701183696
    Total Energy =                       -456.6219626386052823
  Basis Set: (AUG-CC-PVTZ AUX)
    Blend: AUG-CC-PVTZ-RI
    Molecular point group: c1

    Geometry (in Angstrom), charge = 0, multiplicity = 1:

       Center              X                  Y                   Z               Mass
    ------------   -----------------  -----------------  -----------------  -----------------
         O           -1.663512462624     1.361517928576    -0.096709368361    15.994914619570
         O            3.295143537376     0.872463928576    -0.053500368361    15.994914619570
         O            2.667819537376    -1.299682071424     0.068564631639    15.994914619570
         C           -2.571223462624    -0.863832071424     0.019727631639    12.000000000000
         C           -1.451236462624     0.150837928576    -0.023932368361    12.000000000000
         C           -3.952545462624    -0.230852071424    -0.035204368361    12.000000000000
         C           -0.062934862624    -0.382208371424     0.168090731639    12.000000000000
         C            0.998545537376     0.430981928576    -0.021917368361    12.000000000000
         C            2.370419537376    -0.117811071424     0.007902631639    12.000000000000
         H           -2.441826462624    -1.463592071424     0.930322631639     1.007825032230
         H           -2.418807462624    -1.564202071424    -0.814367368361     1.007825032230
         H           -4.100012462624     0.447985928576     0.807554631639     1.007825032230
         H           -4.728380462624    -0.999908071424    -0.003796368361     1.007825032230
         H           -4.074804462624     0.350873928576    -0.951170368361     1.007825032230
         H            0.088351537376    -1.466601071424     0.082017631639     1.007825032230
         H            0.868285537376     1.506880928576    -0.082764368361     1.007825032230
         H            4.164480537376     0.420779928576    -0.037348368361     1.007825032230

  Basis Set: AUG-CC-PVTZ
    Blend: AUG-CC-PVTZ
  Basis Set: (AUG-CC-PVTZ AUX)
    Blend: AUG-CC-PVTZ-JKFIT
	 Reference Energy          =    -456.6219626386052823 [Eh]
	 Singles Energy            =      -0.0000000000000000 [Eh]
	 Same-Spin Energy          =      -0.4486668829449982 [Eh]
	 Opposite-Spin Energy      =      -1.4099782497031552 [Eh]
	 Correlation Energy        =      -1.8586451326481535 [Eh]
	 Total Energy              =    -458.4806077712534602 [Eh]

	 ================> DF-SCS-MP2 Energies <==================
	-----------------------------------------------------------
	 SCS Same-Spin Scale       =       0.3333333333333333 [-]
	 SCS Opposite-Spin Scale   =       1.2000000000000000 [-]
	 SCS Same-Spin Energy      =      -0.1495556276483327 [Eh]
	 SCS Opposite-Spin Energy  =      -1.6919738996437863 [Eh]
	 SCS Correlation Energy    =      -1.8415295272921191 [Eh]
	 SCS Total Energy          =    -458.4634921658973781 [Eh]
	-----------------------------------------------------------

  Dipole Moment: [D]
     X:    -0.1496      Y:    -1.1649      Z:    -0.0124     Total:     1.1745

*** Psi4 exiting successfully. Buy a developer a beer!
