                               Psi4 1.3.2 release

  ==> Input File <==

--------------------------------------------------------------------------
#psi4
#
memory 32 gb

molecule  {
-4 1
  P       -1.6464163     0.0000532    -0.1155352
  P        1.6778000     0.0000020     0.0005400
  O       -0.0000040    -0.0001820     0.3919770
  O       -2.3613630    -0.0003970     1.4096540
  O       -2.0007970    -1.2973530    -0.8037440
  O        2.3612970    -0.0008400     1.4096690
  O        2.0008330     1.2980780    -0.8025670
  O       -2.0007100     1.2978530    -0.8029660
  O        2.0007590    -1.2971630    -0.8040650
units angstrom
no_reorient  #important for SAPT in psi4, default
symmetry c1  #important for SAPT in psi4, default
}

set PROPERTIES_ORIGIN ["COM"]
properties('MP2/aug-cc-pvtz', properties = ['dipole'])
--------------------------------------------------------------------------

    Molecular point group: c1
  Charge       = -4
  Multiplicity = 1
  Basis Set: AUG-CC-PVTZ
    Blend: AUG-CC-PVTZ
  Basis Set: (AUG-CC-PVTZ AUX)
    Blend: AUG-CC-PVTZ-JKFIT

    Orbital Energies [Eh]
    ---------------------

    Doubly Occupied:

       1A    -79.443288     2A    -79.442670     3A    -19.921071
       4A    -19.887410     5A    -19.887391     6A    -19.878770
       7A    -19.878706     8A    -19.878686     9A    -19.858001
      10A     -6.954311    11A     -6.954022    12A     -4.853166
      13A     -4.853061    14A     -4.852184    15A     -4.851682
      16A     -4.851676    17A     -4.851620    18A     -0.729287
      19A     -0.697708    20A     -0.642818    21A     -0.638169
      22A     -0.610185    23A     -0.608804    24A     -0.561141
      25A     -0.153792    26A     -0.053077    27A     -0.002432
      28A      0.027332    29A      0.033339    30A      0.050885
      31A      0.059974    32A      0.088701    33A      0.110380
      34A      0.127858    35A      0.145116    36A      0.145986
      37A      0.149692    38A      0.153930    39A      0.177938
      40A      0.178434    41A      0.196266    42A      0.201617
      43A      0.217237    44A      0.224652    45A      0.230766

  @DF-RHF Final Energy: -1205.30795469256327

   => Energetics <=

    Nuclear Repulsion Energy =            667.6536340143794632
    One-Electron Energy =               -3059.3731324190512169
    Two-Electron Energy =                1186.4115437121085961
    Total Energy =                      -1205.3079546925632712
  Basis Set: (AUG-CC-PVTZ AUX)
    Blend: AUG-CC-PVTZ-RI
    Molecular point group: c1

    Geometry (in Angstrom), charge = -4, multiplicity = 1:

       Center              X                  Y                   Z               Mass
    ------------   -----------------  -----------------  -----------------  -----------------
         P           -1.652007125187     0.000043736750    -0.094866717699    30.973761998420
         P            1.672209174813    -0.000007463250     0.021208482301    30.973761998420
         O           -0.005594825187    -0.000191463250     0.412645482301    15.994914619570
         O           -2.366953825187    -0.000406463250     1.430322482301    15.994914619570
         O           -2.006387825187    -1.297362463250    -0.783075517699    15.994914619570
         O            2.355706174813    -0.000849463250     1.430337482301    15.994914619570
         O            1.995242174813     1.298068536750    -0.781898517699    15.994914619570
         O           -2.006300825187     1.297843536750    -0.782297517699    15.994914619570
         O            1.995168174813    -1.297172463250    -0.783396517699    15.994914619570

  Basis Set: AUG-CC-PVTZ
    Blend: AUG-CC-PVTZ
  Basis Set: (AUG-CC-PVTZ AUX)
    Blend: AUG-CC-PVTZ-JKFIT
	 Reference Energy          =   -1205.3079546925632712 [Eh]
	 Singles Energy            =      -0.0000000000000000 [Eh]
	 Same-Spin Energy          =      -0.6168873428323982 [Eh]
	 Opposite-Spin Energy      =      -1.6661300662256751 [Eh]
	 Correlation Energy        =      -2.2830174090580733 [Eh]
	 Total Energy              =   -1207.5909721016214462 [Eh]

	 ================> DF-SCS-MP2 Energies <==================
	-----------------------------------------------------------
	 SCS Same-Spin Scale       =       0.3333333333333333 [-]
	 SCS Opposite-Spin Scale   =       1.2000000000000000 [-]
	 SCS Same-Spin Energy      =      -0.2056291142774661 [Eh]
	 SCS Opposite-Spin Energy  =      -1.9993560794708101 [Eh]
	 SCS Correlation Energy    =      -2.2049851937482763 [Eh]
	 SCS Total Energy          =   -1207.5129398863116421 [Eh]
	-----------------------------------------------------------

  Dipole Moment: [D]
     X:     0.6617      Y:     0.0007      Z:    -1.4856     Total:     1.6262

*** Psi4 exiting successfully. Buy a developer a beer!
