                               Psi4 1.3.2 release

  ==> Input File <==

--------------------------------------------------------------------------
#psi4
#
memory 32 gb

molecule  {
-4 1
  P       -1.6778080    -0.0000010     0.0005490
  P        1.6778000     0.0000020     0.0005400
  O       -0.0000040    -0.0001820     0.3919770
  O       -2.3613630    -0.0003970     1.4096540
  O       -2.0007970    -1.2973530    -0.8037440
  O        2.3612970    -0.0008400     1.4096690
  O        2.0008330     1.2980780    -0.8025670
  O       -2.0214058     1.3810363    -0.8544657
  O        2.0007590    -1.2971630    -0.8040650
units angstrom
no_reorient  #important for SAPT in psi4, default
symmetry c1  #important for SAPT in psi4, default
}

set PROPERTIES_ORIGIN ["COM"]
properties('MP2/aug-cc-pvtz', properties = ['dipole'])
--------------------------------------------------------------------------

    Molecular point group: c1
  Charge       = -4
  Multiplicity = 1
  Basis Set: AUG-CC-PVTZ
    Blend: AUG-CC-PVTZ
  Basis Set: (AUG-CC-PVTZ AUX)
    Blend: AUG-CC-PVTZ-JKFIT

    Orbital Energies [Eh]
    ---------------------

    Doubly Occupied:

       1A    -79.458358     2A    -79.445053     3A    -19.923033
       4A    -19.886292     5A    -19.885074     6A    -19.882282
       7A    -19.880085     8A    -19.878656     9A    -19.877563
      10A     -6.966781    11A     -6.955586    12A     -4.865894
      13A     -4.864518    14A     -4.864079    15A     -4.854699
      16A     -4.853217    17A     -4.853134    18A     -0.724911
      19A     -0.687667    20A     -0.637987    21A     -0.615001
      22A     -0.609769    23A     -0.609172    24A     -0.587499
      25A     -0.159239    26A     -0.051984    27A      0.000294
      28A      0.031153    29A      0.032126    30A      0.056996
      31A      0.058953    32A      0.097685    33A      0.115975
      34A      0.121176    35A      0.149528    36A      0.150249
      37A      0.154043    38A      0.157369    39A      0.165522
      40A      0.185904    41A      0.192534    42A      0.204364
      43A      0.207788    44A      0.215819    45A      0.217454

  @DF-RHF Final Energy: -1205.31013482056733

   => Energetics <=

    Nuclear Repulsion Energy =            663.0624772430614939
    One-Electron Energy =               -3050.0200242850664836
    Two-Electron Energy =                1181.6474122214376621
    Total Energy =                      -1205.3101348205673276
  Basis Set: (AUG-CC-PVTZ AUX)
    Blend: AUG-CC-PVTZ-RI
    Molecular point group: c1

    Geometry (in Angstrom), charge = -4, multiplicity = 1:

       Center              X                  Y                   Z               Mass
    ------------   -----------------  -----------------  -----------------  -----------------
         P           -1.675904534106    -0.007651290601     0.005279351222    30.973761998420
         P            1.679703465894    -0.007648290601     0.005270351222    30.973761998420
         O            0.001899465894    -0.007832290601     0.396707351222    15.994914619570
         O           -2.359459534106    -0.008047290601     1.414384351222    15.994914619570
         O           -1.998893534106    -1.305003290601    -0.799013648778    15.994914619570
         O            2.363200465894    -0.008490290601     1.414399351222    15.994914619570
         O            2.002736465894     1.290427709399    -0.797836648778    15.994914619570
         O           -2.019502334106     1.373386009399    -0.849735348778    15.994914619570
         O            2.002662465894    -1.304813290601    -0.799334648778    15.994914619570

  Basis Set: AUG-CC-PVTZ
    Blend: AUG-CC-PVTZ
  Basis Set: (AUG-CC-PVTZ AUX)
    Blend: AUG-CC-PVTZ-JKFIT
	 Reference Energy          =   -1205.3101348205673276 [Eh]
	 Singles Energy            =      -0.0000000000000000 [Eh]
	 Same-Spin Energy          =      -0.6177742133466197 [Eh]
	 Opposite-Spin Energy      =      -1.6686645570000369 [Eh]
	 Correlation Energy        =      -2.2864387703466567 [Eh]
	 Total Energy              =   -1207.5965735909139767 [Eh]

	 ================> DF-SCS-MP2 Energies <==================
	-----------------------------------------------------------
	 SCS Same-Spin Scale       =       0.3333333333333333 [-]
	 SCS Opposite-Spin Scale   =       1.2000000000000000 [-]
	 SCS Same-Spin Energy      =      -0.2059247377822066 [Eh]
	 SCS Opposite-Spin Energy  =      -2.0023974684000443 [Eh]
	 SCS Correlation Energy    =      -2.2083222061822507 [Eh]
	 SCS Total Energy          =   -1207.5184570267495019 [Eh]
	-----------------------------------------------------------

  Dipole Moment: [D]
     X:     0.3029      Y:    -0.6376      Z:     0.6844     Total:     0.9831

*** Psi4 exiting successfully. Buy a developer a beer!
