                               Psi4 1.3.2 release

  ==> Input File <==

--------------------------------------------------------------------------
#psi4
#
memory 32 gb

molecule  {
-4 1
  P       -1.6778080    -0.0000010     0.0005490
  P        1.6778000     0.0000020     0.0005400
  O       -0.0973889    -0.0001715     0.3692573
  O       -2.3613630    -0.0003970     1.4096540
  O       -2.0007970    -1.2973530    -0.8037440
  O        2.3612970    -0.0008400     1.4096690
  O        2.0008330     1.2980780    -0.8025670
  O       -2.0007100     1.2978530    -0.8029660
  O        2.0007590    -1.2971630    -0.8040650
units angstrom
no_reorient  #important for SAPT in psi4, default
symmetry c1  #important for SAPT in psi4, default
}

set PROPERTIES_ORIGIN ["COM"]
properties('MP2/aug-cc-pvtz', properties = ['dipole'])
--------------------------------------------------------------------------

    Molecular point group: c1
  Charge       = -4
  Multiplicity = 1
  Basis Set: AUG-CC-PVTZ
    Blend: AUG-CC-PVTZ
  Basis Set: (AUG-CC-PVTZ AUX)
    Blend: AUG-CC-PVTZ-JKFIT

    Orbital Energies [Eh]
    ---------------------

    Doubly Occupied:

       1A    -79.459723     2A    -79.423069     3A    -19.913266
       4A    -19.892002     5A    -19.887700     6A    -19.887682
       7A    -19.864599     8A    -19.863785     9A    -19.863767
      10A     -6.969443    11A     -6.935025    12A     -4.868519
      13A     -4.866894    14A     -4.866813    15A     -4.834268
      16A     -4.832783    17A     -4.832701    18A     -0.726801
      19A     -0.693049    20A     -0.632592    21A     -0.619339
      22A     -0.618049    23A     -0.596329    24A     -0.595656
      25A     -0.154563    26A     -0.049979    27A      0.003810
      28A      0.031142    29A      0.031719    30A      0.056760
      31A      0.056806    32A      0.099106    33A      0.118540
      34A      0.123386    35A      0.141633    36A      0.143428
      37A      0.162514    38A      0.162791    39A      0.168029
      40A      0.183885    41A      0.185627    42A      0.207881
      43A      0.215393    44A      0.216353    45A      0.230859

  @DF-RHF Final Energy: -1205.31858422618598

   => Energetics <=

    Nuclear Repulsion Energy =            667.7350132270848917
    One-Electron Energy =               -3059.6897191938005562
    Two-Electron Energy =                1186.6361217405296884
    Total Energy =                      -1205.3185842261859761
  Basis Set: (AUG-CC-PVTZ AUX)
    Blend: AUG-CC-PVTZ-RI
    Molecular point group: c1

    Geometry (in Angstrom), charge = -4, multiplicity = 1:

       Center              X                  Y                   Z               Mass
    ------------   -----------------  -----------------  -----------------  -----------------
         P           -1.668851334060    -0.000001775914     0.002632415773    30.973761998420
         P            1.686756665940     0.000001224086     0.002623415773    30.973761998420
         O           -0.088432234060    -0.000172275914     0.371340715773    15.994914619570
         O           -2.352406334060    -0.000397775914     1.411737415773    15.994914619570
         O           -1.991840334060    -1.297353775914    -0.801660584227    15.994914619570
         O            2.370253665940    -0.000840775914     1.411752415773    15.994914619570
         O            2.009789665940     1.298077224086    -0.800483584227    15.994914619570
         O           -1.991753334060     1.297852224086    -0.800882584227    15.994914619570
         O            2.009715665940    -1.297163775914    -0.801981584227    15.994914619570

  Basis Set: AUG-CC-PVTZ
    Blend: AUG-CC-PVTZ
  Basis Set: (AUG-CC-PVTZ AUX)
    Blend: AUG-CC-PVTZ-JKFIT
	 Reference Energy          =   -1205.3185842261859761 [Eh]
	 Singles Energy            =      -0.0000000000000000 [Eh]
	 Same-Spin Energy          =      -0.6160054134861626 [Eh]
	 Opposite-Spin Energy      =      -1.6637460374053084 [Eh]
	 Correlation Energy        =      -2.2797514508914709 [Eh]
	 Total Energy              =   -1207.5983356770775572 [Eh]

	 ================> DF-SCS-MP2 Energies <==================
	-----------------------------------------------------------
	 SCS Same-Spin Scale       =       0.3333333333333333 [-]
	 SCS Opposite-Spin Scale   =       1.2000000000000000 [-]
	 SCS Same-Spin Energy      =      -0.2053351378287208 [Eh]
	 SCS Opposite-Spin Energy  =      -1.9964952448863700 [Eh]
	 SCS Correlation Energy    =      -2.2018303827150909 [Eh]
	 SCS Total Energy          =   -1207.5204146089010919 [Eh]
	-----------------------------------------------------------

  Dipole Moment: [D]
     X:     1.5835      Y:    -0.0001      Z:     0.3216     Total:     1.6158

*** Psi4 exiting successfully. Buy a developer a beer!
