                               Psi4 1.4a3.dev225

  ==> Input File <==

--------------------------------------------------------------------------
#psi4
#
memory 32 gb

molecule  {
-4 1
  P        1.5557560     0.0007770    -0.0111170
  P       -1.5567580    -0.0020400    -0.0113580
  O        0.0005040    -0.0138450    -0.6805560
  O        2.4083778     0.5366692    -1.2121385
  O        1.8853550    -1.4649890     0.3558240
  O       -2.3799130    -0.6866630    -1.1280670
  O       -1.9249590     1.4878560     0.1848770
  O        1.5475870     0.9578490     1.2013440
  O       -1.5241940    -0.8076720     1.3055320
units angstrom
no_reorient  #important for SAPT in psi4, default
symmetry c1  #important for SAPT in psi4, default
}

set PROPERTIES_ORIGIN ["COM"]
properties('MP2/aug-cc-pvtz', properties = ['dipole'])
--------------------------------------------------------------------------

    Molecular point group: c1
  Charge       = -4
  Multiplicity = 1
  Basis Set: AUG-CC-PVTZ
    Blend: AUG-CC-PVTZ
  Basis Set: (AUG-CC-PVTZ AUX)
    Blend: AUG-CC-PVTZ-JKFIT

    Orbital Energies [Eh]
    ---------------------

    Doubly Occupied:

       1A    -79.419039     2A    -79.416462     3A    -19.906816
       4A    -19.867957     5A    -19.867502     6A    -19.862085
       7A    -19.861544     8A    -19.857216     9A    -19.855998
      10A     -6.931498    11A     -6.929501    12A     -4.830560
      13A     -4.829188    14A     -4.829104    15A     -4.828533
      16A     -4.827254    17A     -4.827060    18A     -0.725911
      19A     -0.680447    20A     -0.628328    21A     -0.602366
      22A     -0.598828    23A     -0.596397    24A     -0.595972
      25A     -0.138217    26A     -0.039018    27A      0.013032
      28A      0.035877    29A      0.039567    30A      0.067798
      31A      0.069547    32A      0.097792    33A      0.123751
      34A      0.140059    35A      0.158698    36A      0.159144
      37A      0.165256    38A      0.166353    39A      0.179986
      40A      0.202606    41A      0.205217    42A      0.215245
      43A      0.222050    44A      0.230313    45A      0.233049

  @DF-RHF Final Energy: -1205.32129444753309

   => Energetics <=

    Nuclear Repulsion Energy =            688.0487448368409105
    One-Electron Energy =               -3101.4851589784316275
    Two-Electron Energy =                1208.1151196940577393
    Total Energy =                      -1205.3212944475330914
  Basis Set: (AUG-CC-PVTZ AUX)
    Blend: AUG-CC-PVTZ-RI
    Molecular point group: c1

    Geometry (in Angstrom), charge = -4, multiplicity = 1:

       Center              X                  Y                   Z               Mass
    ------------   -----------------  -----------------  -----------------  -----------------
         P            1.554761104389     0.000155325978    -0.009580454039    30.973761998420
         P           -1.557752895611    -0.002661674022    -0.009821454039    30.973761998420
         O           -0.000490895611    -0.014466674022    -0.679019454039    15.994914619570
         O            2.407382904389     0.536047525978    -1.210601954039    15.994914619570
         O            1.884360104389    -1.465610674022     0.357360545961    15.994914619570
         O           -2.380907895611    -0.687284674022    -1.126530454039    15.994914619570
         O           -1.925953895611     1.487234325978     0.186413545961    15.994914619570
         O            1.546592104389     0.957227325978     1.202880545961    15.994914619570
         O           -1.525188895611    -0.808293674022     1.307068545961    15.994914619570

  Basis Set: AUG-CC-PVTZ
    Blend: AUG-CC-PVTZ
  Basis Set: (AUG-CC-PVTZ AUX)
    Blend: AUG-CC-PVTZ-JKFIT
	 Reference Energy          =   -1205.3212944475330914 [Eh]
	 Singles Energy            =      -0.0000000000000000 [Eh]
	 Same-Spin Energy          =      -0.6152575156655916 [Eh]
	 Opposite-Spin Energy      =      -1.6613153959691855 [Eh]
	 Correlation Energy        =      -2.2765729116347773 [Eh]
	 Total Energy              =   -1207.5978673591678216 [Eh]

	 ================> DF-SCS-MP2 Energies <==================
	-----------------------------------------------------------
	 SCS Same-Spin Scale       =       0.3333333333333333 [-]
	 SCS Opposite-Spin Scale   =       1.2000000000000000 [-]
	 SCS Same-Spin Energy      =      -0.2050858385551972 [Eh]
	 SCS Opposite-Spin Energy  =      -1.9935784751630226 [Eh]
	 SCS Correlation Energy    =      -2.1986643137182198 [Eh]
	 SCS Total Energy          =   -1207.5199587612512460 [Eh]
	-----------------------------------------------------------

  Dipole Moment: [D]
     X:    -0.1398      Y:    -0.0912      Z:    -0.6089     Total:     0.6314

*** Psi4 exiting successfully. Buy a developer a beer!
