                               Psi4 1.4a3.dev225

  ==> Input File <==

--------------------------------------------------------------------------
#psi4
#
memory 32 gb

molecule  {
-4 1
  P        1.5557560     0.0007770    -0.0111170
  P       -1.5567580    -0.0020400    -0.0113580
  O        0.0005040    -0.0138450    -0.6805560
  O        2.3974980     0.5298310    -1.1968130
  O        1.8853550    -1.4649890     0.3558240
  O       -2.3799130    -0.6866630    -1.1280670
  O       -1.9249590     1.4878560     0.1848770
  O        1.5474812     0.9702406     1.2170423
  O       -1.5241940    -0.8076720     1.3055320
units angstrom
no_reorient  #important for SAPT in psi4, default
symmetry c1  #important for SAPT in psi4, default
}

set PROPERTIES_ORIGIN ["COM"]
properties('MP2/aug-cc-pvtz', properties = ['dipole'])
--------------------------------------------------------------------------

    Molecular point group: c1
  Charge       = -4
  Multiplicity = 1
  Basis Set: AUG-CC-PVTZ
    Blend: AUG-CC-PVTZ
  Basis Set: (AUG-CC-PVTZ AUX)
    Blend: AUG-CC-PVTZ-JKFIT

    Orbital Energies [Eh]
    ---------------------

    Doubly Occupied:

       1A    -79.418913     2A    -79.416109     3A    -19.906909
       4A    -19.868149     5A    -19.867345     6A    -19.862003
       7A    -19.861119     8A    -19.856626     9A    -19.855554
      10A     -6.931378    11A     -6.929157    12A     -4.830441
      13A     -4.829180    14A     -4.828868    15A     -4.828190
      16A     -4.826911    17A     -4.826713    18A     -0.725988
      19A     -0.680735    20A     -0.628336    21A     -0.602509
      22A     -0.601944    23A     -0.595727    24A     -0.591474
      25A     -0.138147    26A     -0.038994    27A      0.012987
      28A      0.036024    29A      0.039616    30A      0.067947
      31A      0.069515    32A      0.098498    33A      0.123839
      34A      0.138900    35A      0.158994    36A      0.159566
      37A      0.165624    38A      0.167198    39A      0.179936
      40A      0.203015    41A      0.205289    42A      0.215886
      43A      0.222530    44A      0.230732    45A      0.233594

  @DF-RHF Final Energy: -1205.32066303819352

   => Energetics <=

    Nuclear Repulsion Energy =            688.0870941528239655
    One-Electron Energy =               -3101.5800564889041198
    Two-Electron Energy =                1208.1722992978868660
    Total Energy =                      -1205.3206630381935156
  Basis Set: (AUG-CC-PVTZ AUX)
    Blend: AUG-CC-PVTZ-RI
    Molecular point group: c1

    Geometry (in Angstrom), charge = -4, multiplicity = 1:

       Center              X                  Y                   Z               Mass
    ------------   -----------------  -----------------  -----------------  -----------------
         P            1.555771464850    -0.000355427716    -0.012433754803    30.973761998420
         P           -1.556742535150    -0.003172427716    -0.012674754803    30.973761998420
         O            0.000519464850    -0.014977427716    -0.681872754803    15.994914619570
         O            2.397513464850     0.528698572284    -1.198129754803    15.994914619570
         O            1.885370464850    -1.466121427716     0.354507245197    15.994914619570
         O           -2.379897535150    -0.687795427716    -1.129383754803    15.994914619570
         O           -1.924943535150     1.486723572284     0.183560245197    15.994914619570
         O            1.547496664850     0.969108172284     1.215725545197    15.994914619570
         O           -1.524178535150    -0.808804427716     1.304215245197    15.994914619570

  Basis Set: AUG-CC-PVTZ
    Blend: AUG-CC-PVTZ
  Basis Set: (AUG-CC-PVTZ AUX)
    Blend: AUG-CC-PVTZ-JKFIT
	 Reference Energy          =   -1205.3206630381935156 [Eh]
	 Singles Energy            =      -0.0000000000000000 [Eh]
	 Same-Spin Energy          =      -0.6152797890715913 [Eh]
	 Opposite-Spin Energy      =      -1.6613570211277635 [Eh]
	 Correlation Energy        =      -2.2766368101993546 [Eh]
	 Total Energy              =   -1207.5972998483928222 [Eh]

	 ================> DF-SCS-MP2 Energies <==================
	-----------------------------------------------------------
	 SCS Same-Spin Scale       =       0.3333333333333333 [-]
	 SCS Opposite-Spin Scale   =       1.2000000000000000 [-]
	 SCS Same-Spin Energy      =      -0.2050932630238638 [Eh]
	 SCS Opposite-Spin Energy  =      -1.9936284253533161 [Eh]
	 SCS Correlation Energy    =      -2.1987216883771796 [Eh]
	 SCS Total Energy          =   -1207.5193847265707063 [Eh]
	-----------------------------------------------------------

  Dipole Moment: [D]
     X:    -0.0538      Y:    -0.1262      Z:    -0.8518     Total:     0.8628

*** Psi4 exiting successfully. Buy a developer a beer!
