                               Psi4 1.3.2 release

  ==> Input File <==

--------------------------------------------------------------------------
#psi4
#
memory 32 gb

molecule  {
-4 1
  P       -1.6707211     0.0000126    -0.0286731
  P        1.6778000     0.0000020     0.0005400
  O       -0.0000040    -0.0001820     0.3919770
  O       -2.3613630    -0.0003970     1.4096540
  O       -2.0007970    -1.2973530    -0.8037440
  O        2.3612970    -0.0008400     1.4096690
  O        2.0008330     1.2980780    -0.8025670
  O       -2.0007100     1.2978530    -0.8029660
  O        2.0007590    -1.2971630    -0.8040650
units angstrom
no_reorient  #important for SAPT in psi4, default
symmetry c1  #important for SAPT in psi4, default
}

set PROPERTIES_ORIGIN ["COM"]
properties('MP2/aug-cc-pvtz', properties = ['dipole'])
--------------------------------------------------------------------------

    Molecular point group: c1
  Charge       = -4
  Multiplicity = 1
  Basis Set: AUG-CC-PVTZ
    Blend: AUG-CC-PVTZ
  Basis Set: (AUG-CC-PVTZ AUX)
    Blend: AUG-CC-PVTZ-JKFIT

    Orbital Energies [Eh]
    ---------------------

    Doubly Occupied:

       1A    -79.442430     2A    -79.442335     3A    -19.916837
       4A    -19.878842     5A    -19.878824     6A    -19.877820
       7A    -19.876754     8A    -19.876736     9A    -19.872495
      10A     -6.952980    11A     -6.952922    12A     -4.852048
      13A     -4.851976    14A     -4.850645    15A     -4.850602
      16A     -4.850575    17A     -4.850495    18A     -0.723633
      19A     -0.689857    20A     -0.636032    21A     -0.615316
      22A     -0.608100    23A     -0.607504    24A     -0.597100
      25A     -0.152958    26A     -0.049186    27A      0.001588
      28A      0.032950    29A      0.034370    30A      0.056689
      31A      0.059349    32A      0.096209    33A      0.116350
      34A      0.126361    35A      0.149412    36A      0.150655
      37A      0.152400    38A      0.156097    39A      0.167032
      40A      0.188278    41A      0.192642    42A      0.206759
      43A      0.211175    44A      0.218756    45A      0.220321

  @DF-RHF Final Energy: -1205.32172653942030

   => Energetics <=

    Nuclear Repulsion Energy =            667.2634031755167143
    One-Electron Energy =               -3058.7350378381006522
    Two-Electron Energy =                1186.1499081231634136
    Total Energy =                      -1205.3217265394202968
  Basis Set: (AUG-CC-PVTZ AUX)
    Blend: AUG-CC-PVTZ-RI
    Molecular point group: c1

    Geometry (in Angstrom), charge = -4, multiplicity = 1:

       Center              X                  Y                   Z               Mass
    ------------   -----------------  -----------------  -----------------  -----------------
         P           -1.671983233611     0.000010367621    -0.023474781642    30.973761998420
         P            1.676537866389    -0.000000232379     0.005738318358    30.973761998420
         O           -0.001266133611    -0.000184232379     0.397175318358    15.994914619570
         O           -2.362625133611    -0.000399232379     1.414852318358    15.994914619570
         O           -2.002059133611    -1.297355232379    -0.798545681642    15.994914619570
         O            2.360034866389    -0.000842232379     1.414867318358    15.994914619570
         O            1.999570866389     1.298075767621    -0.797368681642    15.994914619570
         O           -2.001972133611     1.297850767621    -0.797767681642    15.994914619570
         O            1.999496866389    -1.297165232379    -0.798866681642    15.994914619570

  Basis Set: AUG-CC-PVTZ
    Blend: AUG-CC-PVTZ
  Basis Set: (AUG-CC-PVTZ AUX)
    Blend: AUG-CC-PVTZ-JKFIT
	 Reference Energy          =   -1205.3217265394202968 [Eh]
	 Singles Energy            =      -0.0000000000000000 [Eh]
	 Same-Spin Energy          =      -0.6161943481497127 [Eh]
	 Opposite-Spin Energy      =      -1.6643630266067682 [Eh]
	 Correlation Energy        =      -2.2805573747564809 [Eh]
	 Total Energy              =   -1207.6022839141767236 [Eh]

	 ================> DF-SCS-MP2 Energies <==================
	-----------------------------------------------------------
	 SCS Same-Spin Scale       =       0.3333333333333333 [-]
	 SCS Opposite-Spin Scale   =       1.2000000000000000 [-]
	 SCS Same-Spin Energy      =      -0.2053981160499042 [Eh]
	 SCS Opposite-Spin Energy  =      -1.9972356319281217 [Eh]
	 SCS Correlation Energy    =      -2.2026337479780258 [Eh]
	 SCS Total Energy          =   -1207.5243602873983946 [Eh]
	-----------------------------------------------------------

  Dipole Moment: [D]
     X:     0.1178      Y:     0.0001      Z:    -0.1491     Total:     0.1900

*** Psi4 exiting successfully. Buy a developer a beer!
