                               Psi4 1.3.2 release

  ==> Input File <==

--------------------------------------------------------------------------
#psi4
#
memory 32 gb

molecule  {
-4 1
  P       -1.6778080    -0.0000010     0.0005490
  P        1.6778000     0.0000020     0.0005400
  O        0.0090124     0.1052818     0.3349062
  O       -2.3613630    -0.0003970     1.4096540
  O       -2.0007970    -1.2973530    -0.8037440
  O        2.3612970    -0.0008400     1.4096690
  O        2.0008330     1.2980780    -0.8025670
  O       -2.0007100     1.2978530    -0.8029660
  O        2.0007590    -1.2971630    -0.8040650
units angstrom
no_reorient  #important for SAPT in psi4, default
symmetry c1  #important for SAPT in psi4, default
}

set PROPERTIES_ORIGIN ["COM"]
properties('MP2/aug-cc-pvtz', properties = ['dipole'])
--------------------------------------------------------------------------

    Molecular point group: c1
  Charge       = -4
  Multiplicity = 1
  Basis Set: AUG-CC-PVTZ
    Blend: AUG-CC-PVTZ
  Basis Set: (AUG-CC-PVTZ AUX)
    Blend: AUG-CC-PVTZ-JKFIT

    Orbital Energies [Eh]
    ---------------------

    Doubly Occupied:

       1A    -79.444064     2A    -79.440643     3A    -19.914801
       4A    -19.880759     5A    -19.879557     6A    -19.878217
       7A    -19.877383     8A    -19.872285     9A    -19.869971
      10A     -6.954415    11A     -6.951197    12A     -4.853534
      13A     -4.852091    14A     -4.851966    15A     -4.850330
      16A     -4.848903    17A     -4.848779    18A     -0.724768
      19A     -0.689046    20A     -0.635573    21A     -0.610039
      22A     -0.607869    23A     -0.606219    24A     -0.604071
      25A     -0.156806    26A     -0.047717    27A      0.001419
      28A      0.032255    29A      0.033869    30A      0.057647
      31A      0.058905    32A      0.100395    33A      0.114528
      34A      0.124778    35A      0.149801    36A      0.151589
      37A      0.153779    38A      0.156736    39A      0.164914
      40A      0.188649    41A      0.192863    42A      0.206427
      43A      0.213579    44A      0.218605    45A      0.220908

  @DF-RHF Final Energy: -1205.32272017559194

   => Energetics <=

    Nuclear Repulsion Energy =            667.7418367677377091
    One-Electron Energy =               -3059.7104055446743587
    Two-Electron Energy =                1186.6458486013445963
    Total Energy =                      -1205.3227201755919396
  Basis Set: (AUG-CC-PVTZ AUX)
    Blend: AUG-CC-PVTZ-RI
    Molecular point group: c1

    Geometry (in Angstrom), charge = -4, multiplicity = 1:

       Center              X                  Y                   Z               Mass
    ------------   -----------------  -----------------  -----------------  -----------------
         P           -1.678637205247    -0.009700458261     0.005791732809    30.973761998420
         P            1.676970794753    -0.009697458261     0.005782732809    30.973761998420
         O            0.008183194753     0.095582341739     0.340148932809    15.994914619570
         O           -2.362192205247    -0.010096458261     1.414896732809    15.994914619570
         O           -2.001626205247    -1.307052458261    -0.798501267191    15.994914619570
         O            2.360467794753    -0.010539458261     1.414911732809    15.994914619570
         O            2.000003794753     1.288378541739    -0.797324267191    15.994914619570
         O           -2.001539205247     1.288153541739    -0.797723267191    15.994914619570
         O            1.999929794753    -1.306862458261    -0.798822267191    15.994914619570

  Basis Set: AUG-CC-PVTZ
    Blend: AUG-CC-PVTZ
  Basis Set: (AUG-CC-PVTZ AUX)
    Blend: AUG-CC-PVTZ-JKFIT
	 Reference Energy          =   -1205.3227201755919396 [Eh]
	 Singles Energy            =      -0.0000000000000000 [Eh]
	 Same-Spin Energy          =      -0.6159954172975390 [Eh]
	 Opposite-Spin Energy      =      -1.6636336927450499 [Eh]
	 Correlation Energy        =      -2.2796291100425892 [Eh]
	 Total Energy              =   -1207.6023492856345456 [Eh]

	 ================> DF-SCS-MP2 Energies <==================
	-----------------------------------------------------------
	 SCS Same-Spin Scale       =       0.3333333333333333 [-]
	 SCS Opposite-Spin Scale   =       1.2000000000000000 [-]
	 SCS Same-Spin Energy      =      -0.2053318057658463 [Eh]
	 SCS Opposite-Spin Energy  =      -1.9963604312940597 [Eh]
	 SCS Correlation Energy    =      -2.2016922370599059 [Eh]
	 SCS Total Energy          =   -1207.5244124126518273 [Eh]
	-----------------------------------------------------------

  Dipole Moment: [D]
     X:    -0.1486      Y:    -0.1376      Z:     0.3637     Total:     0.4163

*** Psi4 exiting successfully. Buy a developer a beer!
