                               Psi4 1.3.2 release

  ==> Input File <==

--------------------------------------------------------------------------
#psi4
#
memory 32 gb

molecule  {
-4 1
  P       -1.6778080    -0.0000010     0.0005490
  P        1.6778000     0.0000020     0.0005400
  O       -0.0075818    -0.0529457     0.4198143
  O       -2.3613630    -0.0003970     1.4096540
  O       -2.0007970    -1.2973530    -0.8037440
  O        2.3612970    -0.0008400     1.4096690
  O        2.0008330     1.2980780    -0.8025670
  O       -2.0007100     1.2978530    -0.8029660
  O        2.0007590    -1.2971630    -0.8040650
units angstrom
no_reorient  #important for SAPT in psi4, default
symmetry c1  #important for SAPT in psi4, default
}

set PROPERTIES_ORIGIN ["COM"]
properties('MP2/aug-cc-pvtz', properties = ['dipole'])
--------------------------------------------------------------------------

    Molecular point group: c1
  Charge       = -4
  Multiplicity = 1
  Basis Set: AUG-CC-PVTZ
    Blend: AUG-CC-PVTZ
  Basis Set: (AUG-CC-PVTZ AUX)
    Blend: AUG-CC-PVTZ-JKFIT

    Orbital Energies [Eh]
    ---------------------

    Doubly Occupied:

       1A    -79.443576     2A    -79.440842     3A    -19.916329
       4A    -19.879712     5A    -19.877949     6A    -19.877831
       7A    -19.876114     8A    -19.875738     9A    -19.874296
      10A     -6.954041    11A     -6.951463    12A     -4.853076
      13A     -4.851690    14A     -4.851610    15A     -4.850507
      16A     -4.849140    17A     -4.849058    18A     -0.721603
      19A     -0.689198    20A     -0.633532    21A     -0.609275
      22A     -0.607720    23A     -0.607271    24A     -0.605594
      25A     -0.149680    26A     -0.049438    27A      0.002520
      28A      0.034643    29A      0.035091    30A      0.057749
      31A      0.058535    32A      0.096623    33A      0.118048
      34A      0.125850    35A      0.149795    36A      0.150754
      37A      0.153113    38A      0.156309    39A      0.166729
      40A      0.190377    41A      0.190871    42A      0.206836
      43A      0.210745    44A      0.218158    45A      0.220111

  @DF-RHF Final Energy: -1205.32108810930254

   => Energetics <=

    Nuclear Repulsion Energy =            666.6986069638629715
    One-Electron Energy =               -3057.6325425698778417
    Two-Electron Energy =                1185.6128474967124475
    Total Energy =                      -1205.3210881093025364
  Basis Set: (AUG-CC-PVTZ AUX)
    Blend: AUG-CC-PVTZ-RI
    Molecular point group: c1

    Geometry (in Angstrom), charge = -4, multiplicity = 1:

       Center              X                  Y                   Z               Mass
    ------------   -----------------  -----------------  -----------------  -----------------
         P           -1.677111014273     0.004851938497    -0.002017379761    30.973761998420
         P            1.678496985727     0.004854938497    -0.002026379761    30.973761998420
         O           -0.006884814273    -0.048092761503     0.417247920239    15.994914619570
         O           -2.360666014273     0.004455938497     1.407087620239    15.994914619570
         O           -2.000100014273    -1.292500061503    -0.806310379761    15.994914619570
         O            2.361993985727     0.004012938497     1.407102620239    15.994914619570
         O            2.001529985727     1.302930938497    -0.805133379761    15.994914619570
         O           -2.000013014273     1.302705938497    -0.805532379761    15.994914619570
         O            2.001455985727    -1.292310061503    -0.806631379761    15.994914619570

  Basis Set: AUG-CC-PVTZ
    Blend: AUG-CC-PVTZ
  Basis Set: (AUG-CC-PVTZ AUX)
    Blend: AUG-CC-PVTZ-JKFIT
	 Reference Energy          =   -1205.3210881093025364 [Eh]
	 Singles Energy            =      -0.0000000000000000 [Eh]
	 Same-Spin Energy          =      -0.6163243360651729 [Eh]
	 Opposite-Spin Energy      =      -1.6647398714427761 [Eh]
	 Correlation Energy        =      -2.2810642075079492 [Eh]
	 Total Energy              =   -1207.6021523168105887 [Eh]

	 ================> DF-SCS-MP2 Energies <==================
	-----------------------------------------------------------
	 SCS Same-Spin Scale       =       0.3333333333333333 [-]
	 SCS Opposite-Spin Scale   =       1.2000000000000000 [-]
	 SCS Same-Spin Energy      =      -0.2054414453550576 [Eh]
	 SCS Opposite-Spin Energy  =      -1.9976878457313312 [Eh]
	 SCS Correlation Energy    =      -2.2031292910863889 [Eh]
	 SCS Total Energy          =   -1207.5242174003890341 [Eh]
	-----------------------------------------------------------

  Dipole Moment: [D]
     X:     0.1187      Y:     0.0679      Z:     0.2544     Total:     0.2888

*** Psi4 exiting successfully. Buy a developer a beer!
