                               Psi4 1.4a3.dev225

  ==> Input File <==

--------------------------------------------------------------------------
#psi4
#
memory 32 gb

molecule  {
-4 1
  P        1.5557560     0.0007770    -0.0111170
  P       -1.5567580    -0.0020400    -0.0113580
  O        0.0005040    -0.0138450    -0.6805560
  O        2.3866182     0.5229928    -1.1814875
  O        1.8853550    -1.4649890     0.3558240
  O       -2.3799130    -0.6866630    -1.1280670
  O       -1.9249590     1.4878560     0.1848770
  O        1.5475870     0.9578490     1.2013440
  O       -1.5241940    -0.8076720     1.3055320
units angstrom
no_reorient  #important for SAPT in psi4, default
symmetry c1  #important for SAPT in psi4, default
}

set PROPERTIES_ORIGIN ["COM"]
properties('MP2/aug-cc-pvtz', properties = ['dipole'])
--------------------------------------------------------------------------

    Molecular point group: c1
  Charge       = -4
  Multiplicity = 1
  Basis Set: AUG-CC-PVTZ
    Blend: AUG-CC-PVTZ
  Basis Set: (AUG-CC-PVTZ AUX)
    Blend: AUG-CC-PVTZ-JKFIT

    Orbital Energies [Eh]
    ---------------------

    Doubly Occupied:

       1A    -79.414816     2A    -79.411347     3A    -19.903866
       4A    -19.866313     5A    -19.864871     6A    -19.860349
       7A    -19.858358     8A    -19.854567     9A    -19.853429
      10A     -6.927863    11A     -6.925051    12A     -4.826877
      13A     -4.825631    14A     -4.825435    15A     -4.824027
      16A     -4.822924    17A     -4.822539    18A     -0.725741
      19A     -0.682465    20A     -0.627578    21A     -0.603621
      22A     -0.601044    23A     -0.594828    24A     -0.593712
      25A     -0.135555    26A     -0.037525    27A      0.013485
      28A      0.036954    29A      0.040605    30A      0.067929
      31A      0.069331    32A      0.098532    33A      0.124877
      34A      0.138967    35A      0.159049    36A      0.159735
      37A      0.165839    38A      0.167226    39A      0.180604
      40A      0.204254    41A      0.205592    42A      0.216803
      43A      0.224169    44A      0.231994    45A      0.234946

  @DF-RHF Final Energy: -1205.32223650001856

   => Energetics <=

    Nuclear Repulsion Energy =            689.8552482502702787
    One-Electron Energy =               -3105.2560954507266615
    Two-Electron Energy =                1210.0786107004375936
    Total Energy =                      -1205.3222365000185619
  Basis Set: (AUG-CC-PVTZ AUX)
    Blend: AUG-CC-PVTZ-RI
    Molecular point group: c1

    Geometry (in Angstrom), charge = -4, multiplicity = 1:

       Center              X                  Y                   Z               Mass
    ------------   -----------------  -----------------  -----------------  -----------------
         P            1.556762364173     0.001413162947    -0.012399467883    30.973761998420
         P           -1.555751635827    -0.001403837053    -0.012640467883    30.973761998420
         O            0.001510364173    -0.013208837053    -0.681838467883    15.994914619570
         O            2.387624564173     0.523628962947    -1.182769967883    15.994914619570
         O            1.886361364173    -1.464352837053     0.354541532117    15.994914619570
         O           -2.378906635827    -0.686026837053    -1.129349467883    15.994914619570
         O           -1.923952635827     1.488492162947     0.183594532117    15.994914619570
         O            1.548593364173     0.958485162947     1.200061532117    15.994914619570
         O           -1.523187635827    -0.807035837053     1.304249532117    15.994914619570

  Basis Set: AUG-CC-PVTZ
    Blend: AUG-CC-PVTZ
  Basis Set: (AUG-CC-PVTZ AUX)
    Blend: AUG-CC-PVTZ-JKFIT
	 Reference Energy          =   -1205.3222365000185619 [Eh]
	 Singles Energy            =      -0.0000000000000000 [Eh]
	 Same-Spin Energy          =      -0.6146350410866968 [Eh]
	 Opposite-Spin Energy      =      -1.6596136719494339 [Eh]
	 Correlation Energy        =      -2.2742487130361306 [Eh]
	 Total Energy              =   -1207.5964852130546205 [Eh]

	 ================> DF-SCS-MP2 Energies <==================
	-----------------------------------------------------------
	 SCS Same-Spin Scale       =       0.3333333333333333 [-]
	 SCS Opposite-Spin Scale   =       1.2000000000000000 [-]
	 SCS Same-Spin Energy      =      -0.2048783470288989 [Eh]
	 SCS Opposite-Spin Energy  =      -1.9915364063393206 [Eh]
	 SCS Correlation Energy    =      -2.1964147533682197 [Eh]
	 SCS Total Energy          =   -1207.5186512533866789 [Eh]
	-----------------------------------------------------------

  Dipole Moment: [D]
     X:     0.0932      Y:     0.0230      Z:    -0.8687     Total:     0.8740

*** Psi4 exiting successfully. Buy a developer a beer!
