                               Psi4 1.3.2 release

  ==> Input File <==

--------------------------------------------------------------------------
#psi4
#
memory 32 gb

molecule  {
-4 1
  P       -1.6778080    -0.0000010     0.0005490
  P        1.6778000     0.0000020     0.0005400
  O       -0.0171945    -0.1056449     0.4471408
  O       -2.3613630    -0.0003970     1.4096540
  O       -2.0007970    -1.2973530    -0.8037440
  O        2.3612970    -0.0008400     1.4096690
  O        2.0008330     1.2980780    -0.8025670
  O       -2.0007100     1.2978530    -0.8029660
  O        2.0007590    -1.2971630    -0.8040650
units angstrom
no_reorient  #important for SAPT in psi4, default
symmetry c1  #important for SAPT in psi4, default
}

set PROPERTIES_ORIGIN ["COM"]
properties('MP2/aug-cc-pvtz', properties = ['dipole'])
--------------------------------------------------------------------------

    Molecular point group: c1
  Charge       = -4
  Multiplicity = 1
  Basis Set: AUG-CC-PVTZ
    Blend: AUG-CC-PVTZ
  Basis Set: (AUG-CC-PVTZ AUX)
    Blend: AUG-CC-PVTZ-JKFIT

    Orbital Energies [Eh]
    ---------------------

    Doubly Occupied:

       1A    -79.445130     2A    -79.439104     3A    -19.916802
       4A    -19.883361     5A    -19.879543     6A    -19.878346
       7A    -19.876292     8A    -19.873650     9A    -19.872219
      10A     -6.955570    11A     -6.949883    12A     -4.854563
      13A     -4.853202    14A     -4.853098    15A     -4.848892
      16A     -4.847577    17A     -4.847470    18A     -0.719985
      19A     -0.689468    20A     -0.632678    21A     -0.611033
      22A     -0.607937    23A     -0.607142    24A     -0.603788
      25A     -0.145586    26A     -0.050570    27A      0.003031
      28A      0.035531    29A      0.036334    30A      0.057581
      31A      0.058711    32A      0.094948    33A      0.117773
      34A      0.128204    35A      0.148774    36A      0.149954
      37A      0.153614    38A      0.156571    39A      0.167483
      40A      0.190313    41A      0.191241    42A      0.205021
      43A      0.212372    44A      0.217006    45A      0.220959

  @DF-RHF Final Energy: -1205.31812294155202

   => Energetics <=

    Nuclear Repulsion Energy =            666.1617255946590603
    One-Electron Energy =               -3056.5647582660444641
    Two-Electron Energy =                1185.0849097298334982
    Total Energy =                      -1205.3181229415520193
  Basis Set: (AUG-CC-PVTZ AUX)
    Blend: AUG-CC-PVTZ-RI
    Molecular point group: c1

    Geometry (in Angstrom), charge = -4, multiplicity = 1:

       Center              X                  Y                   Z               Mass
    ------------   -----------------  -----------------  -----------------  -----------------
         P           -1.676226921278     0.009698755057    -0.004530634852    30.973761998420
         P            1.679381078722     0.009701755057    -0.004539634852    30.973761998420
         O           -0.015613421278    -0.095945144943     0.442061165148    15.994914619570
         O           -2.359781921278     0.009302755057     1.404574365148    15.994914619570
         O           -1.999215921278    -1.287653244943    -0.808823634852    15.994914619570
         O            2.362878078722     0.008859755057     1.404589365148    15.994914619570
         O            2.002414078722     1.307777755057    -0.807646634852    15.994914619570
         O           -1.999128921278     1.307552755057    -0.808045634852    15.994914619570
         O            2.002340078722    -1.287463244943    -0.809144634852    15.994914619570

  Basis Set: AUG-CC-PVTZ
    Blend: AUG-CC-PVTZ
  Basis Set: (AUG-CC-PVTZ AUX)
    Blend: AUG-CC-PVTZ-JKFIT
	 Reference Energy          =   -1205.3181229415520193 [Eh]
	 Singles Energy            =      -0.0000000000000000 [Eh]
	 Same-Spin Energy          =      -0.6166416047001755 [Eh]
	 Opposite-Spin Energy      =      -1.6656118037373093 [Eh]
	 Correlation Energy        =      -2.2822534084374846 [Eh]
	 Total Energy              =   -1207.6003763499895740 [Eh]

	 ================> DF-SCS-MP2 Energies <==================
	-----------------------------------------------------------
	 SCS Same-Spin Scale       =       0.3333333333333333 [-]
	 SCS Opposite-Spin Scale   =       1.2000000000000000 [-]
	 SCS Same-Spin Energy      =      -0.2055472015667252 [Eh]
	 SCS Opposite-Spin Energy  =      -1.9987341644847711 [Eh]
	 SCS Correlation Energy    =      -2.2042813660514962 [Eh]
	 SCS Total Energy          =   -1207.5224043076034377 [Eh]
	-----------------------------------------------------------

  Dipole Moment: [D]
     X:     0.2622      Y:     0.1348      Z:     0.2159     Total:     0.3654

*** Psi4 exiting successfully. Buy a developer a beer!
