                               Psi4 1.3.2 release

  ==> Input File <==

--------------------------------------------------------------------------
#psi4
#
memory 32 gb

molecule  {
-4 1
  P       -1.6778080    -0.0000010     0.0005490
  P        1.6778000     0.0000020     0.0005400
  O        0.0030188     0.0262039     0.3778774
  O       -2.3613630    -0.0003970     1.4096540
  O       -2.0007970    -1.2973530    -0.8037440
  O        2.3612970    -0.0008400     1.4096690
  O        2.0008330     1.2980780    -0.8025670
  O       -2.0007100     1.2978530    -0.8029660
  O        2.0007590    -1.2971630    -0.8040650
units angstrom
no_reorient  #important for SAPT in psi4, default
symmetry c1  #important for SAPT in psi4, default
}

set PROPERTIES_ORIGIN ["COM"]
properties('MP2/aug-cc-pvtz', properties = ['dipole'])
--------------------------------------------------------------------------

    Molecular point group: c1
  Charge       = -4
  Multiplicity = 1
  Basis Set: AUG-CC-PVTZ
    Blend: AUG-CC-PVTZ
  Basis Set: (AUG-CC-PVTZ AUX)
    Blend: AUG-CC-PVTZ-JKFIT

    Orbital Energies [Eh]
    ---------------------

    Doubly Occupied:

       1A    -79.442883     2A    -79.441756     3A    -19.915539
       4A    -19.878505     5A    -19.877646     6A    -19.877130
       7A    -19.876400     8A    -19.875307     9A    -19.874569
      10A     -6.953326    11A     -6.952265    12A     -4.852417
      13A     -4.851360    14A     -4.850991    15A     -4.850911
      16A     -4.849940    17A     -4.849860    18A     -0.723567
      19A     -0.689024    20A     -0.634659    21A     -0.608136
      22A     -0.607439    23A     -0.607261    24A     -0.606436
      25A     -0.154302    26A     -0.048246    27A      0.001911
      28A      0.033457    29A      0.033833    30A      0.058095
      31A      0.058260    32A      0.098774    33A      0.117108
      34A      0.124184    35A      0.150655    36A      0.150961
      37A      0.153288    38A      0.156332    39A      0.165627
      40A      0.189724    41A      0.191353    42A      0.208379
      43A      0.210225    44A      0.218838    45A      0.219987

  @DF-RHF Final Energy: -1205.32321500833064

   => Energetics <=

    Nuclear Repulsion Energy =            667.3324266730647878
    One-Electron Energy =               -3058.8935150720244565
    Two-Electron Energy =                1186.2378733906291473
    Total Energy =                      -1205.3232150083306351
  Basis Set: (AUG-CC-PVTZ AUX)
    Blend: AUG-CC-PVTZ-RI
    Molecular point group: c1

    Geometry (in Angstrom), charge = -4, multiplicity = 1:

       Center              X                  Y                   Z               Mass
    ------------   -----------------  -----------------  -----------------  -----------------
         P           -1.678085965764    -0.002427557055     0.001839613541    30.973761998420
         P            1.677522034236    -0.002424557055     0.001830613541    30.973761998420
         O            0.002740834236     0.023777342945     0.379168013541    15.994914619570
         O           -2.361640965764    -0.002823557055     1.410944613541    15.994914619570
         O           -2.001074965764    -1.299779557055    -0.802453386459    15.994914619570
         O            2.361019034236    -0.003266557055     1.410959613541    15.994914619570
         O            2.000555034236     1.295651442945    -0.801276386459    15.994914619570
         O           -2.000987965764     1.295426442945    -0.801675386459    15.994914619570
         O            2.000481034236    -1.299589557055    -0.802774386459    15.994914619570

  Basis Set: AUG-CC-PVTZ
    Blend: AUG-CC-PVTZ
  Basis Set: (AUG-CC-PVTZ AUX)
    Blend: AUG-CC-PVTZ-JKFIT
	 Reference Energy          =   -1205.3232150083306351 [Eh]
	 Singles Energy            =      -0.0000000000000000 [Eh]
	 Same-Spin Energy          =      -0.6160403582757537 [Eh]
	 Opposite-Spin Energy      =      -1.6638953478260883 [Eh]
	 Correlation Energy        =      -2.2799357061018419 [Eh]
	 Total Energy              =   -1207.6031507144325587 [Eh]

	 ================> DF-SCS-MP2 Energies <==================
	-----------------------------------------------------------
	 SCS Same-Spin Scale       =       0.3333333333333333 [-]
	 SCS Opposite-Spin Scale   =       1.2000000000000000 [-]
	 SCS Same-Spin Energy      =      -0.2053467860919179 [Eh]
	 SCS Opposite-Spin Energy  =      -1.9966744173913058 [Eh]
	 SCS Correlation Energy    =      -2.2020212034832238 [Eh]
	 SCS Total Energy          =   -1207.5252362118137626 [Eh]
	-----------------------------------------------------------

  Dipole Moment: [D]
     X:    -0.0489      Y:    -0.0344      Z:     0.3104     Total:     0.3162

*** Psi4 exiting successfully. Buy a developer a beer!
