                               Psi4 1.4a3.dev225

  ==> Input File <==

--------------------------------------------------------------------------
#psi4
#
memory 32 gb

molecule  {
-4 1
  P        1.5557560     0.0007770    -0.0111170
  P       -1.5567580    -0.0020400    -0.0113580
  O        0.0005040    -0.0138450    -0.6805560
  O        2.4246974     0.5469264    -1.2351267
  O        1.8853550    -1.4649890     0.3558240
  O       -2.3799130    -0.6866630    -1.1280670
  O       -1.9249590     1.4878560     0.1848770
  O        1.5475870     0.9578490     1.2013440
  O       -1.5241940    -0.8076720     1.3055320
units angstrom
no_reorient  #important for SAPT in psi4, default
symmetry c1  #important for SAPT in psi4, default
}

set PROPERTIES_ORIGIN ["COM"]
properties('MP2/aug-cc-pvtz', properties = ['dipole'])
--------------------------------------------------------------------------

    Molecular point group: c1
  Charge       = -4
  Multiplicity = 1
  Basis Set: AUG-CC-PVTZ
    Blend: AUG-CC-PVTZ
  Basis Set: (AUG-CC-PVTZ AUX)
    Blend: AUG-CC-PVTZ-JKFIT

    Orbital Energies [Eh]
    ---------------------

    Doubly Occupied:

       1A    -79.424423     2A    -79.417686     3A    -19.909011
       4A    -19.870178     5A    -19.868391     6A    -19.864869
       7A    -19.862439     8A    -19.860042     9A    -19.857067
      10A     -6.936126    11A     -6.930719    12A     -4.835226
      13A     -4.833786    14A     -4.833708    15A     -4.829765
      16A     -4.828462    17A     -4.828268    18A     -0.726513
      19A     -0.679674    20A     -0.629427    21A     -0.603292
      22A     -0.599838    23A     -0.597270    24A     -0.592340
      25A     -0.140225    26A     -0.040198    27A      0.012476
      28A      0.034990    29A      0.038629    30A      0.067467
      31A      0.069675    32A      0.097166    33A      0.122785
      34A      0.140576    35A      0.157985    36A      0.158936
      37A      0.164942    38A      0.165810    39A      0.179787
      40A      0.201261    41A      0.205101    42A      0.214158
      43A      0.220534    44A      0.229010    45A      0.231788

  @DF-RHF Final Energy: -1205.31915511303782

   => Energetics <=

    Nuclear Repulsion Energy =            686.7362002553035154
    One-Electron Energy =               -3098.7389746994795132
    Two-Electron Energy =                1206.6836193311380612
    Total Energy =                      -1205.3191551130378230
  Basis Set: (AUG-CC-PVTZ AUX)
    Blend: AUG-CC-PVTZ-RI
    Molecular point group: c1

    Geometry (in Angstrom), charge = -4, multiplicity = 1:

       Center              X                  Y                   Z               Mass
    ------------   -----------------  -----------------  -----------------  -----------------
         P            1.553260168748    -0.000788042551    -0.007466198255    30.973761998420
         P           -1.559253831252    -0.003605042551    -0.007707198255    30.973761998420
         O           -0.001991831252    -0.015410042551    -0.676905198255    15.994914619570
         O            2.422201568748     0.545361357449    -1.231475898255    15.994914619570
         O            1.882859168748    -1.466554042551     0.359474801745    15.994914619570
         O           -2.382408831252    -0.688228042551    -1.124416198255    15.994914619570
         O           -1.927454831252     1.486290957449     0.188527801745    15.994914619570
         O            1.545091168748     0.956283957449     1.204994801745    15.994914619570
         O           -1.526689831252    -0.809237042551     1.309182801745    15.994914619570

  Basis Set: AUG-CC-PVTZ
    Blend: AUG-CC-PVTZ
  Basis Set: (AUG-CC-PVTZ AUX)
    Blend: AUG-CC-PVTZ-JKFIT
	 Reference Energy          =   -1205.3191551130378230 [Eh]
	 Singles Energy            =      -0.0000000000000000 [Eh]
	 Same-Spin Energy          =      -0.6157323160876366 [Eh]
	 Opposite-Spin Energy      =      -1.6626192990990267 [Eh]
	 Correlation Energy        =      -2.2783516151866632 [Eh]
	 Total Energy              =   -1207.5975067282245163 [Eh]

	 ================> DF-SCS-MP2 Energies <==================
	-----------------------------------------------------------
	 SCS Same-Spin Scale       =       0.3333333333333333 [-]
	 SCS Opposite-Spin Scale   =       1.2000000000000000 [-]
	 SCS Same-Spin Energy      =      -0.2052441053625455 [Eh]
	 SCS Opposite-Spin Energy  =      -1.9951431589188320 [Eh]
	 SCS Correlation Energy    =      -2.2003872642813773 [Eh]
	 SCS Total Energy          =   -1207.5195423773191123 [Eh]
	-----------------------------------------------------------

  Dipole Moment: [D]
     X:    -0.3192      Y:    -0.1774      Z:    -0.4130     Total:     0.5512

*** Psi4 exiting successfully. Buy a developer a beer!
