                               Psi4 1.3.2 release

  ==> Input File <==

--------------------------------------------------------------------------
#psi4
#
memory 32 gb

molecule  {
-4 1
  P       -1.6778080    -0.0000010     0.0005490
  P        1.6778000     0.0000020     0.0005400
  O        0.0973809    -0.0001925     0.4146967
  O       -2.3613630    -0.0003970     1.4096540
  O       -2.0007970    -1.2973530    -0.8037440
  O        2.3612970    -0.0008400     1.4096690
  O        2.0008330     1.2980780    -0.8025670
  O       -2.0007100     1.2978530    -0.8029660
  O        2.0007590    -1.2971630    -0.8040650
units angstrom
no_reorient  #important for SAPT in psi4, default
symmetry c1  #important for SAPT in psi4, default
}

set PROPERTIES_ORIGIN ["COM"]
properties('MP2/aug-cc-pvtz', properties = ['dipole'])
--------------------------------------------------------------------------

    Molecular point group: c1
  Charge       = -4
  Multiplicity = 1
  Basis Set: AUG-CC-PVTZ
    Blend: AUG-CC-PVTZ
  Basis Set: (AUG-CC-PVTZ AUX)
    Blend: AUG-CC-PVTZ-JKFIT

    Orbital Energies [Eh]
    ---------------------

    Doubly Occupied:

       1A    -79.459083     2A    -79.423597     3A    -19.914179
       4A    -19.890443     5A    -19.888532     6A    -19.888513
       7A    -19.865423     8A    -19.865406     9A    -19.863317
      10A     -6.968905    11A     -6.935534    12A     -4.867937
      13A     -4.866344    14A     -4.866277    15A     -4.834704
      16A     -4.833295    17A     -4.833217    18A     -0.724660
      19A     -0.692853    20A     -0.631791    21A     -0.618652
      22A     -0.618564    23A     -0.597635    24A     -0.595205
      25A     -0.150023    26A     -0.050917    27A      0.004181
      28A      0.032494    29A      0.032753    30A      0.056602
      31A      0.057396    32A      0.096931    33A      0.119764
      34A      0.124674    35A      0.141803    36A      0.143165
      37A      0.161732    38A      0.162129    39A      0.169424
      40A      0.184541    41A      0.184950    42A      0.207862
      43A      0.213905    44A      0.216632    45A      0.230299

  @DF-RHF Final Energy: -1205.31706068402809

   => Energetics <=

    Nuclear Repulsion Energy =            667.0819131039179410
    One-Electron Energy =               -3058.3904081078208037
    Two-Electron Energy =                1185.9914343198747702
    Total Energy =                      -1205.3170606840280925
  Basis Set: (AUG-CC-PVTZ AUX)
    Blend: AUG-CC-PVTZ-RI
    Molecular point group: c1

    Geometry (in Angstrom), charge = -4, multiplicity = 1:

       Center              X                  Y                   Z               Mass
    ------------   -----------------  -----------------  -----------------  -----------------
         P           -1.686764575476     0.000000155484    -0.001546707181    30.973761998420
         P            1.668843424524     0.000003155484    -0.001555707181    30.973761998420
         O            0.088424324524    -0.000191344516     0.412600992819    15.994914619570
         O           -2.370319575476    -0.000395844516     1.407558292819    15.994914619570
         O           -2.009753575476    -1.297351844516    -0.805839707181    15.994914619570
         O            2.352340424524    -0.000838844516     1.407573292819    15.994914619570
         O            1.991876424524     1.298079155484    -0.804662707181    15.994914619570
         O           -2.009666575476     1.297854155484    -0.805061707181    15.994914619570
         O            1.991802424524    -1.297161844516    -0.806160707181    15.994914619570

  Basis Set: AUG-CC-PVTZ
    Blend: AUG-CC-PVTZ
  Basis Set: (AUG-CC-PVTZ AUX)
    Blend: AUG-CC-PVTZ-JKFIT
	 Reference Energy          =   -1205.3170606840280925 [Eh]
	 Singles Energy            =      -0.0000000000000000 [Eh]
	 Same-Spin Energy          =      -0.6162814454458806 [Eh]
	 Opposite-Spin Energy      =      -1.6645643241836701 [Eh]
	 Correlation Energy        =      -2.2808457696295505 [Eh]
	 Total Energy              =   -1207.5979064536577425 [Eh]

	 ================> DF-SCS-MP2 Energies <==================
	-----------------------------------------------------------
	 SCS Same-Spin Scale       =       0.3333333333333333 [-]
	 SCS Opposite-Spin Scale   =       1.2000000000000000 [-]
	 SCS Same-Spin Energy      =      -0.2054271484819602 [Eh]
	 SCS Opposite-Spin Energy  =      -1.9974771890204039 [Eh]
	 SCS Correlation Energy    =      -2.2029043375023640 [Eh]
	 SCS Total Energy          =   -1207.5199650215304246 [Eh]
	-----------------------------------------------------------

  Dipole Moment: [D]
     X:    -1.5346      Y:    -0.0001      Z:     0.2615     Total:     1.5567

*** Psi4 exiting successfully. Buy a developer a beer!
