                               Psi4 1.3.2 release

  ==> Input File <==

--------------------------------------------------------------------------
#psi4
#
memory 32 gb

molecule  {
-4 1
  P       -1.6778080    -0.0000010     0.0005490
  P        1.6778000     0.0000020     0.0005400
  O       -0.0000040    -0.0001820     0.3919770
  O       -2.3613630    -0.0003970     1.4096540
  O       -2.0007970    -1.2973530    -0.8037440
  O        2.3612970    -0.0008400     1.4096690
  O        2.0008330     1.2980780    -0.8025670
  O       -1.9800142     1.2146697    -0.7514663
  O        2.0007590    -1.2971630    -0.8040650
units angstrom
no_reorient  #important for SAPT in psi4, default
symmetry c1  #important for SAPT in psi4, default
}

set PROPERTIES_ORIGIN ["COM"]
properties('MP2/aug-cc-pvtz', properties = ['dipole'])
--------------------------------------------------------------------------

    Molecular point group: c1
  Charge       = -4
  Multiplicity = 1
  Basis Set: AUG-CC-PVTZ
    Blend: AUG-CC-PVTZ
  Basis Set: (AUG-CC-PVTZ AUX)
    Blend: AUG-CC-PVTZ-JKFIT

    Orbital Energies [Eh]
    ---------------------

    Doubly Occupied:

       1A    -79.439470     2A    -79.422323     3A    -19.908305
       4A    -19.875135     5A    -19.874996     6A    -19.873788
       7A    -19.869493     8A    -19.868799     9A    -19.867158
      10A     -6.949928    11A     -6.936680    12A     -4.848966
      13A     -4.847630    14A     -4.847566    15A     -4.835597
      16A     -4.834728    17A     -4.833871    18A     -0.727926
      19A     -0.695957    20A     -0.636360    21A     -0.615781
      22A     -0.605835    23A     -0.604769    24A     -0.599466
      25A     -0.146716    26A     -0.045679    27A      0.002164
      28A      0.034611    29A      0.034838    30A      0.056871
      31A      0.057343    32A      0.095415    33A      0.119147
      34A      0.126666    35A      0.148606    36A      0.150403
      37A      0.154301    38A      0.157245    39A      0.168017
      40A      0.190241    41A      0.194458    42A      0.211012
      43A      0.214545    44A      0.221235    45A      0.224142

  @DF-RHF Final Energy: -1205.32145024504416

   => Energetics <=

    Nuclear Repulsion Energy =            671.6165924046501914
    One-Electron Energy =               -3067.7727587710278385
    Two-Electron Energy =                1190.8347161213337131
    Total Energy =                      -1205.3214502450441614
  Basis Set: (AUG-CC-PVTZ AUX)
    Blend: AUG-CC-PVTZ-RI
    Molecular point group: c1

    Geometry (in Angstrom), charge = -4, multiplicity = 1:

       Center              X                  Y                   Z               Mass
    ------------   -----------------  -----------------  -----------------  -----------------
         P           -1.679711375430     0.007649670171    -0.004193642629    30.973761998420
         P            1.675896624570     0.007652670171    -0.004202642629    30.973761998420
         O           -0.001907375430     0.007468670171     0.387234357371    15.994914619570
         O           -2.363266375430     0.007253670171     1.404911357371    15.994914619570
         O           -2.002700375430    -1.289702329829    -0.808486642629    15.994914619570
         O            2.359393624570     0.006810670171     1.404926357371    15.994914619570
         O            1.998929624570     1.305728670171    -0.807309642629    15.994914619570
         O           -1.981917575430     1.222320370171    -0.756208942629    15.994914619570
         O            1.998855624570    -1.289512329829    -0.808807642629    15.994914619570

  Basis Set: AUG-CC-PVTZ
    Blend: AUG-CC-PVTZ
  Basis Set: (AUG-CC-PVTZ AUX)
    Blend: AUG-CC-PVTZ-JKFIT
	 Reference Energy          =   -1205.3214502450441614 [Eh]
	 Singles Energy            =      -0.0000000000000000 [Eh]
	 Same-Spin Energy          =      -0.6144592872942450 [Eh]
	 Opposite-Spin Energy      =      -1.6597473762281081 [Eh]
	 Correlation Energy        =      -2.2742066635223530 [Eh]
	 Total Energy              =   -1207.5956569085665251 [Eh]

	 ================> DF-SCS-MP2 Energies <==================
	-----------------------------------------------------------
	 SCS Same-Spin Scale       =       0.3333333333333333 [-]
	 SCS Opposite-Spin Scale   =       1.2000000000000000 [-]
	 SCS Same-Spin Energy      =      -0.2048197624314150 [Eh]
	 SCS Opposite-Spin Energy  =      -1.9916968514737297 [Eh]
	 SCS Correlation Energy    =      -2.1965166139051449 [Eh]
	 SCS Total Energy          =   -1207.5179668589491939 [Eh]
	-----------------------------------------------------------

  Dipole Moment: [D]
     X:    -0.2658      Y:     0.6219      Z:    -0.0910     Total:     0.6824

*** Psi4 exiting successfully. Buy a developer a beer!
