                               Psi4 1.3.2 release

  ==> Input File <==

--------------------------------------------------------------------------
#psi4
#
memory 32 gb

molecule  {
-4 1
  P       -1.6778080    -0.0000010     0.0005490
  P        1.6778000     0.0000020     0.0005400
  O        0.1947658    -0.0002030     0.4374164
  O       -2.3613630    -0.0003970     1.4096540
  O       -2.0007970    -1.2973530    -0.8037440
  O        2.3612970    -0.0008400     1.4096690
  O        2.0008330     1.2980780    -0.8025670
  O       -2.0007100     1.2978530    -0.8029660
  O        2.0007590    -1.2971630    -0.8040650
units angstrom
no_reorient  #important for SAPT in psi4, default
symmetry c1  #important for SAPT in psi4, default
}

set PROPERTIES_ORIGIN ["COM"]
properties('MP2/aug-cc-pvtz', properties = ['dipole'])
--------------------------------------------------------------------------

    Molecular point group: c1
  Charge       = -4
  Multiplicity = 1
  Basis Set: AUG-CC-PVTZ
    Blend: AUG-CC-PVTZ
  Basis Set: (AUG-CC-PVTZ AUX)
    Blend: AUG-CC-PVTZ-JKFIT

    Orbital Energies [Eh]
    ---------------------

    Doubly Occupied:

       1A    -79.473878     2A    -79.403469     3A    -19.908564
       4A    -19.902976     5A    -19.900673     6A    -19.900654
       7A    -19.855257     8A    -19.855239     9A    -19.849134
      10A     -6.983560    11A     -6.917758    12A     -4.882602
      13A     -4.880706    14A     -4.880643    15A     -4.817191
      16A     -4.815429    17A     -4.815326    18A     -0.731490
      19A     -0.702842    20A     -0.630062    21A     -0.629587
      22A     -0.626066    23A     -0.588279    24A     -0.583336
      25A     -0.146146    26A     -0.055540    27A      0.008464
      28A      0.027650    29A      0.028061    30A      0.052980
      31A      0.054660    32A      0.094552    33A      0.122943
      34A      0.124460    35A      0.133127    36A      0.134919
      37A      0.164819    38A      0.170664    39A      0.174024
      40A      0.176073    41A      0.180519    42A      0.196561
      43A      0.223339    44A      0.229640    45A      0.240866

  @DF-RHF Final Energy: -1205.30071913231563

   => Energetics <=

    Nuclear Repulsion Energy =            667.5265634645649016
    One-Electron Energy =               -3059.2583903797117273
    Two-Electron Energy =                1186.4311077828313046
    Total Energy =                      -1205.3007191323156349
  Basis Set: (AUG-CC-PVTZ AUX)
    Blend: AUG-CC-PVTZ-RI
    Molecular point group: c1

    Geometry (in Angstrom), charge = -4, multiplicity = 1:

       Center              X                  Y                   Z               Mass
    ------------   -----------------  -----------------  -----------------  -----------------
         P           -1.695721196184     0.000001121183    -0.003636268658    30.973761998420
         P            1.659886803816     0.000004121183    -0.003645268658    30.973761998420
         O            0.176852603816    -0.000200878817     0.433231131342    15.994914619570
         O           -2.379276196184    -0.000394878817     1.405468731342    15.994914619570
         O           -2.018710196184    -1.297350878817    -0.807929268658    15.994914619570
         O            2.343383803816    -0.000837878817     1.405483731342    15.994914619570
         O            1.982919803816     1.298080121183    -0.806752268658    15.994914619570
         O           -2.018623196184     1.297855121183    -0.807151268658    15.994914619570
         O            1.982845803816    -1.297160878817    -0.808250268658    15.994914619570

  Basis Set: AUG-CC-PVTZ
    Blend: AUG-CC-PVTZ
  Basis Set: (AUG-CC-PVTZ AUX)
    Blend: AUG-CC-PVTZ-JKFIT
	 Reference Energy          =   -1205.3007191323156349 [Eh]
	 Singles Energy            =      -0.0000000000000000 [Eh]
	 Same-Spin Energy          =      -0.6165630066325830 [Eh]
	 Opposite-Spin Energy      =      -1.6651388354212615 [Eh]
	 Correlation Energy        =      -2.2817018420538444 [Eh]
	 Total Energy              =   -1207.5824209743693700 [Eh]

	 ================> DF-SCS-MP2 Energies <==================
	-----------------------------------------------------------
	 SCS Same-Spin Scale       =       0.3333333333333333 [-]
	 SCS Opposite-Spin Scale   =       1.2000000000000000 [-]
	 SCS Same-Spin Energy      =      -0.2055210022108610 [Eh]
	 SCS Opposite-Spin Energy  =      -1.9981666025055138 [Eh]
	 SCS Correlation Energy    =      -2.2036876047163747 [Eh]
	 SCS Total Energy          =   -1207.5044067370320136 [Eh]
	-----------------------------------------------------------

  Dipole Moment: [D]
     X:    -3.0150      Y:    -0.0001      Z:     0.2283     Total:     3.0237

*** Psi4 exiting successfully. Buy a developer a beer!
