                               Psi4 1.3.2 release

  ==> Input File <==

--------------------------------------------------------------------------
#psi4
#
memory 32 gb

molecule  {
-4 1
  P       -1.6778080    -0.0000010     0.0005490
  P        1.6778000     0.0000020     0.0005400
  O        0.0317202    -0.0001300     0.2144544
  O       -2.3613630    -0.0003970     1.4096540
  O       -2.0007970    -1.2973530    -0.8037440
  O        2.3612970    -0.0008400     1.4096690
  O        2.0008330     1.2980780    -0.8025670
  O       -2.0007100     1.2978530    -0.8029660
  O        2.0007590    -1.2971630    -0.8040650
units angstrom
no_reorient  #important for SAPT in psi4, default
symmetry c1  #important for SAPT in psi4, default
}

set PROPERTIES_ORIGIN ["COM"]
properties('MP2/aug-cc-pvtz', properties = ['dipole'])
--------------------------------------------------------------------------

    Molecular point group: c1
  Charge       = -4
  Multiplicity = 1
  Basis Set: AUG-CC-PVTZ
    Blend: AUG-CC-PVTZ
  Basis Set: (AUG-CC-PVTZ AUX)
    Blend: AUG-CC-PVTZ-JKFIT

    Orbital Energies [Eh]
    ---------------------

    Doubly Occupied:

       1A    -79.448879     2A    -79.436017     3A    -19.912865
       4A    -19.887822     5A    -19.878768     6A    -19.875938
       7A    -19.875920     8A    -19.867430     9A    -19.867411
      10A     -6.958852    11A     -6.946795    12A     -4.858089
      13A     -4.856487    14A     -4.856367    15A     -4.846103
      16A     -4.844524    17A     -4.844411    18A     -0.730119
      19A     -0.689355    20A     -0.638072    21A     -0.612788
      22A     -0.607910    23A     -0.604798    24A     -0.600190
      25A     -0.167551    26A     -0.045473    27A      0.000253
      28A      0.028582    29A      0.031329    30A      0.057146
      31A      0.059344    32A      0.106569    33A      0.112818
      34A      0.119673    35A      0.147974    36A      0.150724
      37A      0.156740    38A      0.158270    39A      0.163373
      40A      0.187584    41A      0.193259    42A      0.210064
      43A      0.214277    44A      0.216931    45A      0.224593

  @DF-RHF Final Energy: -1205.32391139424863

   => Energetics <=

    Nuclear Repulsion Energy =            669.2618555567860312
    One-Electron Energy =               -3062.7326720623168512
    Two-Electron Energy =                1188.1469051112821944
    Total Energy =                      -1205.3239113942486256
  Basis Set: (AUG-CC-PVTZ AUX)
    Blend: AUG-CC-PVTZ-RI
    Molecular point group: c1

    Geometry (in Angstrom), charge = -4, multiplicity = 1:

       Center              X                  Y                   Z               Mass
    ------------   -----------------  -----------------  -----------------  -----------------
         P           -1.680725672265    -0.000005592725     0.016869847447    30.973761998420
         P            1.674882327735    -0.000002592725     0.016860847447    30.973761998420
         O            0.028802527735    -0.000134592725     0.230775247447    15.994914619570
         O           -2.364280672265    -0.000401592725     1.425974847447    15.994914619570
         O           -2.003714672265    -1.297357592725    -0.787423152553    15.994914619570
         O            2.358379327735    -0.000844592725     1.425989847447    15.994914619570
         O            1.997915327735     1.298073407275    -0.786246152553    15.994914619570
         O           -2.003627672265     1.297848407275    -0.786645152553    15.994914619570
         O            1.997841327735    -1.297167592725    -0.787744152553    15.994914619570

  Basis Set: AUG-CC-PVTZ
    Blend: AUG-CC-PVTZ
  Basis Set: (AUG-CC-PVTZ AUX)
    Blend: AUG-CC-PVTZ-JKFIT
	 Reference Energy          =   -1205.3239113942486256 [Eh]
	 Singles Energy            =      -0.0000000000000000 [Eh]
	 Same-Spin Energy          =      -0.6155483396940877 [Eh]
	 Opposite-Spin Energy      =      -1.6621038372391728 [Eh]
	 Correlation Energy        =      -2.2776521769332607 [Eh]
	 Total Energy              =   -1207.6015635711819414 [Eh]

	 ================> DF-SCS-MP2 Energies <==================
	-----------------------------------------------------------
	 SCS Same-Spin Scale       =       0.3333333333333333 [-]
	 SCS Opposite-Spin Scale   =       1.2000000000000000 [-]
	 SCS Same-Spin Energy      =      -0.2051827798980292 [Eh]
	 SCS Opposite-Spin Energy  =      -1.9945246046870073 [Eh]
	 SCS Correlation Energy    =      -2.1997073845850368 [Eh]
	 SCS Total Energy          =   -1207.5236187788336792 [Eh]
	-----------------------------------------------------------

  Dipole Moment: [D]
     X:    -0.5573      Y:    -0.0002      Z:     0.5122     Total:     0.7569

*** Psi4 exiting successfully. Buy a developer a beer!
