                               Psi4 1.3.2 release

  ==> Input File <==

--------------------------------------------------------------------------
#psi4
#
memory 32 gb

molecule  {
-4 1
  P       -1.6843838    -0.0000147     0.0298903
  P        1.6778000     0.0000020     0.0005400
  O       -0.0000040    -0.0001820     0.3919770
  O       -2.3613630    -0.0003970     1.4096540
  O       -2.0007970    -1.2973530    -0.8037440
  O        2.3612970    -0.0008400     1.4096690
  O        2.0008330     1.2980780    -0.8025670
  O       -2.0007100     1.2978530    -0.8029660
  O        2.0007590    -1.2971630    -0.8040650
units angstrom
no_reorient  #important for SAPT in psi4, default
symmetry c1  #important for SAPT in psi4, default
}

set PROPERTIES_ORIGIN ["COM"]
properties('MP2/aug-cc-pvtz', properties = ['dipole'])
--------------------------------------------------------------------------

    Molecular point group: c1
  Charge       = -4
  Multiplicity = 1
  Basis Set: AUG-CC-PVTZ
    Blend: AUG-CC-PVTZ
  Basis Set: (AUG-CC-PVTZ AUX)
    Blend: AUG-CC-PVTZ-JKFIT

    Orbital Energies [Eh]
    ---------------------

    Doubly Occupied:

       1A    -79.442215     2A    -79.442190     3A    -19.914956
       4A    -19.882896     5A    -19.877490     6A    -19.875788
       7A    -19.875770     8A    -19.873755     9A    -19.873736
      10A     -6.952761    11A     -6.952654    12A     -4.851835
      13A     -4.851741    14A     -4.850532    15A     -4.850319
      16A     -4.850248    17A     -4.850242    18A     -0.723188
      19A     -0.690039    20A     -0.634548    21A     -0.613586
      22A     -0.607093    23A     -0.606932    24A     -0.599798
      25A     -0.153160    26A     -0.048400    27A      0.001946
      28A      0.033194    29A      0.034663    30A      0.057157
      31A      0.058706    32A      0.099627    33A      0.118378
      34A      0.121719    35A      0.150863    36A      0.151374
      37A      0.153772    38A      0.156235    39A      0.165939
      40A      0.187789    41A      0.193429    42A      0.208957
      43A      0.210494    44A      0.219400    45A      0.220378

  @DF-RHF Final Energy: -1205.32182674116575

   => Energetics <=

    Nuclear Repulsion Energy =            667.0382536446038557
    One-Electron Energy =               -3058.3164544877363369
    Two-Electron Energy =                1185.9563741019665031
    Total Energy =                      -1205.3218267411657507
  Basis Set: (AUG-CC-PVTZ AUX)
    Blend: AUG-CC-PVTZ-RI
    Molecular point group: c1

    Geometry (in Angstrom), charge = -4, multiplicity = 1:

       Center              X                  Y                   Z               Mass
    ------------   -----------------  -----------------  -----------------  -----------------
         P           -1.683212602976    -0.000012070241     0.024658460682    30.973761998420
         P            1.678971197024     0.000004629759    -0.004691839318    30.973761998420
         O            0.001167197024    -0.000179370241     0.386745160682    15.994914619570
         O           -2.360191802976    -0.000394370241     1.404422160682    15.994914619570
         O           -1.999625802976    -1.297350370241    -0.808975839318    15.994914619570
         O            2.362468197024    -0.000837370241     1.404437160682    15.994914619570
         O            2.002004197024     1.298080629759    -0.807798839318    15.994914619570
         O           -1.999538802976     1.297855629759    -0.808197839318    15.994914619570
         O            2.001930197024    -1.297160370241    -0.809296839318    15.994914619570

  Basis Set: AUG-CC-PVTZ
    Blend: AUG-CC-PVTZ
  Basis Set: (AUG-CC-PVTZ AUX)
    Blend: AUG-CC-PVTZ-JKFIT
	 Reference Energy          =   -1205.3218267411657507 [Eh]
	 Singles Energy            =      -0.0000000000000000 [Eh]
	 Same-Spin Energy          =      -0.6160877624867200 [Eh]
	 Opposite-Spin Energy      =      -1.6640215257166724 [Eh]
	 Correlation Energy        =      -2.2801092882033922 [Eh]
	 Total Energy              =   -1207.6019360293691989 [Eh]

	 ================> DF-SCS-MP2 Energies <==================
	-----------------------------------------------------------
	 SCS Same-Spin Scale       =       0.3333333333333333 [-]
	 SCS Opposite-Spin Scale   =       1.2000000000000000 [-]
	 SCS Same-Spin Energy      =      -0.2053625874955733 [Eh]
	 SCS Opposite-Spin Energy  =      -1.9968258308600069 [Eh]
	 SCS Correlation Energy    =      -2.2021884183555800 [Eh]
	 SCS Total Energy          =   -1207.5240151595212410 [Eh]
	-----------------------------------------------------------

  Dipole Moment: [D]
     X:    -0.0889      Y:    -0.0003      Z:     0.7281     Total:     0.7336

*** Psi4 exiting successfully. Buy a developer a beer!
