                               Psi4 1.3.2 release

  ==> Input File <==

--------------------------------------------------------------------------
#psi4
#
memory 32 gb

molecule  {
-4 1
  P       -1.6778080    -0.0000010     0.0005490
  P        1.6778000     0.0000020     0.0005400
  O        0.0126346    -0.0001649     0.3331840
  O       -2.3613630    -0.0003970     1.4096540
  O       -2.0007970    -1.2973530    -0.8037440
  O        2.3612970    -0.0008400     1.4096690
  O        2.0008330     1.2980780    -0.8025670
  O       -2.0007100     1.2978530    -0.8029660
  O        2.0007590    -1.2971630    -0.8040650
units angstrom
no_reorient  #important for SAPT in psi4, default
symmetry c1  #important for SAPT in psi4, default
}

set PROPERTIES_ORIGIN ["COM"]
properties('MP2/aug-cc-pvtz', properties = ['dipole'])
--------------------------------------------------------------------------

    Molecular point group: c1
  Charge       = -4
  Multiplicity = 1
  Basis Set: AUG-CC-PVTZ
    Blend: AUG-CC-PVTZ
  Basis Set: (AUG-CC-PVTZ AUX)
    Blend: AUG-CC-PVTZ-JKFIT

    Orbital Energies [Eh]
    ---------------------

    Doubly Occupied:

       1A    -79.444833     2A    -79.439982     3A    -19.914723
       4A    -19.881272     5A    -19.877680     6A    -19.876256
       7A    -19.876238     8A    -19.873079     9A    -19.873061
      10A     -6.955112    11A     -6.950551    12A     -4.854250
      13A     -4.852767    14A     -4.852681    15A     -4.849710
      16A     -4.848248    17A     -4.848162    18A     -0.725544
      19A     -0.688982    20A     -0.635733    21A     -0.609459
      22A     -0.607839    23A     -0.606302    24A     -0.604857
      25A     -0.158641    26A     -0.047210    27A      0.001366
      28A      0.031879    29A      0.033029    30A      0.057861
      31A      0.058549    32A      0.100982    33A      0.115923
      34A      0.122793    35A      0.150089    36A      0.151315
      37A      0.154217    38A      0.156725    39A      0.164607
      40A      0.188937    41A      0.191966    42A      0.209630
      43A      0.210423    44A      0.218158    45A      0.221301

  @DF-RHF Final Energy: -1205.32443542428541

   => Energetics <=

    Nuclear Repulsion Energy =            667.9387747264278232
    One-Electron Energy =               -3060.0995775279325244
    Two-Electron Energy =                1186.8363673772194034
    Total Energy =                      -1205.3244354242854115
  Basis Set: (AUG-CC-PVTZ AUX)
    Blend: AUG-CC-PVTZ-RI
    Molecular point group: c1

    Geometry (in Angstrom), charge = -4, multiplicity = 1:

       Center              X                  Y                   Z               Mass
    ------------   -----------------  -----------------  -----------------  -----------------
         P           -1.678970343870    -0.000002382925     0.005950125868    30.973761998420
         P            1.676637656130     0.000000617075     0.005941125868    30.973761998420
         O            0.011472256130    -0.000166282925     0.338585125868    15.994914619570
         O           -2.362525343870    -0.000398382925     1.415055125868    15.994914619570
         O           -2.001959343870    -1.297354382925    -0.798342874132    15.994914619570
         O            2.360134656130    -0.000841382925     1.415070125868    15.994914619570
         O            1.999670656130     1.298076617075    -0.797165874132    15.994914619570
         O           -2.001872343870     1.297851617075    -0.797564874132    15.994914619570
         O            1.999596656130    -1.297164382925    -0.798663874132    15.994914619570

  Basis Set: AUG-CC-PVTZ
    Blend: AUG-CC-PVTZ
  Basis Set: (AUG-CC-PVTZ AUX)
    Blend: AUG-CC-PVTZ-JKFIT
	 Reference Energy          =   -1205.3244354242854115 [Eh]
	 Singles Energy            =      -0.0000000000000000 [Eh]
	 Same-Spin Energy          =      -0.6158201746013160 [Eh]
	 Opposite-Spin Energy      =      -1.6631944142928945 [Eh]
	 Correlation Energy        =      -2.2790145888942104 [Eh]
	 Total Energy              =   -1207.6034500131795539 [Eh]

	 ================> DF-SCS-MP2 Energies <==================
	-----------------------------------------------------------
	 SCS Same-Spin Scale       =       0.3333333333333333 [-]
	 SCS Opposite-Spin Scale   =       1.2000000000000000 [-]
	 SCS Same-Spin Energy      =      -0.2052733915337720 [Eh]
	 SCS Opposite-Spin Energy  =      -1.9958332971514734 [Eh]
	 SCS Correlation Energy    =      -2.2011066886852455 [Eh]
	 SCS Total Energy          =   -1207.5255421129706974 [Eh]
	-----------------------------------------------------------

  Dipole Moment: [D]
     X:    -0.2103      Y:    -0.0001      Z:     0.3681     Total:     0.4239

*** Psi4 exiting successfully. Buy a developer a beer!
