                               Psi4 1.3.2 release

  ==> Input File <==

--------------------------------------------------------------------------
#psi4
#
memory 32 gb

molecule  {
-4 1
  P       -1.6778080    -0.0000010     0.0005490
  P        1.6778000     0.0000020     0.0005400
  O       -0.0313957    -0.0002156     0.5080612
  O       -2.3613630    -0.0003970     1.4096540
  O       -2.0007970    -1.2973530    -0.8037440
  O        2.3612970    -0.0008400     1.4096690
  O        2.0008330     1.2980780    -0.8025670
  O       -2.0007100     1.2978530    -0.8029660
  O        2.0007590    -1.2971630    -0.8040650
units angstrom
no_reorient  #important for SAPT in psi4, default
symmetry c1  #important for SAPT in psi4, default
}

set PROPERTIES_ORIGIN ["COM"]
properties('MP2/aug-cc-pvtz', properties = ['dipole'])
--------------------------------------------------------------------------

    Molecular point group: c1
  Charge       = -4
  Multiplicity = 1
  Basis Set: AUG-CC-PVTZ
    Blend: AUG-CC-PVTZ
  Basis Set: (AUG-CC-PVTZ AUX)
    Blend: AUG-CC-PVTZ-JKFIT

    Orbital Energies [Eh]
    ---------------------

    Doubly Occupied:

       1A    -79.447214     2A    -79.436689     3A    -19.918019
       4A    -19.882957     5A    -19.882939     6A    -19.878297
       7A    -19.876086     8A    -19.876068     9A    -19.869836
      10A     -6.957640    11A     -6.947687    12A     -4.856577
      13A     -4.855195    14A     -4.855162    15A     -4.846647
      16A     -4.845358    17A     -4.845317    18A     -0.717961
      19A     -0.689858    20A     -0.630969    21A     -0.613266
      22A     -0.609031    23A     -0.606963    24A     -0.601614
      25A     -0.140147    26A     -0.052084    27A      0.004047
      28A      0.035868    29A      0.038290    30A      0.056684
      31A      0.059335    32A      0.092333    33A      0.121526
      34A      0.127970    35A      0.147033    36A      0.148573
      37A      0.154782    38A      0.156531    39A      0.169327
      40A      0.188104    41A      0.192608    42A      0.206176
      43A      0.210642    44A      0.215147    45A      0.222024

  @DF-RHF Final Energy: -1205.31521573687746

   => Energetics <=

    Nuclear Repulsion Energy =            665.3560940866891542
    One-Electron Energy =               -3054.9574600706841920
    Two-Electron Energy =                1184.2861502471175754
    Total Energy =                      -1205.3152157368774624
  Basis Set: (AUG-CC-PVTZ AUX)
    Blend: AUG-CC-PVTZ-RI
    Molecular point group: c1

    Geometry (in Angstrom), charge = -4, multiplicity = 1:

       Center              X                  Y                   Z               Mass
    ------------   -----------------  -----------------  -----------------  -----------------
         P           -1.674920817745     0.000002280022    -0.010133566274    30.973761998420
         P            1.680687182255     0.000005280022    -0.010142566274    30.973761998420
         O           -0.028508517745    -0.000212319978     0.497378633726    15.994914619570
         O           -2.358475817745    -0.000393719978     1.398971433726    15.994914619570
         O           -1.997909817745    -1.297349719978    -0.814426566274    15.994914619570
         O            2.364184182255    -0.000836719978     1.398986433726    15.994914619570
         O            2.003720182255     1.298081280022    -0.813249566274    15.994914619570
         O           -1.997822817745     1.297856280022    -0.813648566274    15.994914619570
         O            2.003646182255    -1.297159719978    -0.814747566274    15.994914619570

  Basis Set: AUG-CC-PVTZ
    Blend: AUG-CC-PVTZ
  Basis Set: (AUG-CC-PVTZ AUX)
    Blend: AUG-CC-PVTZ-JKFIT
	 Reference Energy          =   -1205.3152157368774624 [Eh]
	 Singles Energy            =      -0.0000000000000000 [Eh]
	 Same-Spin Energy          =      -0.6170047904289322 [Eh]
	 Opposite-Spin Energy      =      -1.6666913010208679 [Eh]
	 Correlation Energy        =      -2.2836960914498001 [Eh]
	 Total Energy              =   -1207.5989118283273456 [Eh]

	 ================> DF-SCS-MP2 Energies <==================
	-----------------------------------------------------------
	 SCS Same-Spin Scale       =       0.3333333333333333 [-]
	 SCS Opposite-Spin Scale   =       1.2000000000000000 [-]
	 SCS Same-Spin Energy      =      -0.2056682634763107 [Eh]
	 SCS Opposite-Spin Energy  =      -2.0000295612250416 [Eh]
	 SCS Correlation Energy    =      -2.2056978247013523 [Eh]
	 SCS Total Energy          =   -1207.5209135615787091 [Eh]
	-----------------------------------------------------------

  Dipole Moment: [D]
     X:     0.4582      Y:    -0.0001      Z:     0.1321     Total:     0.4769

*** Psi4 exiting successfully. Buy a developer a beer!
