                               Psi4 1.3.2 release

  ==> Input File <==

--------------------------------------------------------------------------
#psi4
#
memory 32 gb

molecule  {
-4 1
  P       -1.6778080    -0.0000010     0.0005490
  P        1.6778000     0.0000020     0.0005400
  O       -0.0146867    -0.0001989     0.4502931
  O       -2.3613630    -0.0003970     1.4096540
  O       -2.0007970    -1.2973530    -0.8037440
  O        2.3612970    -0.0008400     1.4096690
  O        2.0008330     1.2980780    -0.8025670
  O       -2.0007100     1.2978530    -0.8029660
  O        2.0007590    -1.2971630    -0.8040650
units angstrom
no_reorient  #important for SAPT in psi4, default
symmetry c1  #important for SAPT in psi4, default
}

set PROPERTIES_ORIGIN ["COM"]
properties('MP2/aug-cc-pvtz', properties = ['dipole'])
--------------------------------------------------------------------------

    Molecular point group: c1
  Charge       = -4
  Multiplicity = 1
  Basis Set: AUG-CC-PVTZ
    Blend: AUG-CC-PVTZ
  Basis Set: (AUG-CC-PVTZ AUX)
    Blend: AUG-CC-PVTZ-JKFIT

    Orbital Energies [Eh]
    ---------------------

    Doubly Occupied:

       1A    -79.444719     2A    -79.439537     3A    -19.916925
       4A    -19.879549     5A    -19.879531     6A    -19.877845
       7A    -19.876163     8A    -19.876145     9A    -19.873809
      10A     -6.955164    11A     -6.950274    12A     -4.854165
      13A     -4.852783    14A     -4.852726    15A     -4.849289
      16A     -4.847946    17A     -4.847887    18A     -0.720418
      19A     -0.689349    20A     -0.632703    21A     -0.610401
      22A     -0.608104    23A     -0.607235    24A     -0.604609
      25A     -0.146752    26A     -0.050216    27A      0.002987
      28A      0.034997    29A      0.036149    30A      0.057376
      31A      0.058797    32A      0.095218    33A      0.119535
      34A      0.126151    35A      0.149008    36A      0.150195
      37A      0.153523    38A      0.156320    39A      0.167577
      40A      0.189769    41A      0.191326    42A      0.207218
      43A      0.209778    44A      0.217217    45A      0.220643

  @DF-RHF Final Energy: -1205.31976299307348

   => Energetics <=

    Nuclear Repulsion Energy =            666.2800388166832590
    One-Electron Energy =               -3056.7986821752783726
    Two-Electron Energy =                1185.1988803655215179
    Total Energy =                      -1205.3197629930734820
  Basis Set: (AUG-CC-PVTZ AUX)
    Blend: AUG-CC-PVTZ-RI
    Molecular point group: c1

    Geometry (in Angstrom), charge = -4, multiplicity = 1:

       Center              X                  Y                   Z               Mass
    ------------   -----------------  -----------------  -----------------  -----------------
         P           -1.676457567030     0.000000744101    -0.004820556139    30.973761998420
         P            1.679150432970     0.000003744101    -0.004829556139    30.973761998420
         O           -0.013336267030    -0.000197155899     0.444923543861    15.994914619570
         O           -2.360012567030    -0.000395255899     1.404284443861    15.994914619570
         O           -1.999446567030    -1.297351255899    -0.809113556139    15.994914619570
         O            2.362647432970    -0.000838255899     1.404299443861    15.994914619570
         O            2.002183432970     1.298079744101    -0.807936556139    15.994914619570
         O           -1.999359567030     1.297854744101    -0.808335556139    15.994914619570
         O            2.002109432970    -1.297161255899    -0.809434556139    15.994914619570

  Basis Set: AUG-CC-PVTZ
    Blend: AUG-CC-PVTZ
  Basis Set: (AUG-CC-PVTZ AUX)
    Blend: AUG-CC-PVTZ-JKFIT
	 Reference Energy          =   -1205.3197629930734820 [Eh]
	 Singles Energy            =      -0.0000000000000000 [Eh]
	 Same-Spin Energy          =      -0.6165024835245322 [Eh]
	 Opposite-Spin Energy      =      -1.6652792100068150 [Eh]
	 Correlation Energy        =      -2.2817816935313471 [Eh]
	 Total Energy              =   -1207.6015446866049388 [Eh]

	 ================> DF-SCS-MP2 Energies <==================
	-----------------------------------------------------------
	 SCS Same-Spin Scale       =       0.3333333333333333 [-]
	 SCS Opposite-Spin Scale   =       1.2000000000000000 [-]
	 SCS Same-Spin Energy      =      -0.2055008278415107 [Eh]
	 SCS Opposite-Spin Energy  =      -1.9983350520081780 [Eh]
	 SCS Correlation Energy    =      -2.2038358798496889 [Eh]
	 SCS Total Energy          =   -1207.5235988729232304 [Eh]
	-----------------------------------------------------------

  Dipole Moment: [D]
     X:     0.2251      Y:    -0.0001      Z:     0.2133     Total:     0.3101

*** Psi4 exiting successfully. Buy a developer a beer!
