                               Psi4 1.3.2 release

  ==> Input File <==

--------------------------------------------------------------------------
#psi4
#
memory 32 gb

molecule  {
-4 1
  P       -1.6778080    -0.0000010     0.0005490
  P        1.6778000     0.0000020     0.0005400
  O        0.0065718    -0.0001735     0.3626357
  O       -2.3613630    -0.0003970     1.4096540
  O       -2.0007970    -1.2973530    -0.8037440
  O        2.3612970    -0.0008400     1.4096690
  O        2.0008330     1.2980780    -0.8025670
  O       -2.0007100     1.2978530    -0.8029660
  O        2.0007590    -1.2971630    -0.8040650
units angstrom
no_reorient  #important for SAPT in psi4, default
symmetry c1  #important for SAPT in psi4, default
}

set PROPERTIES_ORIGIN ["COM"]
properties('MP2/aug-cc-pvtz', properties = ['dipole'])
--------------------------------------------------------------------------

    Molecular point group: c1
  Charge       = -4
  Multiplicity = 1
  Basis Set: AUG-CC-PVTZ
    Blend: AUG-CC-PVTZ
  Basis Set: (AUG-CC-PVTZ AUX)
    Blend: AUG-CC-PVTZ-JKFIT

    Orbital Energies [Eh]
    ---------------------

    Doubly Occupied:

       1A    -79.443594     2A    -79.441116     3A    -19.915256
       4A    -19.879480     5A    -19.877616     6A    -19.876255
       7A    -19.876237     8A    -19.874637     9A    -19.874618
      10A     -6.953976    11A     -6.951644    12A     -4.853084
      13A     -4.851636    14A     -4.851557    15A     -4.850761
      16A     -4.849326    17A     -4.849247    18A     -0.724275
      19A     -0.688992    20A     -0.635043    21A     -0.608396
      22A     -0.607777    23A     -0.606727    24A     -0.606122
      25A     -0.155895    26A     -0.047852    27A      0.001713
      28A      0.032896    29A      0.033522    30A      0.058082
      31A      0.058291    32A      0.099549    33A      0.116777
      34A      0.123604    35A      0.150593    36A      0.151059
      37A      0.153582    38A      0.156419    39A      0.165252
      40A      0.189457    41A      0.191539    42A      0.209504
      43A      0.209562    44A      0.218620    45A      0.220414

  @DF-RHF Final Energy: -1205.32379103514882

   => Energetics <=

    Nuclear Repulsion Energy =            667.5517225538491175
    One-Electron Energy =               -3059.3296482214714160
    Two-Electron Energy =                1186.4541346324733695
    Total Energy =                      -1205.3237910351488154
  Basis Set: (AUG-CC-PVTZ AUX)
    Blend: AUG-CC-PVTZ-RI
    Molecular point group: c1

    Geometry (in Angstrom), charge = -4, multiplicity = 1:

       Center              X                  Y                   Z               Mass
    ------------   -----------------  -----------------  -----------------  -----------------
         P           -1.678412739970    -0.000001591971     0.003241413264    30.973761998420
         P            1.677195260030     0.000001408029     0.003232413264    30.973761998420
         O            0.005967060030    -0.000174091971     0.365328113264    15.994914619570
         O           -2.361967739970    -0.000397591971     1.412346413264    15.994914619570
         O           -2.001401739970    -1.297353591971    -0.801051586736    15.994914619570
         O            2.360692260030    -0.000840591971     1.412361413264    15.994914619570
         O            2.000228260030     1.298077408029    -0.799874586736    15.994914619570
         O           -2.001314739970     1.297852408029    -0.800273586736    15.994914619570
         O            2.000154260030    -1.297163591971    -0.801372586736    15.994914619570

  Basis Set: AUG-CC-PVTZ
    Blend: AUG-CC-PVTZ
  Basis Set: (AUG-CC-PVTZ AUX)
    Blend: AUG-CC-PVTZ-JKFIT
	 Reference Energy          =   -1205.3237910351488154 [Eh]
	 Singles Energy            =      -0.0000000000000000 [Eh]
	 Same-Spin Energy          =      -0.6159516374436682 [Eh]
	 Opposite-Spin Energy      =      -1.6636230073465321 [Eh]
	 Correlation Energy        =      -2.2795746447902001 [Eh]
	 Total Energy              =   -1207.6033656799390883 [Eh]

	 ================> DF-SCS-MP2 Energies <==================
	-----------------------------------------------------------
	 SCS Same-Spin Scale       =       0.3333333333333333 [-]
	 SCS Opposite-Spin Scale   =       1.2000000000000000 [-]
	 SCS Same-Spin Energy      =      -0.2053172124812227 [Eh]
	 SCS Opposite-Spin Energy  =      -1.9963476088158385 [Eh]
	 SCS Correlation Energy    =      -2.2016648212970611 [Eh]
	 SCS Total Energy          =   -1207.5254558564458875 [Eh]
	-----------------------------------------------------------

  Dipole Moment: [D]
     X:    -0.1075      Y:    -0.0001      Z:     0.3304     Total:     0.3474

*** Psi4 exiting successfully. Buy a developer a beer!
