                               Psi4 1.3.2 release

  ==> Input File <==

--------------------------------------------------------------------------
#psi4
#
memory 32 gb

molecule  {
-4 1
  P       -1.7010256    -0.0000560     0.1185402
  P        1.6778000     0.0000020     0.0005400
  O       -0.0000040    -0.0001820     0.3919770
  O       -2.3613630    -0.0003970     1.4096540
  O       -2.0007970    -1.2973530    -0.8037440
  O        2.3612970    -0.0008400     1.4096690
  O        2.0008330     1.2980780    -0.8025670
  O       -2.0007100     1.2978530    -0.8029660
  O        2.0007590    -1.2971630    -0.8040650
units angstrom
no_reorient  #important for SAPT in psi4, default
symmetry c1  #important for SAPT in psi4, default
}

set PROPERTIES_ORIGIN ["COM"]
properties('MP2/aug-cc-pvtz', properties = ['dipole'])
--------------------------------------------------------------------------

    Molecular point group: c1
  Charge       = -4
  Multiplicity = 1
  Basis Set: AUG-CC-PVTZ
    Blend: AUG-CC-PVTZ
  Basis Set: (AUG-CC-PVTZ AUX)
    Blend: AUG-CC-PVTZ-JKFIT

    Orbital Energies [Eh]
    ---------------------

    Doubly Occupied:

       1A    -79.442393     2A    -79.441167     3A    -19.913504
       4A    -19.899131     5A    -19.877422     6A    -19.874829
       7A    -19.874810     8A    -19.867112     9A    -19.867092
      10A     -6.953271    11A     -6.952684    12A     -4.852295
      13A     -4.851806    14A     -4.851332    15A     -4.850343
      16A     -4.850273    17A     -4.850255    18A     -0.735903
      19A     -0.702334    20A     -0.644583    21A     -0.607697
      22A     -0.605997    23A     -0.605712    24A     -0.576887
      25A     -0.154643    26A     -0.051505    27A     -0.003277
      28A      0.029548    29A      0.032783    30A      0.054367
      31A      0.055603    32A      0.097977    33A      0.113069
      34A      0.116228    35A      0.150786    36A      0.151331
      37A      0.155757    38A      0.157442    39A      0.170634
      40A      0.187238    41A      0.198680    42A      0.210191
      43A      0.216891    44A      0.220435    45A      0.229208

  @DF-RHF Final Energy: -1205.30433202802578

   => Energetics <=

    Nuclear Repulsion Energy =            666.8155782199526129
    One-Electron Energy =               -3057.8196426864460591
    Two-Electron Energy =                1185.6997324384674357
    Total Energy =                      -1205.3043320280257831
  Basis Set: (AUG-CC-PVTZ AUX)
    Blend: AUG-CC-PVTZ-RI
    Molecular point group: c1

    Geometry (in Angstrom), charge = -4, multiplicity = 1:

       Center              X                  Y                   Z               Mass
    ------------   -----------------  -----------------  -----------------  -----------------
         P           -1.696890493811    -0.000046014700     0.097519789066    30.973761998420
         P            1.681935106189     0.000011985300    -0.020480410934    30.973761998420
         O            0.004131106189    -0.000172014700     0.370956589066    15.994914619570
         O           -2.357227893811    -0.000387014700     1.388633589066    15.994914619570
         O           -1.996661893811    -1.297343014700    -0.824764410934    15.994914619570
         O            2.365432106189    -0.000830014700     1.388648589066    15.994914619570
         O            2.004968106189     1.298087985300    -0.823587410934    15.994914619570
         O           -1.996574893811     1.297862985300    -0.823986410934    15.994914619570
         O            2.004894106189    -1.297153014700    -0.825085410934    15.994914619570

  Basis Set: AUG-CC-PVTZ
    Blend: AUG-CC-PVTZ
  Basis Set: (AUG-CC-PVTZ AUX)
    Blend: AUG-CC-PVTZ-JKFIT
	 Reference Energy          =   -1205.3043320280257831 [Eh]
	 Singles Energy            =      -0.0000000000000000 [Eh]
	 Same-Spin Energy          =      -0.6163807646246224 [Eh]
	 Opposite-Spin Energy      =      -1.6646463577367387 [Eh]
	 Correlation Energy        =      -2.2810271223613610 [Eh]
	 Total Energy              =   -1207.5853591503871485 [Eh]

	 ================> DF-SCS-MP2 Energies <==================
	-----------------------------------------------------------
	 SCS Same-Spin Scale       =       0.3333333333333333 [-]
	 SCS Opposite-Spin Scale   =       1.2000000000000000 [-]
	 SCS Same-Spin Energy      =      -0.2054602548748741 [Eh]
	 SCS Opposite-Spin Energy  =      -1.9975756292840865 [Eh]
	 SCS Correlation Energy    =      -2.2030358841589606 [Eh]
	 SCS Total Energy          =   -1207.5073679121846908 [Eh]
	-----------------------------------------------------------

  Dipole Moment: [D]
     X:    -0.1874      Y:    -0.0009      Z:     1.9920     Total:     2.0008

*** Psi4 exiting successfully. Buy a developer a beer!
