                               Psi4 1.3.2 release

  ==> Input File <==

--------------------------------------------------------------------------
#psi4
#
memory 32 gb

molecule  {
-4 1
  P       -1.6778080    -0.0000010     0.0005490
  P        1.6778000     0.0000020     0.0005400
  O       -0.0000040    -0.0001820     0.3919770
  O       -2.2740718    -0.0003464     1.2297089
  O       -2.0007970    -1.2973530    -0.8037440
  O        2.3612970    -0.0008400     1.4096690
  O        2.0008330     1.2980780    -0.8025670
  O       -2.0007100     1.2978530    -0.8029660
  O        2.0007590    -1.2971630    -0.8040650
units angstrom
no_reorient  #important for SAPT in psi4, default
symmetry c1  #important for SAPT in psi4, default
}

set PROPERTIES_ORIGIN ["COM"]
properties('MP2/aug-cc-pvtz', properties = ['dipole'])
--------------------------------------------------------------------------

    Molecular point group: c1
  Charge       = -4
  Multiplicity = 1
  Basis Set: AUG-CC-PVTZ
    Blend: AUG-CC-PVTZ
  Basis Set: (AUG-CC-PVTZ AUX)
    Blend: AUG-CC-PVTZ-JKFIT

    Orbital Energies [Eh]
    ---------------------

    Doubly Occupied:

       1A    -79.434830     2A    -79.397708     3A    -19.902115
       4A    -19.873070     5A    -19.870217     6A    -19.870199
       7A    -19.861691     8A    -19.857936     9A    -19.857918
      10A     -6.945363    11A     -6.918491    12A     -4.844347
      13A     -4.843121    14A     -4.843024    15A     -4.818334
      16A     -4.815969    17A     -4.814577    18A     -0.751888
      19A     -0.698761    20A     -0.635655    21A     -0.614190
      22A     -0.602102    23A     -0.601540    24A     -0.591651
      25A     -0.140798    26A     -0.043230    27A     -0.000078
      28A      0.029930    29A      0.034757    30A      0.056135
      31A      0.057709    32A      0.098093    33A      0.117037
      34A      0.122216    35A      0.150226    36A      0.154401
      37A      0.158033    38A      0.159648    39A      0.171624
      40A      0.190974    41A      0.200328    42A      0.215836
      43A      0.219464    44A      0.224745    45A      0.230795

  @DF-RHF Final Energy: -1205.29379192563010

   => Energetics <=

    Nuclear Repulsion Energy =            676.6879065033031111
    One-Electron Energy =               -3078.2496894359146609
    Two-Electron Energy =                1196.2679910069814468
    Total Energy =                      -1205.2937919256301029
  Basis Set: (AUG-CC-PVTZ AUX)
    Blend: AUG-CC-PVTZ-RI
    Molecular point group: c1

    Geometry (in Angstrom), charge = -4, multiplicity = 1:

       Center              X                  Y                   Z               Mass
    ------------   -----------------  -----------------  -----------------  -----------------
         P           -1.685836244262    -0.000005463965     0.017092648042    30.973761998420
         P            1.669771755738    -0.000002463965     0.017083648042    30.973761998420
         O           -0.008032244262    -0.000186463965     0.408520648042    15.994914619570
         O           -2.282100044262    -0.000350863965     1.246252548042    15.994914619570
         O           -2.008825244262    -1.297357463965    -0.787200351958    15.994914619570
         O            2.353268755738    -0.000844463965     1.426212648042    15.994914619570
         O            1.992804755738     1.298073536035    -0.786023351958    15.994914619570
         O           -2.008738244262     1.297848536035    -0.786422351958    15.994914619570
         O            1.992730755738    -1.297167463965    -0.787521351958    15.994914619570

  Basis Set: AUG-CC-PVTZ
    Blend: AUG-CC-PVTZ
  Basis Set: (AUG-CC-PVTZ AUX)
    Blend: AUG-CC-PVTZ-JKFIT
	 Reference Energy          =   -1205.2937919256301029 [Eh]
	 Singles Energy            =      -0.0000000000000000 [Eh]
	 Same-Spin Energy          =      -0.6130582873269301 [Eh]
	 Opposite-Spin Energy      =      -1.6560614297979548 [Eh]
	 Correlation Energy        =      -2.2691197171248847 [Eh]
	 Total Energy              =   -1207.5629116427548979 [Eh]

	 ================> DF-SCS-MP2 Energies <==================
	-----------------------------------------------------------
	 SCS Same-Spin Scale       =       0.3333333333333333 [-]
	 SCS Opposite-Spin Scale   =       1.2000000000000000 [-]
	 SCS Same-Spin Energy      =      -0.2043527624423100 [Eh]
	 SCS Opposite-Spin Energy  =      -1.9872737157575457 [Eh]
	 SCS Correlation Energy    =      -2.1916264781998560 [Eh]
	 SCS Total Energy          =   -1207.4854184038299536 [Eh]
	-----------------------------------------------------------

  Dipole Moment: [D]
     X:    -0.8714      Y:    -0.0005      Z:     1.7110     Total:     1.9201

*** Psi4 exiting successfully. Buy a developer a beer!
