                               Psi4 1.4a3.dev225

  ==> Input File <==

--------------------------------------------------------------------------
#psi4
#
memory 32 gb

molecule  {
-4 1
  P        1.5557560     0.0007770    -0.0111170
  P       -1.5567580    -0.0020400    -0.0113580
  O        0.0005040    -0.0138450    -0.6805560
  O        2.3974980     0.5298310    -1.1968130
  O        1.8853550    -1.4649890     0.3558240
  O       -2.3799130    -0.6866630    -1.1280670
  O       -1.9249590     1.4878560     0.1848770
  O        1.5476928     0.9454574     1.1856457
  O       -1.5241940    -0.8076720     1.3055320
units angstrom
no_reorient  #important for SAPT in psi4, default
symmetry c1  #important for SAPT in psi4, default
}

set PROPERTIES_ORIGIN ["COM"]
properties('MP2/aug-cc-pvtz', properties = ['dipole'])
--------------------------------------------------------------------------

    Molecular point group: c1
  Charge       = -4
  Multiplicity = 1
  Basis Set: AUG-CC-PVTZ
    Blend: AUG-CC-PVTZ
  Basis Set: (AUG-CC-PVTZ AUX)
    Blend: AUG-CC-PVTZ-JKFIT

    Orbital Energies [Eh]
    ---------------------

    Doubly Occupied:

       1A    -79.415174     2A    -79.411464     3A    -19.903766
       4A    -19.866472     5A    -19.864712     6A    -19.860780
       7A    -19.858436     8A    -19.855018     9A    -19.853992
      10A     -6.928212    11A     -6.925164    12A     -4.827225
      13A     -4.825979    14A     -4.825787    15A     -4.824139
      16A     -4.822951    17A     -4.822743    18A     -0.725613
      19A     -0.682154    20A     -0.627563    21A     -0.601827
      22A     -0.600674    23A     -0.597542    24A     -0.595166
      25A     -0.135620    26A     -0.037539    27A      0.013555
      28A      0.036775    29A      0.040577    30A      0.067787
      31A      0.069329    32A      0.097778    33A      0.124819
      34A      0.140175    35A      0.158844    36A      0.159176
      37A      0.165418    38A      0.166463    39A      0.180569
      40A      0.203578    41A      0.205709    42A      0.216173
      43A      0.223756    44A      0.231610    45A      0.234386

  @DF-RHF Final Energy: -1205.32286881634718

   => Energetics <=

    Nuclear Repulsion Energy =            689.8157438920366076
    One-Electron Energy =               -3105.1587575248795474
    Two-Electron Energy =                1210.0201448164957583
    Total Energy =                      -1205.3228688163471816
  Basis Set: (AUG-CC-PVTZ AUX)
    Blend: AUG-CC-PVTZ-RI
    Molecular point group: c1

    Geometry (in Angstrom), charge = -4, multiplicity = 1:

       Center              X                  Y                   Z               Mass
    ------------   -----------------  -----------------  -----------------  -----------------
         P            1.555752003712     0.001923916642    -0.009546167120    30.973761998420
         P           -1.556761996288    -0.000893083358    -0.009787167120    30.973761998420
         O            0.000500003712    -0.012698083358    -0.678985167120    15.994914619570
         O            2.397494003712     0.530977916642    -1.195242167120    15.994914619570
         O            1.885351003712    -1.463842083358     0.357394832880    15.994914619570
         O           -2.379916996288    -0.685516083358    -1.126496167120    15.994914619570
         O           -1.924962996288     1.489002916642     0.186447832880    15.994914619570
         O            1.547688803712     0.946604316642     1.187216532880    15.994914619570
         O           -1.524197996288    -0.806525083358     1.307102832880    15.994914619570

  Basis Set: AUG-CC-PVTZ
    Blend: AUG-CC-PVTZ
  Basis Set: (AUG-CC-PVTZ AUX)
    Blend: AUG-CC-PVTZ-JKFIT
	 Reference Energy          =   -1205.3228688163471816 [Eh]
	 Singles Energy            =      -0.0000000000000000 [Eh]
	 Same-Spin Energy          =      -0.6146105530704966 [Eh]
	 Opposite-Spin Energy      =      -1.6595689620372274 [Eh]
	 Correlation Energy        =      -2.2741795151077238 [Eh]
	 Total Energy              =   -1207.5970483314549710 [Eh]

	 ================> DF-SCS-MP2 Energies <==================
	-----------------------------------------------------------
	 SCS Same-Spin Scale       =       0.3333333333333333 [-]
	 SCS Opposite-Spin Scale   =       1.2000000000000000 [-]
	 SCS Same-Spin Energy      =      -0.2048701843568322 [Eh]
	 SCS Opposite-Spin Energy  =      -1.9914827544446727 [Eh]
	 SCS Correlation Energy    =      -2.1963529388015051 [Eh]
	 SCS Total Energy          =   -1207.5192217551486920 [Eh]
	-----------------------------------------------------------

  Dipole Moment: [D]
     X:     0.0071      Y:     0.0576      Z:    -0.6272     Total:     0.6299

*** Psi4 exiting successfully. Buy a developer a beer!
