                               Psi4 1.3.2 release

  ==> Input File <==

--------------------------------------------------------------------------
#psi4
#
memory 32 gb

molecule  {
-4 1
  P       -1.6778080    -0.0000010     0.0005490
  P        1.6778000     0.0000020     0.0005400
  O       -0.0000040    -0.0001820     0.3919770
  O       -2.3613630    -0.0003970     1.4096540
  O       -2.0007970    -1.2973530    -0.8037440
  O        2.3612970    -0.0008400     1.4096690
  O        2.0008330     1.2980780    -0.8025670
  O       -2.0421015     1.4642197    -0.9059654
  O        2.0007590    -1.2971630    -0.8040650
units angstrom
no_reorient  #important for SAPT in psi4, default
symmetry c1  #important for SAPT in psi4, default
}

set PROPERTIES_ORIGIN ["COM"]
properties('MP2/aug-cc-pvtz', properties = ['dipole'])
--------------------------------------------------------------------------

    Molecular point group: c1
  Charge       = -4
  Multiplicity = 1
  Basis Set: AUG-CC-PVTZ
    Blend: AUG-CC-PVTZ
  Basis Set: (AUG-CC-PVTZ AUX)
    Blend: AUG-CC-PVTZ-JKFIT

    Orbital Energies [Eh]
    ---------------------

    Doubly Occupied:

       1A    -79.471025     2A    -79.447676     3A    -19.929761
       4A    -19.894497     5A    -19.893426     6A    -19.888099
       7A    -19.882431     8A    -19.880987     9A    -19.878935
      10A     -6.978487    11A     -6.958248    12A     -4.877472
      13A     -4.876119    14A     -4.875630    15A     -4.857393
      16A     -4.855849    17A     -4.855756    18A     -0.728426
      19A     -0.689707    20A     -0.642926    21A     -0.622316
      22A     -0.612106    23A     -0.610889    24A     -0.567198
      25A     -0.165206    26A     -0.055624    27A     -0.002460
      28A      0.027618    29A      0.029648    30A      0.054516
      31A      0.058937    32A      0.095377    33A      0.113765
      34A      0.117624    35A      0.147461    36A      0.148640
      37A      0.153283    38A      0.156929    39A      0.170899
      40A      0.181472    41A      0.193894    42A      0.200105
      43A      0.207603    44A      0.213669    45A      0.215494

  @DF-RHF Final Energy: -1205.29060789503728

   => Energetics <=

    Nuclear Repulsion Energy =            659.3102608986405357
    One-Electron Energy =               -3042.1783128417268927
    Two-Electron Energy =                1177.5774440480490739
    Total Energy =                      -1205.2906078950372830
  Basis Set: (AUG-CC-PVTZ AUX)
    Blend: AUG-CC-PVTZ-RI
    Molecular point group: c1

    Geometry (in Angstrom), charge = -4, multiplicity = 1:

       Center              X                  Y                   Z               Mass
    ------------   -----------------  -----------------  -----------------  -----------------
         P           -1.674001122641    -0.015301780184     0.010015848148    30.973761998420
         P            1.681606877359    -0.015298780184     0.010006848148    30.973761998420
         O            0.003802877359    -0.015482780184     0.401443848148    15.994914619570
         O           -2.357556122641    -0.015697780184     1.419120848148    15.994914619570
         O           -1.996990122641    -1.312653780184    -0.794277151852    15.994914619570
         O            2.365103877359    -0.016140780184     1.419135848148    15.994914619570
         O            2.004639877359     1.282777219816    -0.793100151852    15.994914619570
         O           -2.038294622641     1.448918919816    -0.896498551852    15.994914619570
         O            2.004565877359    -1.312463780184    -0.794598151852    15.994914619570

  Basis Set: AUG-CC-PVTZ
    Blend: AUG-CC-PVTZ
  Basis Set: (AUG-CC-PVTZ AUX)
    Blend: AUG-CC-PVTZ-JKFIT
	 Reference Energy          =   -1205.2906078950372830 [Eh]
	 Singles Energy            =      -0.0000000000000000 [Eh]
	 Same-Spin Energy          =      -0.6193546110808787 [Eh]
	 Opposite-Spin Energy      =      -1.6732184014885996 [Eh]
	 Correlation Energy        =      -2.2925730125694783 [Eh]
	 Total Energy              =   -1207.5831809076066747 [Eh]

	 ================> DF-SCS-MP2 Energies <==================
	-----------------------------------------------------------
	 SCS Same-Spin Scale       =       0.3333333333333333 [-]
	 SCS Opposite-Spin Scale   =       1.2000000000000000 [-]
	 SCS Same-Spin Energy      =      -0.2064515370269596 [Eh]
	 SCS Opposite-Spin Energy  =      -2.0078620817863193 [Eh]
	 SCS Correlation Energy    =      -2.2143136188132790 [Eh]
	 SCS Total Energy          =   -1207.5049215138506042 [Eh]
	-----------------------------------------------------------

  Dipole Moment: [D]
     X:     0.6313      Y:    -1.2819      Z:     1.0808     Total:     1.7916

*** Psi4 exiting successfully. Buy a developer a beer!
