                               Psi4 1.4a3.dev225

  ==> Input File <==

--------------------------------------------------------------------------
#psi4
#
memory 32 gb

molecule  {
-4 1
  P        1.5557560     0.0007770    -0.0111170
  P       -1.5567580    -0.0020400    -0.0113580
  O        0.0005040    -0.0138450    -0.6805560
  O        2.3974980     0.5298310    -1.1968130
  O        1.8853550    -1.4649890     0.3558240
  O       -2.3799130    -0.6866630    -1.1280670
  O       -1.9249590     1.4878560     0.1848770
  O        1.5478514     0.9268699     1.1620983
  O       -1.5241940    -0.8076720     1.3055320
units angstrom
no_reorient  #important for SAPT in psi4, default
symmetry c1  #important for SAPT in psi4, default
}

set PROPERTIES_ORIGIN ["COM"]
properties('MP2/aug-cc-pvtz', properties = ['dipole'])
--------------------------------------------------------------------------

    Molecular point group: c1
  Charge       = -4
  Multiplicity = 1
  Basis Set: AUG-CC-PVTZ
    Blend: AUG-CC-PVTZ
  Basis Set: (AUG-CC-PVTZ AUX)
    Blend: AUG-CC-PVTZ-JKFIT

    Orbital Energies [Eh]
    ---------------------

    Doubly Occupied:

       1A    -79.414480     2A    -79.405453     3A    -19.901384
       4A    -19.865823     5A    -19.862125     6A    -19.860544
       7A    -19.855746     8A    -19.854635     9A    -19.851932
      10A     -6.927511    11A     -6.920294    12A     -4.826509
      13A     -4.825287    14A     -4.825100    15A     -4.819181
      16A     -4.818202    17A     -4.817784    18A     -0.725915
      19A     -0.683995    20A     -0.627779    21A     -0.604546
      22A     -0.600755    23A     -0.596472    24A     -0.594659
      25A     -0.133733    26A     -0.036492    27A      0.013798
      28A      0.037151    29A      0.041137    30A      0.067467
      31A      0.069040    32A      0.097023    33A      0.125491
      34A      0.140937    35A      0.158270    36A      0.159099
      37A      0.165300    38A      0.166214    39A      0.181016
      40A      0.203379    41A      0.206583    42A      0.216506
      43A      0.224876    44A      0.232263    45A      0.235145

  @DF-RHF Final Energy: -1205.32274852709816

   => Energetics <=

    Nuclear Repulsion Energy =            691.1538939028283721
    One-Electron Energy =               -3107.9220058708478973
    Two-Electron Energy =                1211.4453634409214828
    Total Energy =                      -1205.3227485270981560
  Basis Set: (AUG-CC-PVTZ AUX)
    Blend: AUG-CC-PVTZ-RI
    Molecular point group: c1

    Geometry (in Angstrom), charge = -4, multiplicity = 1:

       Center              X                  Y                   Z               Mass
    ------------   -----------------  -----------------  -----------------  -----------------
         P            1.555737417056     0.003633434107    -0.007380480957    30.973761998420
         P           -1.556776582944     0.000816434107    -0.007621480957    30.973761998420
         O            0.000485417056    -0.010988565893    -0.676819480957    15.994914619570
         O            2.397479417056     0.532687434107    -1.193076480957    15.994914619570
         O            1.885336417056    -1.462132565893     0.359560519043    15.994914619570
         O           -2.379931582944    -0.683806565893    -1.124330480957    15.994914619570
         O           -1.924977582944     1.490712434107     0.188613519043    15.994914619570
         O            1.547832817056     0.929726334107     1.165834819043    15.994914619570
         O           -1.524212582944    -0.804815565893     1.309268519043    15.994914619570

  Basis Set: AUG-CC-PVTZ
    Blend: AUG-CC-PVTZ
  Basis Set: (AUG-CC-PVTZ AUX)
    Blend: AUG-CC-PVTZ-JKFIT
	 Reference Energy          =   -1205.3227485270981560 [Eh]
	 Singles Energy            =      -0.0000000000000000 [Eh]
	 Same-Spin Energy          =      -0.6141139610737838 [Eh]
	 Opposite-Spin Energy      =      -1.6582536489232060 [Eh]
	 Correlation Energy        =      -2.2723676099969898 [Eh]
	 Total Energy              =   -1207.5951161370951468 [Eh]

	 ================> DF-SCS-MP2 Energies <==================
	-----------------------------------------------------------
	 SCS Same-Spin Scale       =       0.3333333333333333 [-]
	 SCS Opposite-Spin Scale   =       1.2000000000000000 [-]
	 SCS Same-Spin Energy      =      -0.2047046536912613 [Eh]
	 SCS Opposite-Spin Energy  =      -1.9899043787078472 [Eh]
	 SCS Correlation Energy    =      -2.1946090323991085 [Eh]
	 SCS Total Energy          =   -1207.5173575594972135 [Eh]
	-----------------------------------------------------------

  Dipole Moment: [D]
     X:     0.0474      Y:     0.1934      Z:    -0.4615     Total:     0.5026

*** Psi4 exiting successfully. Buy a developer a beer!
