                               Psi4 1.3.2 release

  ==> Input File <==

--------------------------------------------------------------------------
#psi4
#
memory 32 gb

molecule  {
-4 1
  P       -1.6778080    -0.0000010     0.0005490
  P        1.6778000     0.0000020     0.0005400
  O       -0.0000040    -0.0001820     0.3919770
  O       -2.3613630    -0.0003970     1.4096540
  O       -2.0007970    -1.2973530    -0.8037440
  O        2.3612970    -0.0008400     1.4096690
  O        2.0008330     1.2980780    -0.8025670
  O       -2.0007100     1.2978530    -0.8029660
  O        2.0007590    -1.2971630    -0.8040650
units angstrom
no_reorient  #important for SAPT in psi4, default
symmetry c1  #important for SAPT in psi4, default
}

set PROPERTIES_ORIGIN ["COM"]
properties('MP2/aug-cc-pvtz', properties = ['dipole'])
--------------------------------------------------------------------------

    Molecular point group: c1
  Charge       = -4
  Multiplicity = 1
  Basis Set: AUG-CC-PVTZ
    Blend: AUG-CC-PVTZ
  Basis Set: (AUG-CC-PVTZ AUX)
    Blend: AUG-CC-PVTZ-JKFIT

    Orbital Energies [Eh]
    ---------------------

    Doubly Occupied:

       1A    -79.442289     2A    -79.442289     3A    -19.915805
       4A    -19.877636     5A    -19.877626     6A    -19.876239
       7A    -19.876236     8A    -19.876220     9A    -19.876217
      10A     -6.952786    11A     -6.952779    12A     -4.851868
      13A     -4.851851    14A     -4.850449    15A     -4.850447
      16A     -4.850375    17A     -4.850373    18A     -0.722987
      19A     -0.689055    20A     -0.634307    21A     -0.607938
      22A     -0.607333    23A     -0.607186    24A     -0.607072
      25A     -0.152983    26A     -0.048572    27A      0.002097
      28A      0.033959    29A      0.034021    30A      0.058008
      31A      0.058311    32A      0.098108    33A      0.117663
      34A      0.124431    35A      0.150565    36A      0.150910
      37A      0.153124    38A      0.156269    39A      0.165971
      40A      0.190038    41A      0.191038    42A      0.208654
      43A      0.209544    44A      0.218859    45A      0.219767

  @DF-RHF Final Energy: -1205.32280626086799

   => Energetics <=

    Nuclear Repulsion Energy =            667.1451918027144075
    One-Electron Energy =               -3058.5208403834390083
    Two-Electron Energy =                1186.0528423198563814
    Total Energy =                      -1205.3228062608679920
  Basis Set: (AUG-CC-PVTZ AUX)
    Blend: AUG-CC-PVTZ-RI
    Molecular point group: c1

    Geometry (in Angstrom), charge = -4, multiplicity = 1:

       Center              X                  Y                   Z               Mass
    ------------   -----------------  -----------------  -----------------  -----------------
         P           -1.677807954768    -0.000000810215     0.000542854296    30.973761998420
         P            1.677800045232     0.000002189785     0.000533854296    30.973761998420
         O           -0.000003954768    -0.000181810215     0.391970854296    15.994914619570
         O           -2.361362954768    -0.000396810215     1.409647854296    15.994914619570
         O           -2.000796954768    -1.297352810215    -0.803750145704    15.994914619570
         O            2.361297045232    -0.000839810215     1.409662854296    15.994914619570
         O            2.000833045232     1.298078189785    -0.802573145704    15.994914619570
         O           -2.000709954768     1.297853189785    -0.802972145704    15.994914619570
         O            2.000759045232    -1.297162810215    -0.804071145704    15.994914619570

  Basis Set: AUG-CC-PVTZ
    Blend: AUG-CC-PVTZ
  Basis Set: (AUG-CC-PVTZ AUX)
    Blend: AUG-CC-PVTZ-JKFIT
	 Reference Energy          =   -1205.3228062608679920 [Eh]
	 Singles Energy            =      -0.0000000000000000 [Eh]
	 Same-Spin Energy          =      -0.6161089128692240 [Eh]
	 Opposite-Spin Energy      =      -1.6641134236519639 [Eh]
	 Correlation Energy        =      -2.2802223365211880 [Eh]
	 Total Energy              =   -1207.6030285973890841 [Eh]

	 ================> DF-SCS-MP2 Energies <==================
	-----------------------------------------------------------
	 SCS Same-Spin Scale       =       0.3333333333333333 [-]
	 SCS Opposite-Spin Scale   =       1.2000000000000000 [-]
	 SCS Same-Spin Energy      =      -0.2053696376230746 [Eh]
	 SCS Opposite-Spin Energy  =      -1.9969361083823567 [Eh]
	 SCS Correlation Energy    =      -2.2023057460054312 [Eh]
	 SCS Total Energy          =   -1207.5251120068733144 [Eh]
	-----------------------------------------------------------

  Dipole Moment: [D]
     X:    -0.0001      Y:    -0.0001      Z:     0.2920     Total:     0.2920

*** Psi4 exiting successfully. Buy a developer a beer!
