                               Psi4 1.3.2 release

  ==> Input File <==

--------------------------------------------------------------------------
#psi4
#
memory 32 gb

molecule  {
-4 1
  P       -1.7095322    -0.0000838     0.1780715
  P        1.6778000     0.0000020     0.0005400
  O       -0.0000040    -0.0001820     0.3919770
  O       -2.3613630    -0.0003970     1.4096540
  O       -2.0007970    -1.2973530    -0.8037440
  O        2.3612970    -0.0008400     1.4096690
  O        2.0008330     1.2980780    -0.8025670
  O       -2.0007100     1.2978530    -0.8029660
  O        2.0007590    -1.2971630    -0.8040650
units angstrom
no_reorient  #important for SAPT in psi4, default
symmetry c1  #important for SAPT in psi4, default
}

set PROPERTIES_ORIGIN ["COM"]
properties('MP2/aug-cc-pvtz', properties = ['dipole'])
--------------------------------------------------------------------------

    Molecular point group: c1
  Charge       = -4
  Multiplicity = 1
  Basis Set: AUG-CC-PVTZ
    Blend: AUG-CC-PVTZ
  Basis Set: (AUG-CC-PVTZ AUX)
    Blend: AUG-CC-PVTZ-JKFIT

    Orbital Energies [Eh]
    ---------------------

    Doubly Occupied:

       1A    -79.442843     2A    -79.439604     3A    -19.913465
       4A    -19.910062     5A    -19.877664     6A    -19.874523
       7A    -19.874505     8A    -19.863420     9A    -19.863399
      10A     -6.954085    11A     -6.953051    12A     -4.853485
      13A     -4.852198    14A     -4.851888    15A     -4.850701
      16A     -4.850606    17A     -4.850549    18A     -0.761897
      19A     -0.707397    20A     -0.647531    21A     -0.606795
      22A     -0.605609    23A     -0.595393    24A     -0.562200
      25A     -0.156487    26A     -0.057659    27A     -0.009326
      28A      0.024750    29A      0.025165    30A      0.050838
      31A      0.052566    32A      0.088793    33A      0.113136
      34A      0.113278    35A      0.148839    36A      0.152012
      37A      0.155720    38A      0.163145    39A      0.176859
      40A      0.190010    41A      0.200926    42A      0.212488
      43A      0.220456    44A      0.222915    45A      0.237400

  @DF-RHF Final Energy: -1205.27790196449814

   => Energetics <=

    Nuclear Repulsion Energy =            666.7772016586375230
    One-Electron Energy =               -3057.6361172752594939
    Two-Electron Energy =                1185.5810136521236018
    Total Energy =                      -1205.2779019644981418
  Basis Set: (AUG-CC-PVTZ AUX)
    Blend: AUG-CC-PVTZ-RI
    Molecular point group: c1

    Geometry (in Angstrom), charge = -4, multiplicity = 1:

       Center              X                  Y                   Z               Mass
    ------------   -----------------  -----------------  -----------------  -----------------
         P           -1.703882066007    -0.000068863512     0.146448548133    30.973761998420
         P            1.683450133993     0.000016936488    -0.031082951867    30.973761998420
         O            0.005646133993    -0.000167063512     0.360354048133    15.994914619570
         O           -2.355712866007    -0.000382063512     1.378031048133    15.994914619570
         O           -1.995146866007    -1.297338063512    -0.835366951867    15.994914619570
         O            2.366947133993    -0.000825063512     1.378046048133    15.994914619570
         O            2.006483133993     1.298092936488    -0.834189951867    15.994914619570
         O           -1.995059866007     1.297867936488    -0.834588951867    15.994914619570
         O            2.006409133993    -1.297148063512    -0.835687951867    15.994914619570

  Basis Set: AUG-CC-PVTZ
    Blend: AUG-CC-PVTZ
  Basis Set: (AUG-CC-PVTZ AUX)
    Blend: AUG-CC-PVTZ-JKFIT
	 Reference Energy          =   -1205.2779019644981418 [Eh]
	 Singles Energy            =      -0.0000000000000000 [Eh]
	 Same-Spin Energy          =      -0.6168638683808396 [Eh]
	 Opposite-Spin Energy      =      -1.6657947055873470 [Eh]
	 Correlation Energy        =      -2.2826585739681864 [Eh]
	 Total Energy              =   -1207.5605605384662340 [Eh]

	 ================> DF-SCS-MP2 Energies <==================
	-----------------------------------------------------------
	 SCS Same-Spin Scale       =       0.3333333333333333 [-]
	 SCS Opposite-Spin Scale   =       1.2000000000000000 [-]
	 SCS Same-Spin Energy      =      -0.2056212894602799 [Eh]
	 SCS Opposite-Spin Energy  =      -1.9989536467048163 [Eh]
	 SCS Correlation Energy    =      -2.2045749361650961 [Eh]
	 SCS Total Energy          =   -1207.4824769006631868 [Eh]
	-----------------------------------------------------------

  Dipole Moment: [D]
     X:    -0.1135      Y:    -0.0013      Z:     2.7824     Total:     2.7847

*** Psi4 exiting successfully. Buy a developer a beer!
