                               Psi4 1.3.2 release

  ==> Input File <==

--------------------------------------------------------------------------
#psi4
#
memory 32 gb

molecule  {
-4 1
  P        1.5557560     0.0007770    -0.0111170
  P       -1.5567580    -0.0020400    -0.0113580
  O        0.0188738    -0.0136723    -0.6726490
  O        2.3974980     0.5298310    -1.1968130
  O        1.8853550    -1.4649890     0.3558240
  O       -2.3799130    -0.6866630    -1.1280670
  O       -1.9249590     1.4878560     0.1848770
  O        1.5475870     0.9578490     1.2013440
  O       -1.5241940    -0.8076720     1.3055320
units angstrom
no_reorient  #important for SAPT in psi4, default
symmetry c1  #important for SAPT in psi4, default
}

set PROPERTIES_ORIGIN ["COM"]
properties('MP2/aug-cc-pvtz', properties = ['dipole'])
--------------------------------------------------------------------------

    Molecular point group: c1
  Charge       = -4
  Multiplicity = 1
  Basis Set: AUG-CC-PVTZ
    Blend: AUG-CC-PVTZ
  Basis Set: (AUG-CC-PVTZ AUX)
    Blend: AUG-CC-PVTZ-JKFIT

    Orbital Energies [Eh]
    ---------------------

    Doubly Occupied:

       1A    -79.418602     2A    -79.412057     3A    -19.905176
       4A    -19.869451     5A    -19.864268     6A    -19.862821
       7A    -19.858088     8A    -19.856560     9A    -19.853252
      10A     -6.931421    11A     -6.925375    12A     -4.830441
      13A     -4.829166    14A     -4.828967    15A     -4.824431
      16A     -4.823166    17A     -4.822941    18A     -0.726628
      19A     -0.681446    20A     -0.628163    21A     -0.603711
      22A     -0.599362    23A     -0.596740    24A     -0.593460
      25A     -0.138276    26A     -0.038018    27A      0.013150
      28A      0.035951    29A      0.039661    30A      0.067869
      31A      0.069349    32A      0.098613    33A      0.124158
      34A      0.139232    35A      0.158137    36A      0.159596
      37A      0.165771    38A      0.167411    39A      0.179975
      40A      0.202673    41A      0.205644    42A      0.216613
      43A      0.223516    44A      0.230291    45A      0.235090

  @DF-RHF Final Energy: -1205.32228794856587

   => Energetics <=

    Nuclear Repulsion Energy =            689.1610051573732107
    One-Electron Energy =               -3103.7880085967908599
    Two-Electron Energy =                1209.3047154908515495
    Total Energy =                      -1205.3222879485658723
  Basis Set: (AUG-CC-PVTZ AUX)
    Blend: AUG-CC-PVTZ-RI
    Molecular point group: c1

    Geometry (in Angstrom), charge = -4, multiplicity = 1:

       Center              X                  Y                   Z               Mass
    ------------   -----------------  -----------------  -----------------  -----------------
         P            1.554072238979     0.000768361011    -0.011717178425    30.973761998420
         P           -1.558441761021    -0.002048638989    -0.011958178425    30.973761998420
         O            0.017190038979    -0.013680938989    -0.673249178425    15.994914619570
         O            2.395814238979     0.529822361011    -1.197413178425    15.994914619570
         O            1.883671238979    -1.464997638989     0.355223821575    15.994914619570
         O           -2.381596761021    -0.686671638989    -1.128667178425    15.994914619570
         O           -1.926642761021     1.487847361011     0.184276821575    15.994914619570
         O            1.545903238979     0.957840361011     1.200743821575    15.994914619570
         O           -1.525877761021    -0.807680638989     1.304931821575    15.994914619570

  Basis Set: AUG-CC-PVTZ
    Blend: AUG-CC-PVTZ
  Basis Set: (AUG-CC-PVTZ AUX)
    Blend: AUG-CC-PVTZ-JKFIT
	 Reference Energy          =   -1205.3222879485658723 [Eh]
	 Singles Energy            =      -0.0000000000000000 [Eh]
	 Same-Spin Energy          =      -0.6148757171737012 [Eh]
	 Opposite-Spin Energy      =      -1.6602565586899027 [Eh]
	 Correlation Energy        =      -2.2751322758636041 [Eh]
	 Total Energy              =   -1207.5974202244294702 [Eh]

	 ================> DF-SCS-MP2 Energies <==================
	-----------------------------------------------------------
	 SCS Same-Spin Scale       =       0.3333333333333333 [-]
	 SCS Opposite-Spin Scale   =       1.2000000000000000 [-]
	 SCS Same-Spin Energy      =      -0.2049585723912337 [Eh]
	 SCS Opposite-Spin Energy  =      -1.9923078704278832 [Eh]
	 SCS Correlation Energy    =      -2.1972664428191169 [Eh]
	 SCS Total Energy          =   -1207.5195543913850997 [Eh]
	-----------------------------------------------------------

  Dipole Moment: [D]
     X:    -0.2687      Y:    -0.0334      Z:    -0.7561     Total:     0.8031

*** Psi4 exiting successfully. Buy a developer a beer!
