                               Psi4 1.3.2 release

  ==> Input File <==

--------------------------------------------------------------------------
#psi4
#
memory 32 gb

molecule  {
-4 1
  P       -1.6778080    -0.0000010     0.0005490
  P        1.6778000     0.0000020     0.0005400
  O        0.0232136    -0.0001475     0.2739858
  O       -2.3613630    -0.0003970     1.4096540
  O       -2.0007970    -1.2973530    -0.8037440
  O        2.3612970    -0.0008400     1.4096690
  O        2.0008330     1.2980780    -0.8025670
  O       -2.0007100     1.2978530    -0.8029660
  O        2.0007590    -1.2971630    -0.8040650
units angstrom
no_reorient  #important for SAPT in psi4, default
symmetry c1  #important for SAPT in psi4, default
}

set PROPERTIES_ORIGIN ["COM"]
properties('MP2/aug-cc-pvtz', properties = ['dipole'])
--------------------------------------------------------------------------

    Molecular point group: c1
  Charge       = -4
  Multiplicity = 1
  Basis Set: AUG-CC-PVTZ
    Blend: AUG-CC-PVTZ
  Basis Set: (AUG-CC-PVTZ AUX)
    Blend: AUG-CC-PVTZ-JKFIT

    Orbital Energies [Eh]
    ---------------------

    Doubly Occupied:

       1A    -79.447061     2A    -79.437869     3A    -19.913732
       4A    -19.884678     5A    -19.878049     6A    -19.876173
       7A    -19.876155     8A    -19.870125     9A    -19.870107
      10A     -6.957164    11A     -6.948535    12A     -4.856357
      13A     -4.854808    14A     -4.854707    15A     -4.847773
      16A     -4.846251    17A     -4.846154    18A     -0.727962
      19A     -0.689100    20A     -0.636977    21A     -0.611310
      22A     -0.607942    23A     -0.605503    24A     -0.602413
      25A     -0.163549    26A     -0.046171    27A      0.000765
      28A      0.030046    29A      0.032104    30A      0.057460
      31A      0.058991    32A      0.103813    33A      0.114313
      34A      0.121211    35A      0.148992    36A      0.151228
      37A      0.155541    38A      0.157620    39A      0.163642
      40A      0.188108    41A      0.192665    42A      0.209842
      43A      0.212386    44A      0.217344    45A      0.223036

  @DF-RHF Final Energy: -1205.32476229858275

   => Energetics <=

    Nuclear Repulsion Energy =            668.6482644042853281
    One-Electron Energy =               -3061.5110221399991133
    Two-Electron Energy =                1187.5379954371310305
    Total Energy =                      -1205.3247622985827547
  Basis Set: (AUG-CC-PVTZ AUX)
    Blend: AUG-CC-PVTZ-RI
    Molecular point group: c1

    Geometry (in Angstrom), charge = -4, multiplicity = 1:

       Center              X                  Y                   Z               Mass
    ------------   -----------------  -----------------  -----------------  -----------------
         P           -1.679943308780    -0.000003983226     0.011394664231    30.973761998420
         P            1.675664691220    -0.000000983226     0.011385664231    30.973761998420
         O            0.021078291220    -0.000150483226     0.284831464231    15.994914619570
         O           -2.363498308780    -0.000399983226     1.420499664231    15.994914619570
         O           -2.002932308780    -1.297355983226    -0.792898335769    15.994914619570
         O            2.359161691220    -0.000842983226     1.420514664231    15.994914619570
         O            1.998697691220     1.298075016774    -0.791721335769    15.994914619570
         O           -2.002845308780     1.297850016774    -0.792120335769    15.994914619570
         O            1.998623691220    -1.297165983226    -0.793219335769    15.994914619570

  Basis Set: AUG-CC-PVTZ
    Blend: AUG-CC-PVTZ
  Basis Set: (AUG-CC-PVTZ AUX)
    Blend: AUG-CC-PVTZ-JKFIT
	 Reference Energy          =   -1205.3247622985827547 [Eh]
	 Singles Energy            =      -0.0000000000000000 [Eh]
	 Same-Spin Energy          =      -0.6156336658956049 [Eh]
	 Opposite-Spin Energy      =      -1.6625236557843179 [Eh]
	 Correlation Energy        =      -2.2781573216799229 [Eh]
	 Total Energy              =   -1207.6029196202625826 [Eh]

	 ================> DF-SCS-MP2 Energies <==================
	-----------------------------------------------------------
	 SCS Same-Spin Scale       =       0.3333333333333333 [-]
	 SCS Opposite-Spin Scale   =       1.2000000000000000 [-]
	 SCS Same-Spin Energy      =      -0.2052112219652016 [Eh]
	 SCS Opposite-Spin Energy  =      -1.9950283869411813 [Eh]
	 SCS Correlation Energy    =      -2.2002396089063829 [Eh]
	 SCS Total Energy          =   -1207.5250019074892407 [Eh]
	-----------------------------------------------------------

  Dipole Moment: [D]
     X:    -0.3983      Y:    -0.0002      Z:     0.4414     Total:     0.5945

*** Psi4 exiting successfully. Buy a developer a beer!
