                               Psi4 1.4a3.dev225

  ==> Input File <==

--------------------------------------------------------------------------
#psi4
#
memory 32 gb

molecule  {
-4 1
  P        1.5557560     0.0007770    -0.0111170
  P       -1.5567580    -0.0020400    -0.0113580
  O        0.0005040    -0.0138450    -0.6805560
  O        2.3974980     0.5298310    -1.1968130
  O        1.8853550    -1.4649890     0.3558240
  O       -2.3799130    -0.6866630    -1.1280670
  O       -1.9249590     1.4878560     0.1848770
  O        1.5473226     0.9888281     1.2405897
  O       -1.5241940    -0.8076720     1.3055320
units angstrom
no_reorient  #important for SAPT in psi4, default
symmetry c1  #important for SAPT in psi4, default
}

set PROPERTIES_ORIGIN ["COM"]
properties('MP2/aug-cc-pvtz', properties = ['dipole'])
--------------------------------------------------------------------------

    Molecular point group: c1
  Charge       = -4
  Multiplicity = 1
  Basis Set: AUG-CC-PVTZ
    Blend: AUG-CC-PVTZ
  Basis Set: (AUG-CC-PVTZ AUX)
    Blend: AUG-CC-PVTZ-JKFIT

    Orbital Energies [Eh]
    ---------------------

    Doubly Occupied:

       1A    -79.424090     2A    -79.416815     3A    -19.909233
       4A    -19.870707     5A    -19.868001     6A    -19.864652
       7A    -19.861390     8A    -19.858534     9A    -19.855974
      10A     -6.935814    11A     -6.929870    12A     -4.834914
      13A     -4.833655    14A     -4.833201    15A     -4.828917
      16A     -4.827615    17A     -4.827413    18A     -0.726642
      19A     -0.680314    20A     -0.629398    21A     -0.604568
      22A     -0.602552    23A     -0.596130    24A     -0.584936
      25A     -0.140040    26A     -0.040123    27A      0.012410
      28A      0.035312    29A      0.038776    30A      0.067836
      31A      0.069565    32A      0.098824    33A      0.123060
      34A      0.137792    35A      0.158775    36A      0.159882
      37A      0.165802    38A      0.168001    39A      0.179520
      40A      0.201948    41A      0.205451    42A      0.215730
      43A      0.221902    44A      0.230125    45A      0.233112

  @DF-RHF Final Energy: -1205.31758235469738

   => Energetics <=

    Nuclear Repulsion Energy =            686.8299177496517132
    One-Electron Energy =               -3098.9716495453071730
    Two-Electron Energy =                1206.8241494409583083
    Total Energy =                      -1205.3175823546973788
  Basis Set: (AUG-CC-PVTZ AUX)
    Blend: AUG-CC-PVTZ-RI
    Molecular point group: c1

    Geometry (in Angstrom), charge = -4, multiplicity = 1:

       Center              X                  Y                   Z               Mass
    ------------   -----------------  -----------------  -----------------  -----------------
         P            1.555786051506    -0.002064945181    -0.014599440966    30.973761998420
         P           -1.556727948494    -0.004881945181    -0.014840440966    30.973761998420
         O            0.000534051506    -0.016686945181    -0.684038440966    15.994914619570
         O            2.397528051506     0.526989054819    -1.200295440966    15.994914619570
         O            1.885385051506    -1.467830945181     0.352341559034    15.994914619570
         O           -2.379882948494    -0.689504945181    -1.131549440966    15.994914619570
         O           -1.924928948494     1.485014054819     0.181394559034    15.994914619570
         O            1.547352651506     0.985986154819     1.237107259034    15.994914619570
         O           -1.524163948494    -0.810513945181     1.302049559034    15.994914619570

  Basis Set: AUG-CC-PVTZ
    Blend: AUG-CC-PVTZ
  Basis Set: (AUG-CC-PVTZ AUX)
    Blend: AUG-CC-PVTZ-JKFIT
	 Reference Energy          =   -1205.3175823546973788 [Eh]
	 Singles Energy            =      -0.0000000000000000 [Eh]
	 Same-Spin Energy          =      -0.6157834447311090 [Eh]
	 Opposite-Spin Energy      =      -1.6627171587606822 [Eh]
	 Correlation Energy        =      -2.2785006034917910 [Eh]
	 Total Energy              =   -1207.5960829581890721 [Eh]

	 ================> DF-SCS-MP2 Energies <==================
	-----------------------------------------------------------
	 SCS Same-Spin Scale       =       0.3333333333333333 [-]
	 SCS Opposite-Spin Scale   =       1.2000000000000000 [-]
	 SCS Same-Spin Energy      =      -0.2052611482437030 [Eh]
	 SCS Opposite-Spin Energy  =      -1.9952605905128185 [Eh]
	 SCS Correlation Energy    =      -2.2005217387565215 [Eh]
	 SCS Total Energy          =   -1207.5181040934539851 [Eh]
	-----------------------------------------------------------

  Dipole Moment: [D]
     X:    -0.1044      Y:    -0.2658      Z:    -1.0225     Total:     1.0616

*** Psi4 exiting successfully. Buy a developer a beer!
