                               Psi4 1.3.2 release

  ==> Input File <==

--------------------------------------------------------------------------
#psi4
#
memory 32 gb

molecule  {
-4 1
  P       -1.6778080    -0.0000010     0.0005490
  P        1.6778000     0.0000020     0.0005400
  O        0.0104400     0.1578533     0.3057422
  O       -2.3613630    -0.0003970     1.4096540
  O       -2.0007970    -1.2973530    -0.8037440
  O        2.3612970    -0.0008400     1.4096690
  O        2.0008330     1.2980780    -0.8025670
  O       -2.0007100     1.2978530    -0.8029660
  O        2.0007590    -1.2971630    -0.8040650
units angstrom
no_reorient  #important for SAPT in psi4, default
symmetry c1  #important for SAPT in psi4, default
}

set PROPERTIES_ORIGIN ["COM"]
properties('MP2/aug-cc-pvtz', properties = ['dipole'])
--------------------------------------------------------------------------

    Molecular point group: c1
  Charge       = -4
  Multiplicity = 1
  Basis Set: AUG-CC-PVTZ
    Blend: AUG-CC-PVTZ
  Basis Set: (AUG-CC-PVTZ AUX)
    Blend: AUG-CC-PVTZ-JKFIT

    Orbital Energies [Eh]
    ---------------------

    Doubly Occupied:

       1A    -79.444296     2A    -79.440323     3A    -19.914414
       4A    -19.881951     5A    -19.880925     6A    -19.879030
       7A    -19.878429     8A    -19.870019     9A    -19.867277
      10A     -6.954642    11A     -6.950907    12A     -4.853767
      13A     -4.852329    14A     -4.852169    15A     -4.850047
      16A     -4.848629    17A     -4.848468    18A     -0.725079
      19A     -0.689127    20A     -0.636067    21A     -0.611084
      22A     -0.608596    23A     -0.605020    24A     -0.602565
      25A     -0.157201    26A     -0.047745    27A      0.001129
      28A      0.031740    29A      0.034441    30A      0.057266
      31A      0.059503    32A      0.101044    33A      0.112716
      34A      0.125717    35A      0.149029    36A      0.151894
      37A      0.153952    38A      0.157029    39A      0.164825
      40A      0.187897    41A      0.194312    42A      0.205104
      43A      0.215867    44A      0.218726    45A      0.221329

  @DF-RHF Final Energy: -1205.32100959376930

   => Energetics <=

    Nuclear Repulsion Energy =            667.8835452595272955
    One-Electron Energy =               -3059.9959320434913934
    Two-Electron Energy =                1186.7913771901949076
    Total Energy =                      -1205.3210095937693040
  Basis Set: (AUG-CC-PVTZ AUX)
    Blend: AUG-CC-PVTZ-RI
    Molecular point group: c1

    Geometry (in Angstrom), charge = -4, multiplicity = 1:

       Center              X                  Y                   Z               Mass
    ------------   -----------------  -----------------  -----------------  -----------------
         P           -1.678768503546    -0.014535530079     0.008473985256    30.973761998420
         P            1.676839496454    -0.014532530079     0.008464985256    30.973761998420
         O            0.009479496454     0.143318769921     0.313667185256    15.994914619570
         O           -2.362323503546    -0.014931530079     1.417578985256    15.994914619570
         O           -2.001757503546    -1.311887530079    -0.795819014744    15.994914619570
         O            2.360336496454    -0.015374530079     1.417593985256    15.994914619570
         O            1.999872496454     1.283543469921    -0.794642014744    15.994914619570
         O           -2.001670503546     1.283318469921    -0.795041014744    15.994914619570
         O            1.999798496454    -1.311697530079    -0.796140014744    15.994914619570

  Basis Set: AUG-CC-PVTZ
    Blend: AUG-CC-PVTZ
  Basis Set: (AUG-CC-PVTZ AUX)
    Blend: AUG-CC-PVTZ-JKFIT
	 Reference Energy          =   -1205.3210095937693040 [Eh]
	 Singles Energy            =      -0.0000000000000000 [Eh]
	 Same-Spin Energy          =      -0.6161021867459516 [Eh]
	 Opposite-Spin Energy      =      -1.6637939731832652 [Eh]
	 Correlation Energy        =      -2.2798961599292169 [Eh]
	 Total Energy              =   -1207.6009057536984983 [Eh]

	 ================> DF-SCS-MP2 Energies <==================
	-----------------------------------------------------------
	 SCS Same-Spin Scale       =       0.3333333333333333 [-]
	 SCS Opposite-Spin Scale   =       1.2000000000000000 [-]
	 SCS Same-Spin Energy      =      -0.2053673955819839 [Eh]
	 SCS Opposite-Spin Energy  =      -1.9965527678199182 [Eh]
	 SCS Correlation Energy    =      -2.2019201634019021 [Eh]
	 SCS Total Energy          =   -1207.5229297571711413 [Eh]
	-----------------------------------------------------------

  Dipole Moment: [D]
     X:    -0.1729      Y:    -0.2059      Z:     0.3975     Total:     0.4799

*** Psi4 exiting successfully. Buy a developer a beer!
