                               Psi4 1.3.2 release

  ==> Input File <==

--------------------------------------------------------------------------
#psi4
#
memory 32 gb

molecule  {
-4 1
  P       -1.6277014     0.0000798    -0.1726850
  P        1.6778000     0.0000020     0.0005400
  O       -0.0000040    -0.0001820     0.3919770
  O       -2.3613630    -0.0003970     1.4096540
  O       -2.0007970    -1.2973530    -0.8037440
  O        2.3612970    -0.0008400     1.4096690
  O        2.0008330     1.2980780    -0.8025670
  O       -2.0007100     1.2978530    -0.8029660
  O        2.0007590    -1.2971630    -0.8040650
units angstrom
no_reorient  #important for SAPT in psi4, default
symmetry c1  #important for SAPT in psi4, default
}

set PROPERTIES_ORIGIN ["COM"]
properties('MP2/aug-cc-pvtz', properties = ['dipole'])
--------------------------------------------------------------------------

    Molecular point group: c1
  Charge       = -4
  Multiplicity = 1
  Basis Set: AUG-CC-PVTZ
    Blend: AUG-CC-PVTZ
  Basis Set: (AUG-CC-PVTZ AUX)
    Blend: AUG-CC-PVTZ-JKFIT

    Orbital Energies [Eh]
    ---------------------

    Doubly Occupied:

       1A    -79.444270     2A    -79.443635     3A    -19.924912
       4A    -19.893787     5A    -19.893768     6A    -19.880375
       7A    -19.880357     8A    -19.879736     9A    -19.849285
      10A     -6.956386    11A     -6.955135    12A     -4.855026
      13A     -4.854356    14A     -4.854159    15A     -4.853656
      16A     -4.852786    17A     -4.852730    18A     -0.735898
      19A     -0.703959    20A     -0.652871    21A     -0.647051
      22A     -0.611935    23A     -0.610016    24A     -0.537901
      25A     -0.155138    26A     -0.056981    27A     -0.006228
      28A      0.021689    29A      0.030995    30A      0.046719
      31A      0.057917    32A      0.082405    33A      0.105501
      34A      0.125771    35A      0.139655    36A      0.142521
      37A      0.147895    38A      0.151815    39A      0.170054
      40A      0.191624    41A      0.195894    42A      0.198660
      43A      0.215799    44A      0.237534    45A      0.241318

  @DF-RHF Final Energy: -1205.29159661147582

   => Energetics <=

    Nuclear Repulsion Energy =            667.9109724964067709
    One-Electron Energy =               -3059.7279961056069624
    Two-Electron Energy =                1186.5254269977242529
    Total Energy =                      -1205.2915966114758248
  Basis Set: (AUG-CC-PVTZ AUX)
    Blend: AUG-CC-PVTZ-RI
    Molecular point group: c1

    Geometry (in Angstrom), charge = -4, multiplicity = 1:

       Center              X                  Y                   Z               Mass
    ------------   -----------------  -----------------  -----------------  -----------------
         P           -1.636625354034     0.000065599283    -0.141838122572    30.973761998420
         P            1.668876045966    -0.000012200717     0.031386877428    30.973761998420
         O           -0.008927954034    -0.000196200717     0.422823877428    15.994914619570
         O           -2.370286954034    -0.000411200717     1.440500877428    15.994914619570
         O           -2.009720954034    -1.297367200717    -0.772897122572    15.994914619570
         O            2.352373045966    -0.000854200717     1.440515877428    15.994914619570
         O            1.991909045966     1.298063799283    -0.771720122572    15.994914619570
         O           -2.009633954034     1.297838799283    -0.772119122572    15.994914619570
         O            1.991835045966    -1.297177200717    -0.773218122572    15.994914619570

  Basis Set: AUG-CC-PVTZ
    Blend: AUG-CC-PVTZ
  Basis Set: (AUG-CC-PVTZ AUX)
    Blend: AUG-CC-PVTZ-JKFIT
	 Reference Energy          =   -1205.2915966114758248 [Eh]
	 Singles Energy            =      -0.0000000000000000 [Eh]
	 Same-Spin Energy          =      -0.6177801045281683 [Eh]
	 Opposite-Spin Energy      =      -1.6682466993925238 [Eh]
	 Correlation Energy        =      -2.2860268039206924 [Eh]
	 Total Energy              =   -1207.5776234153966016 [Eh]

	 ================> DF-SCS-MP2 Energies <==================
	-----------------------------------------------------------
	 SCS Same-Spin Scale       =       0.3333333333333333 [-]
	 SCS Opposite-Spin Scale   =       1.2000000000000000 [-]
	 SCS Same-Spin Energy      =      -0.2059267015093894 [Eh]
	 SCS Opposite-Spin Energy  =      -2.0018960392710285 [Eh]
	 SCS Correlation Energy    =      -2.2078227407804181 [Eh]
	 SCS Total Energy          =   -1207.4994193522561545 [Eh]
	-----------------------------------------------------------

  Dipole Moment: [D]
     X:     1.2121      Y:     0.0010      Z:    -2.3636     Total:     2.6563

*** Psi4 exiting successfully. Buy a developer a beer!
