                               Psi4 1.4a3.dev225

  ==> Input File <==

--------------------------------------------------------------------------
#psi4
#
memory 32 gb

molecule  {
-4 1
  P        1.5557560     0.0007770    -0.0111170
  P       -1.5567580    -0.0020400    -0.0113580
  O        0.0464284    -0.0134132    -0.6607884
  O        2.3974980     0.5298310    -1.1968130
  O        1.8853550    -1.4649890     0.3558240
  O       -2.3799130    -0.6866630    -1.1280670
  O       -1.9249590     1.4878560     0.1848770
  O        1.5475870     0.9578490     1.2013440
  O       -1.5241940    -0.8076720     1.3055320
units angstrom
no_reorient  #important for SAPT in psi4, default
symmetry c1  #important for SAPT in psi4, default
}

set PROPERTIES_ORIGIN ["COM"]
properties('MP2/aug-cc-pvtz', properties = ['dipole'])
--------------------------------------------------------------------------

    Molecular point group: c1
  Charge       = -4
  Multiplicity = 1
  Basis Set: AUG-CC-PVTZ
    Blend: AUG-CC-PVTZ
  Basis Set: (AUG-CC-PVTZ AUX)
    Blend: AUG-CC-PVTZ-JKFIT

    Orbital Energies [Eh]
    ---------------------

    Doubly Occupied:

       1A    -79.423041     2A    -79.407037     3A    -19.904645
       4A    -19.873284     5A    -19.865689     6A    -19.860980
       7A    -19.858555     8A    -19.854857     9A    -19.850114
      10A     -6.935552    11A     -6.920836    12A     -4.834575
      13A     -4.833269    14A     -4.833063    15A     -4.819952
      16A     -4.818634    17A     -4.818405    18A     -0.728390
      19A     -0.682205    20A     -0.628293    21A     -0.606664
      22A     -0.599264    23A     -0.596125    24A     -0.590690
      25A     -0.140238    26A     -0.037882    27A      0.013087
      28A      0.035123    29A      0.038805    30A      0.067483
      31A      0.068913    32A      0.099437    33A      0.124136
      34A      0.138627    35A      0.156080    36A      0.158872
      37A      0.167114    38A      0.169199    39A      0.179753
      40A      0.200503    41A      0.205503    42A      0.218522
      43A      0.224915    44A      0.228025    45A      0.237728

  @DF-RHF Final Energy: -1205.32170037402398

   => Energetics <=

    Nuclear Repulsion Energy =            689.5174573349164575
    One-Electron Energy =               -3104.4974902789604130
    Two-Electron Energy =                1209.6583325700200930
    Total Energy =                      -1205.3217003740239761
  Basis Set: (AUG-CC-PVTZ AUX)
    Blend: AUG-CC-PVTZ-RI
    Molecular point group: c1

    Geometry (in Angstrom), charge = -4, multiplicity = 1:

       Center              X                  Y                   Z               Mass
    ------------   -----------------  -----------------  -----------------  -----------------
         P            1.551538005222     0.000744531234    -0.012808013817    30.973761998420
         P           -1.560975994778    -0.002072468766    -0.013049013817    30.973761998420
         O            0.042210405222    -0.013445668766    -0.662479413817    15.994914619570
         O            2.393280005222     0.529798531234    -1.198504013817    15.994914619570
         O            1.881137005222    -1.465021468766     0.354132986183    15.994914619570
         O           -2.384130994778    -0.686695468766    -1.129758013817    15.994914619570
         O           -1.929176994778     1.487823531234     0.183185986183    15.994914619570
         O            1.543369005222     0.957816531234     1.199652986183    15.994914619570
         O           -1.528411994778    -0.807704468766     1.303840986183    15.994914619570

  Basis Set: AUG-CC-PVTZ
    Blend: AUG-CC-PVTZ
  Basis Set: (AUG-CC-PVTZ AUX)
    Blend: AUG-CC-PVTZ-JKFIT
	 Reference Energy          =   -1205.3217003740239761 [Eh]
	 Singles Energy            =      -0.0000000000000000 [Eh]
	 Same-Spin Energy          =      -0.6147897176669955 [Eh]
	 Opposite-Spin Energy      =      -1.6599791637586914 [Eh]
	 Correlation Energy        =      -2.2747688814256870 [Eh]
	 Total Energy              =   -1207.5964692554496196 [Eh]

	 ================> DF-SCS-MP2 Energies <==================
	-----------------------------------------------------------
	 SCS Same-Spin Scale       =       0.3333333333333333 [-]
	 SCS Opposite-Spin Scale   =       1.2000000000000000 [-]
	 SCS Same-Spin Energy      =      -0.2049299058889985 [Eh]
	 SCS Opposite-Spin Energy  =      -1.9919749965104296 [Eh]
	 SCS Correlation Energy    =      -2.1969049023994280 [Eh]
	 SCS Total Energy          =   -1207.5186052764233864 [Eh]
	-----------------------------------------------------------

  Dipole Moment: [D]
     X:    -0.6443      Y:    -0.0325      Z:    -0.7817     Total:     1.0135

*** Psi4 exiting successfully. Buy a developer a beer!
