                               Psi4 1.3.2 release

  ==> Input File <==

--------------------------------------------------------------------------
#psi4
#
memory 32 gb

molecule  {
-4 1
  P       -1.6778080    -0.0000010     0.0005490
  P        1.6778000     0.0000020     0.0005400
  O       -0.1947738    -0.0001610     0.3465376
  O       -2.3613630    -0.0003970     1.4096540
  O       -2.0007970    -1.2973530    -0.8037440
  O        2.3612970    -0.0008400     1.4096690
  O        2.0008330     1.2980780    -0.8025670
  O       -2.0007100     1.2978530    -0.8029660
  O        2.0007590    -1.2971630    -0.8040650
units angstrom
no_reorient  #important for SAPT in psi4, default
symmetry c1  #important for SAPT in psi4, default
}

set PROPERTIES_ORIGIN ["COM"]
properties('MP2/aug-cc-pvtz', properties = ['dipole'])
--------------------------------------------------------------------------

    Molecular point group: c1
  Charge       = -4
  Multiplicity = 1
  Basis Set: AUG-CC-PVTZ
    Blend: AUG-CC-PVTZ
  Basis Set: (AUG-CC-PVTZ AUX)
    Blend: AUG-CC-PVTZ-JKFIT

    Orbital Energies [Eh]
    ---------------------

    Doubly Occupied:

       1A    -79.476012     2A    -79.400887     3A    -19.906443
       4A    -19.906412     5A    -19.899799     6A    -19.899780
       7A    -19.851421     8A    -19.851219     9A    -19.851201
      10A     -6.985466    11A     -6.915529    12A     -4.884586
      13A     -4.882632    14A     -4.882536    15A     -4.815184
      16A     -4.813130    17A     -4.813036    18A     -0.736744
      19A     -0.704380    20A     -0.631660    21A     -0.629068
      22A     -0.626507    23A     -0.585021    24A     -0.584025
      25A     -0.154651    26A     -0.054719    27A      0.008867
      28A      0.025083    29A      0.026023    30A      0.052061
      31A      0.052170    32A      0.097883    33A      0.121144
      34A      0.122724    35A      0.132569    36A      0.134647
      37A      0.166521    38A      0.170864    39A      0.171824
      40A      0.177920    41A      0.180523    42A      0.196059
      43A      0.226969    44A      0.228539    45A      0.242450

  @DF-RHF Final Energy: -1205.30184786695622

   => Energetics <=

    Nuclear Repulsion Energy =            668.8818470654401835
    One-Electron Energy =               -3061.9529695565206566
    Two-Electron Energy =                1187.7692746241243640
    Total Energy =                      -1205.3018478669562228
  Basis Set: (AUG-CC-PVTZ AUX)
    Blend: AUG-CC-PVTZ-RI
    Molecular point group: c1

    Geometry (in Angstrom), charge = -4, multiplicity = 1:

       Center              X                  Y                   Z               Mass
    ------------   -----------------  -----------------  -----------------  -----------------
         P           -1.659894713352    -0.000002741613     0.004721977251    30.973761998420
         P            1.695713286648     0.000000258387     0.004712977251    30.973761998420
         O           -0.176860513352    -0.000162741613     0.350710577251    15.994914619570
         O           -2.343449713352    -0.000398741613     1.413826977251    15.994914619570
         O           -1.982883713352    -1.297354741613    -0.799571022749    15.994914619570
         O            2.379210286648    -0.000841741613     1.413841977251    15.994914619570
         O            2.018746286648     1.298076258387    -0.798394022749    15.994914619570
         O           -1.982796713352     1.297851258387    -0.798793022749    15.994914619570
         O            2.018672286648    -1.297164741613    -0.799892022749    15.994914619570

  Basis Set: AUG-CC-PVTZ
    Blend: AUG-CC-PVTZ
  Basis Set: (AUG-CC-PVTZ AUX)
    Blend: AUG-CC-PVTZ-JKFIT
	 Reference Energy          =   -1205.3018478669562228 [Eh]
	 Singles Energy            =      -0.0000000000000000 [Eh]
	 Same-Spin Energy          =      -0.6159398801068460 [Eh]
	 Opposite-Spin Energy      =      -1.6634460349943618 [Eh]
	 Correlation Energy        =      -2.2793859151012077 [Eh]
	 Total Energy              =   -1207.5812337820573248 [Eh]

	 ================> DF-SCS-MP2 Energies <==================
	-----------------------------------------------------------
	 SCS Same-Spin Scale       =       0.3333333333333333 [-]
	 SCS Opposite-Spin Scale   =       1.2000000000000000 [-]
	 SCS Same-Spin Energy      =      -0.2053132933689487 [Eh]
	 SCS Opposite-Spin Energy  =      -1.9961352419932341 [Eh]
	 SCS Correlation Energy    =      -2.2014485353621827 [Eh]
	 SCS Total Energy          =   -1207.5032964023184832 [Eh]
	-----------------------------------------------------------

  Dipole Moment: [D]
     X:     3.2091      Y:    -0.0001      Z:     0.3494     Total:     3.2281

*** Psi4 exiting successfully. Buy a developer a beer!
