                               Psi4 1.4a3.dev225

  ==> Input File <==

--------------------------------------------------------------------------
#psi4
#
memory 32 gb

molecule  {
-4 1
  P        1.5557560     0.0007770    -0.0111170
  P       -1.5567580    -0.0020400    -0.0113580
  O        0.0005040    -0.0138450    -0.6805560
  O        2.3702986     0.5127356    -1.1584993
  O        1.8853550    -1.4649890     0.3558240
  O       -2.3799130    -0.6866630    -1.1280670
  O       -1.9249590     1.4878560     0.1848770
  O        1.5475870     0.9578490     1.2013440
  O       -1.5241940    -0.8076720     1.3055320
units angstrom
no_reorient  #important for SAPT in psi4, default
symmetry c1  #important for SAPT in psi4, default
}

set PROPERTIES_ORIGIN ["COM"]
properties('MP2/aug-cc-pvtz', properties = ['dipole'])
--------------------------------------------------------------------------

    Molecular point group: c1
  Charge       = -4
  Multiplicity = 1
  Basis Set: AUG-CC-PVTZ
    Blend: AUG-CC-PVTZ
  Basis Set: (AUG-CC-PVTZ AUX)
    Blend: AUG-CC-PVTZ-JKFIT

    Orbital Energies [Eh]
    ---------------------

    Doubly Occupied:

       1A    -79.413575     2A    -79.405177     3A    -19.901644
       4A    -19.865420     5A    -19.862450     6A    -19.859455
       7A    -19.855562     8A    -19.853494     9A    -19.850586
      10A     -6.926629    11A     -6.920023    12A     -4.825629
      13A     -4.824408    14A     -4.824211    15A     -4.818916
      16A     -4.818052    17A     -4.817377    18A     -0.726366
      19A     -0.684741    20A     -0.627731    21A     -0.606139
      22A     -0.600145    23A     -0.593807    24A     -0.591297
      25A     -0.133584    26A     -0.036481    27A      0.013573
      28A      0.037681    29A      0.041155    30A      0.067786
      31A      0.069157    32A      0.098973    33A      0.125585
      34A      0.137861    35A      0.158912    36A      0.160477
      37A      0.166440    38A      0.167954    39A      0.181265
      40A      0.205162    41A      0.206307    42A      0.218028
      43A      0.225814    44A      0.233181    45A      0.236546

  @DF-RHF Final Energy: -1205.32117061503550

   => Energetics <=

    Nuclear Repulsion Energy =            691.2548284174246191
    One-Electron Energy =               -3108.1699189207547533
    Two-Electron Energy =                1211.5939198882947494
    Total Energy =                      -1205.3211706150354985
  Basis Set: (AUG-CC-PVTZ AUX)
    Blend: AUG-CC-PVTZ-RI
    Molecular point group: c1

    Geometry (in Angstrom), charge = -4, multiplicity = 1:

       Center              X                  Y                   Z               Mass
    ------------   -----------------  -----------------  -----------------  -----------------
         P            1.558263299814     0.002356531477    -0.014513723668    30.973761998420
         P           -1.554250700186    -0.000460468523    -0.014754723668    30.973761998420
         O            0.003011299814    -0.012265468523    -0.683952723668    15.994914619570
         O            2.372805899814     0.514315131477    -1.161896023668    15.994914619570
         O            1.887862299814    -1.463409468523     0.352427276332    15.994914619570
         O           -2.377405700186    -0.685083468523    -1.131463723668    15.994914619570
         O           -1.922451700186     1.489435531477     0.181480276332    15.994914619570
         O            1.550094299814     0.959428531477     1.197947276332    15.994914619570
         O           -1.521686700186    -0.806092468523     1.302135276332    15.994914619570

  Basis Set: AUG-CC-PVTZ
    Blend: AUG-CC-PVTZ
  Basis Set: (AUG-CC-PVTZ AUX)
    Blend: AUG-CC-PVTZ-JKFIT
	 Reference Energy          =   -1205.3211706150354985 [Eh]
	 Singles Energy            =      -0.0000000000000000 [Eh]
	 Same-Spin Energy          =      -0.6141789533534103 [Eh]
	 Opposite-Spin Energy      =      -1.6583708249483091 [Eh]
	 Correlation Energy        =      -2.2725497783017197 [Eh]
	 Total Energy              =   -1207.5937203933372075 [Eh]

	 ================> DF-SCS-MP2 Energies <==================
	-----------------------------------------------------------
	 SCS Same-Spin Scale       =       0.3333333333333333 [-]
	 SCS Opposite-Spin Scale   =       1.2000000000000000 [-]
	 SCS Same-Spin Energy      =      -0.2047263177844701 [Eh]
	 SCS Opposite-Spin Energy  =      -1.9900449899379709 [Eh]
	 SCS Correlation Energy    =      -2.1947713077224411 [Eh]
	 SCS Total Energy          =   -1207.5159419227579747 [Eh]
	-----------------------------------------------------------

  Dipole Moment: [D]
     X:     0.2625      Y:     0.1079      Z:    -1.0619     Total:     1.0992

*** Psi4 exiting successfully. Buy a developer a beer!
