                               Psi4 1.3.2 release

  ==> Input File <==

--------------------------------------------------------------------------
#psi4
#
memory 32 gb

molecule  {
-4 1
  P       -1.6778080    -0.0000010     0.0005490
  P        1.6778000     0.0000020     0.0005400
  O       -0.0035379    -0.0265679     0.4059574
  O       -2.3613630    -0.0003970     1.4096540
  O       -2.0007970    -1.2973530    -0.8037440
  O        2.3612970    -0.0008400     1.4096690
  O        2.0008330     1.2980780    -0.8025670
  O       -2.0007100     1.2978530    -0.8029660
  O        2.0007590    -1.2971630    -0.8040650
units angstrom
no_reorient  #important for SAPT in psi4, default
symmetry c1  #important for SAPT in psi4, default
}

set PROPERTIES_ORIGIN ["COM"]
properties('MP2/aug-cc-pvtz', properties = ['dipole'])
--------------------------------------------------------------------------

    Molecular point group: c1
  Charge       = -4
  Multiplicity = 1
  Basis Set: AUG-CC-PVTZ
    Blend: AUG-CC-PVTZ
  Basis Set: (AUG-CC-PVTZ AUX)
    Blend: AUG-CC-PVTZ-JKFIT

    Orbital Energies [Eh]
    ---------------------

    Doubly Occupied:

       1A    -79.442897     2A    -79.441606     3A    -19.916070
       4A    -19.877947     5A    -19.877688     6A    -19.877105
       7A    -19.876712     8A    -19.876133     9A    -19.875282
      10A     -6.953375    11A     -6.952159    12A     -4.852432
      13A     -4.851221    14A     -4.851032    15A     -4.850959
      16A     -4.849829    17A     -4.849755    18A     -0.722330
      19A     -0.689112    20A     -0.633930    21A     -0.608477
      22A     -0.607576    23A     -0.607252    24A     -0.606423
      25A     -0.151438    26A     -0.048970    27A      0.002299
      28A      0.034293    29A      0.034508    30A      0.057869
      31A      0.058427    32A      0.097390    33A      0.117970
      34A      0.124993    35A      0.150217    36A      0.150920
      37A      0.153046    38A      0.156261    39A      0.166344
      40A      0.190288    41A      0.190850    42A      0.207829
      43A      0.210020    44A      0.218611    45A      0.219830

  @DF-RHF Final Energy: -1205.32209964191202

   => Energetics <=

    Nuclear Repulsion Energy =            666.9336488677897705
    One-Electron Energy =               -3058.1000053152110922
    Two-Electron Energy =                1185.8442568055090760
    Total Energy =                      -1205.3220996419120183
  Basis Set: (AUG-CC-PVTZ AUX)
    Blend: AUG-CC-PVTZ-RI
    Molecular point group: c1

    Geometry (in Angstrom), charge = -4, multiplicity = 1:

       Center              X                  Y                   Z               Mass
    ------------   -----------------  -----------------  -----------------  -----------------
         P           -1.677482937215     0.002425936625    -0.000742941963    30.973761998420
         P            1.678125062785     0.002428936625    -0.000751941963    30.973761998420
         O           -0.003212837215    -0.024140963375     0.404665458037    15.994914619570
         O           -2.361037937215     0.002029936625     1.408362058037    15.994914619570
         O           -2.000471937215    -1.294926063375    -0.805035941963    15.994914619570
         O            2.361622062785     0.001586936625     1.408377058037    15.994914619570
         O            2.001158062785     1.300504936625    -0.803858941963    15.994914619570
         O           -2.000384937215     1.300279936625    -0.804257941963    15.994914619570
         O            2.001084062785    -1.294736063375    -0.805356941963    15.994914619570

  Basis Set: AUG-CC-PVTZ
    Blend: AUG-CC-PVTZ
  Basis Set: (AUG-CC-PVTZ AUX)
    Blend: AUG-CC-PVTZ-JKFIT
	 Reference Energy          =   -1205.3220996419120183 [Eh]
	 Singles Energy            =      -0.0000000000000000 [Eh]
	 Same-Spin Energy          =      -0.6162036965808969 [Eh]
	 Opposite-Spin Energy      =      -1.6643953149616719 [Eh]
	 Correlation Energy        =      -2.2805990115425687 [Eh]
	 Total Energy              =   -1207.6026986534545813 [Eh]

	 ================> DF-SCS-MP2 Energies <==================
	-----------------------------------------------------------
	 SCS Same-Spin Scale       =       0.3333333333333333 [-]
	 SCS Opposite-Spin Scale   =       1.2000000000000000 [-]
	 SCS Same-Spin Energy      =      -0.2054012321936323 [Eh]
	 SCS Opposite-Spin Energy  =      -1.9972743779540063 [Eh]
	 SCS Correlation Energy    =      -2.2026756101476388 [Eh]
	 SCS Total Energy          =   -1207.5247752520597260 [Eh]
	-----------------------------------------------------------

  Dipole Moment: [D]
     X:     0.0559      Y:     0.0340      Z:     0.2734     Total:     0.2811

*** Psi4 exiting successfully. Buy a developer a beer!
