                               Psi4 1.4a3.dev225

  ==> Input File <==

--------------------------------------------------------------------------
#psi4
#
memory 32 gb

molecule  {
-4 1
  P        1.5557560     0.0007770    -0.0111170
  P       -1.5567580    -0.0020400    -0.0113580
  O       -0.0178658    -0.0140177    -0.6884630
  O        2.3974980     0.5298310    -1.1968130
  O        1.8853550    -1.4649890     0.3558240
  O       -2.3799130    -0.6866630    -1.1280670
  O       -1.9249590     1.4878560     0.1848770
  O        1.5475870     0.9578490     1.2013440
  O       -1.5241940    -0.8076720     1.3055320
units angstrom
no_reorient  #important for SAPT in psi4, default
symmetry c1  #important for SAPT in psi4, default
}

set PROPERTIES_ORIGIN ["COM"]
properties('MP2/aug-cc-pvtz', properties = ['dipole'])
--------------------------------------------------------------------------

    Molecular point group: c1
  Charge       = -4
  Multiplicity = 1
  Basis Set: AUG-CC-PVTZ
    Blend: AUG-CC-PVTZ
  Basis Set: (AUG-CC-PVTZ AUX)
    Blend: AUG-CC-PVTZ-JKFIT

    Orbital Energies [Eh]
    ---------------------

    Doubly Occupied:

       1A    -79.418377     2A    -79.412678     3A    -19.905366
       4A    -19.868577     5A    -19.864374     6A    -19.862342
       7A    -19.859101     8A    -19.857381     9A    -19.854046
      10A     -6.931181    11A     -6.925961    12A     -4.830180
      13A     -4.828937    14A     -4.828719    15A     -4.824989
      16A     -4.823732    17A     -4.823541    18A     -0.724994
      19A     -0.681446    20A     -0.627318    21A     -0.603031
      22A     -0.599837    23A     -0.597023    24A     -0.594128
      25A     -0.135429    26A     -0.038607    27A      0.013537
      28A      0.036850    29A      0.040495    30A      0.067792
      31A      0.069389    32A      0.097841    33A      0.124643
      34A      0.139859    35A      0.158153    36A      0.159603
      37A      0.165544    38A      0.167017    39A      0.180629
      40A      0.203181    41A      0.205126    42A      0.216093
      43A      0.223125    44A      0.230337    45A      0.234536

  @DF-RHF Final Energy: -1205.32138899423830

   => Energetics <=

    Nuclear Repulsion Energy =            688.7421481312280775
    One-Electron Energy =               -3102.9519888097684088
    Two-Electron Energy =                1208.8884516843020265
    Total Energy =                      -1205.3213889942383048
  Basis Set: (AUG-CC-PVTZ AUX)
    Blend: AUG-CC-PVTZ-RI
    Molecular point group: c1

    Geometry (in Angstrom), charge = -4, multiplicity = 1:

       Center              X                  Y                   Z               Mass
    ------------   -----------------  -----------------  -----------------  -----------------
         P            1.557451229584     0.000800127915    -0.010262743498    30.973761998420
         P           -1.555062770416    -0.002016872085    -0.010503743498    30.973761998420
         O           -0.016170570416    -0.013994572085    -0.687608743498    15.994914619570
         O            2.399193229584     0.529854127915    -1.195958743498    15.994914619570
         O            1.887050229584    -1.464965872085     0.356678256502    15.994914619570
         O           -2.378217770416    -0.686639872085    -1.127212743498    15.994914619570
         O           -1.923263770416     1.487879127915     0.185731256502    15.994914619570
         O            1.549282229584     0.957872127915     1.202198256502    15.994914619570
         O           -1.522498770416    -0.807648872085     1.306386256502    15.994914619570

  Basis Set: AUG-CC-PVTZ
    Blend: AUG-CC-PVTZ
  Basis Set: (AUG-CC-PVTZ AUX)
    Blend: AUG-CC-PVTZ-JKFIT
	 Reference Energy          =   -1205.3213889942383048 [Eh]
	 Singles Energy            =      -0.0000000000000000 [Eh]
	 Same-Spin Energy          =      -0.6150226556267633 [Eh]
	 Opposite-Spin Energy      =      -1.6606747126497876 [Eh]
	 Correlation Energy        =      -2.2756973682765507 [Eh]
	 Total Energy              =   -1207.5970863625148013 [Eh]

	 ================> DF-SCS-MP2 Energies <==================
	-----------------------------------------------------------
	 SCS Same-Spin Scale       =       0.3333333333333333 [-]
	 SCS Opposite-Spin Scale   =       1.2000000000000000 [-]
	 SCS Same-Spin Energy      =      -0.2050075518755878 [Eh]
	 SCS Opposite-Spin Energy  =      -1.9928096551797450 [Eh]
	 SCS Correlation Energy    =      -2.1978172070553326 [Eh]
	 SCS Total Energy          =   -1207.5192062012936276 [Eh]
	-----------------------------------------------------------

  Dipole Moment: [D]
     X:     0.2208      Y:    -0.0344      Z:    -0.7220     Total:     0.7558

*** Psi4 exiting successfully. Buy a developer a beer!
