                               Psi4 1.3.2 release

  ==> Input File <==

--------------------------------------------------------------------------
#psi4
#
memory 32 gb

molecule  {
-4 1
  P       -1.6778080    -0.0000010     0.0005490
  P        1.6778000     0.0000020     0.0005400
  O       -0.0501106    -0.0002320     0.5652110
  O       -2.3613630    -0.0003970     1.4096540
  O       -2.0007970    -1.2973530    -0.8037440
  O        2.3612970    -0.0008400     1.4096690
  O        2.0008330     1.2980780    -0.8025670
  O       -2.0007100     1.2978530    -0.8029660
  O        2.0007590    -1.2971630    -0.8040650
units angstrom
no_reorient  #important for SAPT in psi4, default
symmetry c1  #important for SAPT in psi4, default
}

set PROPERTIES_ORIGIN ["COM"]
properties('MP2/aug-cc-pvtz', properties = ['dipole'])
--------------------------------------------------------------------------

    Molecular point group: c1
  Charge       = -4
  Multiplicity = 1
  Basis Set: AUG-CC-PVTZ
    Blend: AUG-CC-PVTZ
  Basis Set: (AUG-CC-PVTZ AUX)
    Blend: AUG-CC-PVTZ-JKFIT

    Orbital Energies [Eh]
    ---------------------

    Doubly Occupied:

       1A    -79.449722     2A    -79.433855     3A    -19.919019
       4A    -19.886413     5A    -19.886394     6A    -19.878947
       7A    -19.876045     8A    -19.876027     9A    -19.865762
      10A     -6.960160    11A     -6.945120    12A     -4.859047
      13A     -4.857630    14A     -4.857630    15A     -4.844037
      16A     -4.842776    17A     -4.842765    18A     -0.715733
      19A     -0.690541    20A     -0.629198    21A     -0.616194
      22A     -0.609942    23A     -0.606705    24A     -0.598219
      25A     -0.133382    26A     -0.054106    27A      0.005278
      28A      0.036548    29A      0.040207    30A      0.055979
      31A      0.059983    32A      0.089477    33A      0.123609
      34A      0.129885    35A      0.144901    36A      0.146764
      37A      0.156169    38A      0.156695    39A      0.171125
      40A      0.186072    41A      0.193606    42A      0.205494
      43A      0.212527    44A      0.213032    45A      0.223538

  @DF-RHF Final Energy: -1205.30910296937554

   => Energetics <=

    Nuclear Repulsion Energy =            664.3859962289493524
    One-Electron Energy =               -3053.0212481232092614
    Two-Electron Energy =                1183.3261489248843645
    Total Energy =                      -1205.3091029693755445
  Basis Set: (AUG-CC-PVTZ AUX)
    Blend: AUG-CC-PVTZ-RI
    Molecular point group: c1

    Geometry (in Angstrom), charge = -4, multiplicity = 1:

       Center              X                  Y                   Z               Mass
    ------------   -----------------  -----------------  -----------------  -----------------
         P           -1.673199583130     0.000003788353    -0.015389710523    30.973761998420
         P            1.682408416870     0.000006788353    -0.015398710523    30.973761998420
         O           -0.045502183130    -0.000227211647     0.549272289477    15.994914619570
         O           -2.356754583130    -0.000392211647     1.393715289477    15.994914619570
         O           -1.996188583130    -1.297348211647    -0.819682710523    15.994914619570
         O            2.365905416870    -0.000835211647     1.393730289477    15.994914619570
         O            2.005441416870     1.298082788353    -0.818505710523    15.994914619570
         O           -1.996101583130     1.297857788353    -0.818904710523    15.994914619570
         O            2.005367416870    -1.297158211647    -0.820003710523    15.994914619570

  Basis Set: AUG-CC-PVTZ
    Blend: AUG-CC-PVTZ
  Basis Set: (AUG-CC-PVTZ AUX)
    Blend: AUG-CC-PVTZ-JKFIT
	 Reference Energy          =   -1205.3091029693755445 [Eh]
	 Singles Energy            =      -0.0000000000000000 [Eh]
	 Same-Spin Energy          =      -0.6176206413873386 [Eh]
	 Opposite-Spin Energy      =      -1.6683500527972166 [Eh]
	 Correlation Energy        =      -2.2859706941845550 [Eh]
	 Total Energy              =   -1207.5950736635600151 [Eh]

	 ================> DF-SCS-MP2 Energies <==================
	-----------------------------------------------------------
	 SCS Same-Spin Scale       =       0.3333333333333333 [-]
	 SCS Opposite-Spin Scale   =       1.2000000000000000 [-]
	 SCS Same-Spin Energy      =      -0.2058735471291129 [Eh]
	 SCS Opposite-Spin Energy  =      -2.0020200633566598 [Eh]
	 SCS Correlation Energy    =      -2.2078936104857725 [Eh]
	 SCS Total Energy          =   -1207.5169965798613703 [Eh]
	-----------------------------------------------------------

  Dipole Moment: [D]
     X:     0.6930      Y:    -0.0000      Z:     0.0487     Total:     0.6947

*** Psi4 exiting successfully. Buy a developer a beer!
