                               Psi4 1.3.2 release

  ==> Input File <==

--------------------------------------------------------------------------
#psi4
#
memory 32 gb

molecule  {
-4 1
  P       -1.6778080    -0.0000010     0.0005490
  P        1.6778000     0.0000020     0.0005400
  O       -0.0000040    -0.0001820     0.3919770
  O       -2.4486542    -0.0004476     1.5895991
  O       -2.0007970    -1.2973530    -0.8037440
  O        2.3612970    -0.0008400     1.4096690
  O        2.0008330     1.2980780    -0.8025670
  O       -2.0007100     1.2978530    -0.8029660
  O        2.0007590    -1.2971630    -0.8040650
units angstrom
no_reorient  #important for SAPT in psi4, default
symmetry c1  #important for SAPT in psi4, default
}

set PROPERTIES_ORIGIN ["COM"]
properties('MP2/aug-cc-pvtz', properties = ['dipole'])
--------------------------------------------------------------------------

    Molecular point group: c1
  Charge       = -4
  Multiplicity = 1
  Basis Set: AUG-CC-PVTZ
    Blend: AUG-CC-PVTZ
  Basis Set: (AUG-CC-PVTZ AUX)
    Blend: AUG-CC-PVTZ-JKFIT

    Orbital Energies [Eh]
    ---------------------

    Doubly Occupied:

       1A    -79.471841     2A    -79.449197     3A    -19.928839
       4A    -19.893867     5A    -19.893849     6A    -19.890607
       7A    -19.882117     8A    -19.882060     9A    -19.882039
      10A     -6.979277    11A     -6.959702    12A     -4.878266
      13A     -4.876852    14A     -4.876517    15A     -4.858856
      16A     -4.857280    17A     -4.857228    18A     -0.728302
      19A     -0.690260    20A     -0.644273    21A     -0.623153
      22A     -0.613376    23A     -0.612146    24A     -0.568533
      25A     -0.165502    26A     -0.056184    27A     -0.003076
      28A      0.027310    29A      0.029145    30A      0.053535
      31A      0.059007    32A      0.091709    33A      0.109548
      34A      0.125243    35A      0.145026    36A      0.146648
      37A      0.152728    38A      0.153149    39A      0.173149
      40A      0.180989    41A      0.191301    42A      0.199049
      43A      0.206652    44A      0.212268    45A      0.214113

  @DF-RHF Final Energy: -1205.29243338844685

   => Energetics <=

    Nuclear Repulsion Energy =            659.1962988694102705
    One-Electron Energy =               -3041.8722055439984615
    Two-Electron Energy =                1177.3834732861412249
    Total Energy =                      -1205.2924333884468524
  Basis Set: (AUG-CC-PVTZ AUX)
    Blend: AUG-CC-PVTZ-RI
    Molecular point group: c1

    Geometry (in Angstrom), charge = -4, multiplicity = 1:

       Center              X                  Y                   Z               Mass
    ------------   -----------------  -----------------  -----------------  -----------------
         P           -1.669779665274     0.000003843535    -0.016006939449    30.973761998420
         P            1.685828334726     0.000006843535    -0.016015939449    30.973761998420
         O            0.008024334726    -0.000177156465     0.375421060551    15.994914619570
         O           -2.440625865274    -0.000442756465     1.573043160551    15.994914619570
         O           -1.992768665274    -1.297348156465    -0.820299939449    15.994914619570
         O            2.369325334726    -0.000835156465     1.393113060551    15.994914619570
         O            2.008861334726     1.298082843535    -0.819122939449    15.994914619570
         O           -1.992681665274     1.297857843535    -0.819521939449    15.994914619570
         O            2.008787334726    -1.297158156465    -0.820620939449    15.994914619570

  Basis Set: AUG-CC-PVTZ
    Blend: AUG-CC-PVTZ
  Basis Set: (AUG-CC-PVTZ AUX)
    Blend: AUG-CC-PVTZ-JKFIT
	 Reference Energy          =   -1205.2924333884468524 [Eh]
	 Singles Energy            =      -0.0000000000000000 [Eh]
	 Same-Spin Energy          =      -0.6192989183869296 [Eh]
	 Opposite-Spin Energy      =      -1.6730203981232852 [Eh]
	 Correlation Energy        =      -2.2923193165102149 [Eh]
	 Total Energy              =   -1207.5847527049570544 [Eh]

	 ================> DF-SCS-MP2 Energies <==================
	-----------------------------------------------------------
	 SCS Same-Spin Scale       =       0.3333333333333333 [-]
	 SCS Opposite-Spin Scale   =       1.2000000000000000 [-]
	 SCS Same-Spin Energy      =      -0.2064329727956432 [Eh]
	 SCS Opposite-Spin Energy  =      -2.0076244777479419 [Eh]
	 SCS Correlation Energy    =      -2.2140574505435850 [Eh]
	 SCS Total Energy          =   -1207.5064908389904303 [Eh]
	-----------------------------------------------------------

  Dipole Moment: [D]
     X:     1.0187      Y:     0.0003      Z:    -1.1842     Total:     1.5620

*** Psi4 exiting successfully. Buy a developer a beer!
