                               Psi4 1.3.2 release

  ==> Input File <==

--------------------------------------------------------------------------
#psi4
#
memory 32 gb

molecule  {
-4 1
  P       -1.6778080    -0.0000010     0.0005490
  P        1.6778000     0.0000020     0.0005400
  O       -0.0070909    -0.0001905     0.4211991
  O       -2.3613630    -0.0003970     1.4096540
  O       -2.0007970    -1.2973530    -0.8037440
  O        2.3612970    -0.0008400     1.4096690
  O        2.0008330     1.2980780    -0.8025670
  O       -2.0007100     1.2978530    -0.8029660
  O        2.0007590    -1.2971630    -0.8040650
units angstrom
no_reorient  #important for SAPT in psi4, default
symmetry c1  #important for SAPT in psi4, default
}

set PROPERTIES_ORIGIN ["COM"]
properties('MP2/aug-cc-pvtz', properties = ['dipole'])
--------------------------------------------------------------------------

    Molecular point group: c1
  Charge       = -4
  Multiplicity = 1
  Basis Set: AUG-CC-PVTZ
    Blend: AUG-CC-PVTZ
  Basis Set: (AUG-CC-PVTZ AUX)
    Blend: AUG-CC-PVTZ-JKFIT

    Orbital Energies [Eh]
    ---------------------

    Doubly Occupied:

       1A    -79.443492     2A    -79.440932     3A    -19.916364
       4A    -19.877878     5A    -19.877861     6A    -19.877703
       7A    -19.876203     8A    -19.876185     9A    -19.875744
      10A     -6.953958    11A     -6.951544    12A     -4.852996
      13A     -4.851602    14A     -4.851536    15A     -4.850590
      16A     -4.849214    17A     -4.849147    18A     -0.721697
      19A     -0.689174    20A     -0.633525    21A     -0.609032
      22A     -0.607647    23A     -0.607338    24A     -0.605956
      25A     -0.149927    26A     -0.049362    27A      0.002521
      28A      0.034517    29A      0.035050    30A      0.057702
      31A      0.058549    32A      0.096664    33A      0.118583
      34A      0.125279    35A      0.149863    36A      0.150771
      37A      0.153110    38A      0.156253    39A      0.166751
      40A      0.190451    41A      0.190668    42A      0.207889
      43A      0.209605    44A      0.218188    45A      0.220046

  @DF-RHF Final Energy: -1205.32146761237482

   => Energetics <=

    Nuclear Repulsion Energy =            666.7207642452714254
    One-Electron Energy =               -3057.6761689921586367
    Two-Electron Energy =                1185.6339371345125073
    Total Energy =                      -1205.3214676123748177
  Basis Set: (AUG-CC-PVTZ AUX)
    Blend: AUG-CC-PVTZ-RI
    Molecular point group: c1

    Geometry (in Angstrom), charge = -4, multiplicity = 1:

       Center              X                  Y                   Z               Mass
    ------------   -----------------  -----------------  -----------------  -----------------
         P           -1.677156163009    -0.000000028458    -0.002144741686    30.973761998420
         P            1.678451836991     0.000002971542    -0.002153741686    30.973761998420
         O           -0.006439063009    -0.000189528458     0.418505358314    15.994914619570
         O           -2.360711163009    -0.000396028458     1.406960258314    15.994914619570
         O           -2.000145163009    -1.297352028458    -0.806437741686    15.994914619570
         O            2.361948836991    -0.000839028458     1.406975258314    15.994914619570
         O            2.001484836991     1.298078971542    -0.805260741686    15.994914619570
         O           -2.000058163009     1.297853971542    -0.805659741686    15.994914619570
         O            2.001410836991    -1.297162028458    -0.806758741686    15.994914619570

  Basis Set: AUG-CC-PVTZ
    Blend: AUG-CC-PVTZ
  Basis Set: (AUG-CC-PVTZ AUX)
    Blend: AUG-CC-PVTZ-JKFIT
	 Reference Energy          =   -1205.3214676123748177 [Eh]
	 Singles Energy            =      -0.0000000000000000 [Eh]
	 Same-Spin Energy          =      -0.6162923759666091 [Eh]
	 Opposite-Spin Energy      =      -1.6646655192472117 [Eh]
	 Correlation Energy        =      -2.2809578952138208 [Eh]
	 Total Energy              =   -1207.6024255075885776 [Eh]

	 ================> DF-SCS-MP2 Energies <==================
	-----------------------------------------------------------
	 SCS Same-Spin Scale       =       0.3333333333333333 [-]
	 SCS Opposite-Spin Scale   =       1.2000000000000000 [-]
	 SCS Same-Spin Energy      =      -0.2054307919888697 [Eh]
	 SCS Opposite-Spin Energy  =      -1.9975986230966540 [Eh]
	 SCS Correlation Energy    =      -2.2030294150855236 [Eh]
	 SCS Total Energy          =   -1207.5244970274602565 [Eh]
	-----------------------------------------------------------

  Dipole Moment: [D]
     X:     0.1111      Y:    -0.0001      Z:     0.2530     Total:     0.2763

*** Psi4 exiting successfully. Buy a developer a beer!
