                               Psi4 1.3.2 release

  ==> Input File <==

--------------------------------------------------------------------------
#psi4
#
memory 32 gb

molecule  {
-4 1
  P       -1.6778080    -0.0000010     0.0005490
  P        1.6778000     0.0000020     0.0005400
  O       -0.0000040    -0.0001820     0.3919770
  O       -2.4050086    -0.0004223     1.4996266
  O       -2.0007970    -1.2973530    -0.8037440
  O        2.3612970    -0.0008400     1.4096690
  O        2.0008330     1.2980780    -0.8025670
  O       -2.0007100     1.2978530    -0.8029660
  O        2.0007590    -1.2971630    -0.8040650
units angstrom
no_reorient  #important for SAPT in psi4, default
symmetry c1  #important for SAPT in psi4, default
}

set PROPERTIES_ORIGIN ["COM"]
properties('MP2/aug-cc-pvtz', properties = ['dipole'])
--------------------------------------------------------------------------

    Molecular point group: c1
  Charge       = -4
  Multiplicity = 1
  Basis Set: AUG-CC-PVTZ
    Blend: AUG-CC-PVTZ
  Basis Set: (AUG-CC-PVTZ AUX)
    Blend: AUG-CC-PVTZ-JKFIT

    Orbital Energies [Eh]
    ---------------------

    Doubly Occupied:

       1A    -79.458699     2A    -79.445864     3A    -19.922511
       4A    -19.885271     5A    -19.885253     6A    -19.884308
       7A    -19.879915     8A    -19.879221     9A    -19.879203
      10A     -6.967131    11A     -6.956358    12A     -4.866248
      13A     -4.864807    14A     -4.864506    15A     -4.855476
      16A     -4.853978    17A     -4.853916    18A     -0.724800
      19A     -0.687938    20A     -0.638981    21A     -0.615554
      22A     -0.610522    23A     -0.609726    24A     -0.587837
      25A     -0.159368    26A     -0.052266    27A      0.000015
      28A      0.031021    29A      0.031857    30A      0.056393
      31A      0.059067    32A      0.095059    33A      0.113823
      34A      0.125849    35A      0.148056    36A      0.149150
      37A      0.153413    38A      0.155167    39A      0.167092
      40A      0.186066    41A      0.190952    42A      0.203628
      43A      0.207584    44A      0.215129    45A      0.216731

  @DF-RHF Final Energy: -1205.31097401702959

   => Energetics <=

    Nuclear Repulsion Energy =            663.0023238140532840
    One-Electron Energy =               -3049.8593848892996903
    Two-Electron Energy =                1181.5460870582166990
    Total Energy =                      -1205.3109740170295936
  Basis Set: (AUG-CC-PVTZ AUX)
    Blend: AUG-CC-PVTZ-RI
    Molecular point group: c1

    Geometry (in Angstrom), charge = -4, multiplicity = 1:

       Center              X                  Y                   Z               Mass
    ------------   -----------------  -----------------  -----------------  -----------------
         P           -1.673793810021     0.000001516660    -0.007732047175    30.973761998420
         P            1.681814189979     0.000004516660    -0.007741047175    30.973761998420
         O            0.004010189979    -0.000179483340     0.383695952825    15.994914619570
         O           -2.400994410021    -0.000419783340     1.491345552825    15.994914619570
         O           -1.996782810021    -1.297350483340    -0.812025047175    15.994914619570
         O            2.365311189979    -0.000837483340     1.401387952825    15.994914619570
         O            2.004847189979     1.298080516660    -0.810848047175    15.994914619570
         O           -1.996695810021     1.297855516660    -0.811247047175    15.994914619570
         O            2.004773189979    -1.297160483340    -0.812346047175    15.994914619570

  Basis Set: AUG-CC-PVTZ
    Blend: AUG-CC-PVTZ
  Basis Set: (AUG-CC-PVTZ AUX)
    Blend: AUG-CC-PVTZ-JKFIT
	 Reference Energy          =   -1205.3109740170295936 [Eh]
	 Singles Energy            =      -0.0000000000000000 [Eh]
	 Same-Spin Energy          =      -0.6177295697024564 [Eh]
	 Opposite-Spin Energy      =      -1.6685428664629323 [Eh]
	 Correlation Energy        =      -2.2862724361653886 [Eh]
	 Total Energy              =   -1207.5972464531948845 [Eh]

	 ================> DF-SCS-MP2 Energies <==================
	-----------------------------------------------------------
	 SCS Same-Spin Scale       =       0.3333333333333333 [-]
	 SCS Opposite-Spin Scale   =       1.2000000000000000 [-]
	 SCS Same-Spin Energy      =      -0.2059098565674854 [Eh]
	 SCS Opposite-Spin Energy  =      -2.0022514397555184 [Eh]
	 SCS Correlation Energy    =      -2.2081612963230040 [Eh]
	 SCS Total Energy          =   -1207.5191353133525354 [Eh]
	-----------------------------------------------------------

  Dipole Moment: [D]
     X:     0.4989      Y:     0.0001      Z:    -0.4450     Total:     0.6686

*** Psi4 exiting successfully. Buy a developer a beer!
