                               Psi4 1.4a3.dev225

  ==> Input File <==

--------------------------------------------------------------------------
#psi4
#
memory 32 gb

molecule  {
-4 1
  P        1.5557560     0.0007770    -0.0111170
  P       -1.5567580    -0.0020400    -0.0113580
  O       -0.0454204    -0.0142768    -0.7003236
  O        2.3974980     0.5298310    -1.1968130
  O        1.8853550    -1.4649890     0.3558240
  O       -2.3799130    -0.6866630    -1.1280670
  O       -1.9249590     1.4878560     0.1848770
  O        1.5475870     0.9578490     1.2013440
  O       -1.5241940    -0.8076720     1.3055320
units angstrom
no_reorient  #important for SAPT in psi4, default
symmetry c1  #important for SAPT in psi4, default
}

set PROPERTIES_ORIGIN ["COM"]
properties('MP2/aug-cc-pvtz', properties = ['dipole'])
--------------------------------------------------------------------------

    Molecular point group: c1
  Charge       = -4
  Multiplicity = 1
  Basis Set: AUG-CC-PVTZ
    Blend: AUG-CC-PVTZ
  Basis Set: (AUG-CC-PVTZ AUX)
    Blend: AUG-CC-PVTZ-JKFIT

    Orbital Energies [Eh]
    ---------------------

    Doubly Occupied:

       1A    -79.422857     2A    -79.408233     3A    -19.905135
       4A    -19.871752     5A    -19.865492     6A    -19.860593
       7A    -19.860437     8A    -19.856389     9A    -19.852267
      10A     -6.935358    11A     -6.921907    12A     -4.834328
      13A     -4.833073    14A     -4.832860    15A     -4.820950
      16A     -4.819688    17A     -4.819500    18A     -0.724257
      19A     -0.682133    20A     -0.626271    21A     -0.605773
      22A     -0.600019    23A     -0.596656    24A     -0.592145
      25A     -0.133151    26A     -0.039309    27A      0.014018
      28A      0.037359    29A      0.040888    30A      0.067361
      31A      0.069050    32A      0.097495    33A      0.125302
      34A      0.140206    35A      0.156106    36A      0.158842
      37A      0.166546    38A      0.168273    39A      0.181376
      40A      0.201276    41A      0.204511    42A      0.217454
      43A      0.223908    44A      0.227841    45A      0.236642

  @DF-RHF Final Energy: -1205.31954996844115

   => Energetics <=

    Nuclear Repulsion Energy =            688.4682768956687369
    One-Electron Energy =               -3102.4034918348229439
    Two-Electron Energy =                1208.6156649707131692
    Total Energy =                      -1205.3195499684411516
  Basis Set: (AUG-CC-PVTZ AUX)
    Blend: AUG-CC-PVTZ-RI
    Molecular point group: c1

    Geometry (in Angstrom), charge = -4, multiplicity = 1:

       Center              X                  Y                   Z               Mass
    ------------   -----------------  -----------------  -----------------  -----------------
         P            1.559985463340     0.000823957692    -0.009171908106    30.973761998420
         P           -1.552528536660    -0.001993042308    -0.009412908106    30.973761998420
         O           -0.041190936660    -0.014229842308    -0.698378508106    15.994914619570
         O            2.401727463340     0.529877957692    -1.194867908106    15.994914619570
         O            1.889584463340    -1.464942042308     0.357769091894    15.994914619570
         O           -2.375683536660    -0.686616042308    -1.126121908106    15.994914619570
         O           -1.920729536660     1.487902957692     0.186822091894    15.994914619570
         O            1.551816463340     0.957895957692     1.203289091894    15.994914619570
         O           -1.519964536660    -0.807625042308     1.307477091894    15.994914619570

  Basis Set: AUG-CC-PVTZ
    Blend: AUG-CC-PVTZ
  Basis Set: (AUG-CC-PVTZ AUX)
    Blend: AUG-CC-PVTZ-JKFIT
	 Reference Energy          =   -1205.3195499684411516 [Eh]
	 Singles Energy            =      -0.0000000000000000 [Eh]
	 Same-Spin Energy          =      -0.6151579640393811 [Eh]
	 Opposite-Spin Energy      =      -1.6610248820008731 [Eh]
	 Correlation Energy        =      -2.2761828460402542 [Eh]
	 Total Energy              =   -1207.5957328144813800 [Eh]

	 ================> DF-SCS-MP2 Energies <==================
	-----------------------------------------------------------
	 SCS Same-Spin Scale       =       0.3333333333333333 [-]
	 SCS Opposite-Spin Scale   =       1.2000000000000000 [-]
	 SCS Same-Spin Energy      =      -0.2050526546797937 [Eh]
	 SCS Opposite-Spin Energy  =      -1.9932298584010475 [Eh]
	 SCS Correlation Energy    =      -2.1982825130808412 [Eh]
	 SCS Total Energy          =   -1207.5178324815219639 [Eh]
	-----------------------------------------------------------

  Dipole Moment: [D]
     X:     0.5796      Y:    -0.0349      Z:    -0.6965     Total:     0.9068

*** Psi4 exiting successfully. Buy a developer a beer!
