                               Psi4 1.3.2 release

  ==> Input File <==

--------------------------------------------------------------------------
#psi4
#
memory 32 gb

molecule  {
-4 1
  P       -1.6778080    -0.0000010     0.0005490
  P        1.6778000     0.0000020     0.0005400
  O       -0.0000040    -0.0001820     0.3919770
  O       -2.3177174    -0.0003717     1.3196814
  O       -2.0007970    -1.2973530    -0.8037440
  O        2.3612970    -0.0008400     1.4096690
  O        2.0008330     1.2980780    -0.8025670
  O       -2.0007100     1.2978530    -0.8029660
  O        2.0007590    -1.2971630    -0.8040650
units angstrom
no_reorient  #important for SAPT in psi4, default
symmetry c1  #important for SAPT in psi4, default
}

set PROPERTIES_ORIGIN ["COM"]
properties('MP2/aug-cc-pvtz', properties = ['dipole'])
--------------------------------------------------------------------------

    Molecular point group: c1
  Charge       = -4
  Multiplicity = 1
  Basis Set: AUG-CC-PVTZ
    Blend: AUG-CC-PVTZ
  Basis Set: (AUG-CC-PVTZ AUX)
    Blend: AUG-CC-PVTZ-JKFIT

    Orbital Energies [Eh]
    ---------------------

    Doubly Occupied:

       1A    -79.438568     2A    -79.422098     3A    -19.908922
       4A    -19.875318     5A    -19.873201     6A    -19.873183
       7A    -19.870227     8A    -19.867018     9A    -19.867000
      10A     -6.949074    11A     -6.936378    12A     -4.848106
      13A     -4.846786    14A     -4.846701    15A     -4.835232
      16A     -4.834522    17A     -4.833531    18A     -0.728153
      19A     -0.695159    20A     -0.633772    21A     -0.616870
      22A     -0.604622    23A     -0.604548    24A     -0.599469
      25A     -0.146648    26A     -0.045441    27A      0.002310
      28A      0.034936    29A      0.035046    30A      0.057592
      31A      0.057605    32A      0.100121    33A      0.120496
      34A      0.120544    35A      0.150093    36A      0.152421
      37A      0.155284    38A      0.157463    39A      0.168275
      40A      0.189777    41A      0.195832    42A      0.212422
      43A      0.213976    44A      0.221987    45A      0.224712

  @DF-RHF Final Energy: -1205.32102275954253

   => Energetics <=

    Nuclear Repulsion Energy =            671.6825136334438184
    One-Electron Energy =               -3067.9477605002566634
    Two-Electron Energy =                1190.9442241072704292
    Total Energy =                      -1205.3210227595425295
  Basis Set: (AUG-CC-PVTZ AUX)
    Blend: AUG-CC-PVTZ-RI
    Molecular point group: c1

    Geometry (in Angstrom), charge = -4, multiplicity = 1:

       Center              X                  Y                   Z               Mass
    ------------   -----------------  -----------------  -----------------  -----------------
         P           -1.681822099515    -0.000003137090     0.008817755768    30.973761998420
         P            1.673785900485    -0.000000137090     0.008808755768    30.973761998420
         O           -0.004018099515    -0.000184137090     0.400245755768    15.994914619570
         O           -2.321731499515    -0.000373837090     1.327950155768    15.994914619570
         O           -2.004811099515    -1.297355137090    -0.795475244232    15.994914619570
         O            2.357282900485    -0.000842137090     1.417937755768    15.994914619570
         O            1.996818900485     1.298075862910    -0.794298244232    15.994914619570
         O           -2.004724099515     1.297850862910    -0.794697244232    15.994914619570
         O            1.996744900485    -1.297165137090    -0.795796244232    15.994914619570

  Basis Set: AUG-CC-PVTZ
    Blend: AUG-CC-PVTZ
  Basis Set: (AUG-CC-PVTZ AUX)
    Blend: AUG-CC-PVTZ-JKFIT
	 Reference Energy          =   -1205.3210227595425295 [Eh]
	 Singles Energy            =      -0.0000000000000000 [Eh]
	 Same-Spin Energy          =      -0.6145250430274625 [Eh]
	 Opposite-Spin Energy      =      -1.6598991470121451 [Eh]
	 Correlation Energy        =      -2.2744241900396078 [Eh]
	 Total Energy              =   -1207.5954469495820831 [Eh]

	 ================> DF-SCS-MP2 Energies <==================
	-----------------------------------------------------------
	 SCS Same-Spin Scale       =       0.3333333333333333 [-]
	 SCS Opposite-Spin Scale   =       1.2000000000000000 [-]
	 SCS Same-Spin Energy      =      -0.2048416810091541 [Eh]
	 SCS Opposite-Spin Energy  =      -1.9918789764145741 [Eh]
	 SCS Correlation Energy    =      -2.1967206574237284 [Eh]
	 SCS Total Energy          =   -1207.5177434169663684 [Eh]
	-----------------------------------------------------------

  Dipole Moment: [D]
     X:    -0.4626      Y:    -0.0003      Z:     1.0172     Total:     1.1174

*** Psi4 exiting successfully. Buy a developer a beer!
