                               Psi4 1.3.2 release

  ==> Input File <==

--------------------------------------------------------------------------
#psi4
#
memory 32 gb

molecule  {
-4 1
  P       -1.6778080    -0.0000010     0.0005490
  P        1.6778000     0.0000020     0.0005400
  O       -0.0000040    -0.0001820     0.3919770
  O       -2.3613630    -0.0003970     1.4096540
  O       -2.0007970    -1.2973530    -0.8037440
  O        2.3612970    -0.0008400     1.4096690
  O        2.0008330     1.2980780    -0.8025670
  O       -1.9593185     1.1314863    -0.6999666
  O        2.0007590    -1.2971630    -0.8040650
units angstrom
no_reorient  #important for SAPT in psi4, default
symmetry c1  #important for SAPT in psi4, default
}

set PROPERTIES_ORIGIN ["COM"]
properties('MP2/aug-cc-pvtz', properties = ['dipole'])
--------------------------------------------------------------------------

    Molecular point group: c1
  Charge       = -4
  Multiplicity = 1
  Basis Set: AUG-CC-PVTZ
    Blend: AUG-CC-PVTZ
  Basis Set: (AUG-CC-PVTZ AUX)
    Blend: AUG-CC-PVTZ-JKFIT

    Orbital Energies [Eh]
    ---------------------

    Doubly Occupied:

       1A    -79.436701     2A    -79.398067     3A    -19.900810
       4A    -19.873911     5A    -19.872701     6A    -19.871427
       7A    -19.861622     8A    -19.860097     9A    -19.858189
      10A     -6.947129    11A     -6.919095    12A     -4.846125
      13A     -4.844869    14A     -4.844810    15A     -4.819067
      16A     -4.816431    17A     -4.815179    18A     -0.752299
      19A     -0.700278    20A     -0.639102    21A     -0.612613
      22A     -0.604255    23A     -0.602337    24A     -0.591874
      25A     -0.140805    26A     -0.043536    27A     -0.000227
      28A      0.029636    29A      0.033089    30A      0.055022
      31A      0.056122    32A      0.089405    33A      0.120167
      34A      0.128306    35A      0.147031    36A      0.150987
      37A      0.156177    38A      0.159190    39A      0.170344
      40A      0.191646    41A      0.198359    42A      0.213809
      43A      0.219904    44A      0.223189    45A      0.229833

  @DF-RHF Final Energy: -1205.29380216117147

   => Energetics <=

    Nuclear Repulsion Energy =            676.5512854964340477
    One-Electron Energy =               -3077.8874904068507021
    Two-Electron Energy =                1196.0424027492451842
    Total Energy =                      -1205.2938021611714703
  Basis Set: (AUG-CC-PVTZ AUX)
    Blend: AUG-CC-PVTZ-RI
    Molecular point group: c1

    Geometry (in Angstrom), charge = -4, multiplicity = 1:

       Center              X                  Y                   Z               Mass
    ------------   -----------------  -----------------  -----------------  -----------------
         P           -1.681614786895     0.015300159754    -0.008930139555    30.973761998420
         P            1.673993213105     0.015303159754    -0.008939139555    30.973761998420
         O           -0.003810786895     0.015119159754     0.382497860445    15.994914619570
         O           -2.365169786895     0.014904159754     1.400174860445    15.994914619570
         O           -2.004603786895    -1.282051840246    -0.813223139555    15.994914619570
         O            2.357490213105     0.014461159754     1.400189860445    15.994914619570
         O            1.997026213105     1.313379159754    -0.812046139555    15.994914619570
         O           -1.963125286895     1.146787459754    -0.709445739555    15.994914619570
         O            1.996952213105    -1.281861840246    -0.813544139555    15.994914619570

  Basis Set: AUG-CC-PVTZ
    Blend: AUG-CC-PVTZ
  Basis Set: (AUG-CC-PVTZ AUX)
    Blend: AUG-CC-PVTZ-JKFIT
	 Reference Energy          =   -1205.2938021611714703 [Eh]
	 Singles Energy            =      -0.0000000000000000 [Eh]
	 Same-Spin Energy          =      -0.6129164478718100 [Eh]
	 Opposite-Spin Energy      =      -1.6557416947744592 [Eh]
	 Correlation Energy        =      -2.2686581426462693 [Eh]
	 Total Energy              =   -1207.5624603038177156 [Eh]

	 ================> DF-SCS-MP2 Energies <==================
	-----------------------------------------------------------
	 SCS Same-Spin Scale       =       0.3333333333333333 [-]
	 SCS Opposite-Spin Scale   =       1.2000000000000000 [-]
	 SCS Same-Spin Energy      =      -0.2043054826239367 [Eh]
	 SCS Opposite-Spin Energy  =      -1.9868900337293509 [Eh]
	 SCS Correlation Energy    =      -2.1911955163532877 [Eh]
	 SCS Total Energy          =   -1207.4849976775246887 [Eh]
	-----------------------------------------------------------

  Dipole Moment: [D]
     X:    -0.4844      Y:     1.2122      Z:    -0.4553     Total:     1.3826

*** Psi4 exiting successfully. Buy a developer a beer!
