                               Psi4 1.3.2 release

  ==> Input File <==

--------------------------------------------------------------------------
#psi4
#
memory 32 gb

molecule  {
-4 1
  P       -1.6778080    -0.0000010     0.0005490
  P        1.6778000     0.0000020     0.0005400
  O       -0.0288304    -0.1582153     0.4739232
  O       -2.3613630    -0.0003970     1.4096540
  O       -2.0007970    -1.2973530    -0.8037440
  O        2.3612970    -0.0008400     1.4096690
  O        2.0008330     1.2980780    -0.8025670
  O       -2.0007100     1.2978530    -0.8029660
  O        2.0007590    -1.2971630    -0.8040650
units angstrom
no_reorient  #important for SAPT in psi4, default
symmetry c1  #important for SAPT in psi4, default
}

set PROPERTIES_ORIGIN ["COM"]
properties('MP2/aug-cc-pvtz', properties = ['dipole'])
--------------------------------------------------------------------------

    Molecular point group: c1
  Charge       = -4
  Multiplicity = 1
  Basis Set: AUG-CC-PVTZ
    Blend: AUG-CC-PVTZ
  Basis Set: (AUG-CC-PVTZ AUX)
    Blend: AUG-CC-PVTZ-JKFIT

    Orbital Energies [Eh]
    ---------------------

    Doubly Occupied:

       1A    -79.446910     2A    -79.437146     3A    -19.917170
       4A    -19.887129     5A    -19.881036     6A    -19.879151
       7A    -19.876745     8A    -19.871406     9A    -19.870024
      10A     -6.957335    11A     -6.948106    12A     -4.856289
      13A     -4.854937    14A     -4.854810    15A     -4.847081
      16A     -4.845815    17A     -4.845680    18A     -0.718227
      19A     -0.689881    20A     -0.631789    21A     -0.612825
      22A     -0.608469    23A     -0.606445    24A     -0.601841
      25A     -0.140840    26A     -0.051934    27A      0.003653
      28A      0.036584    29A      0.037613    30A      0.057514
      31A      0.058847    32A      0.093098    33A      0.117283
      34A      0.131073    35A      0.147544    36A      0.148817
      37A      0.154344    38A      0.157036    39A      0.168136
      40A      0.190286    41A      0.191501    42A      0.203725
      43A      0.214152    44A      0.215721    45A      0.222035

  @DF-RHF Final Energy: -1205.31386144777707

   => Energetics <=

    Nuclear Repulsion Energy =            665.5427245484103196
    One-Electron Energy =               -3055.3330482276742259
    Two-Electron Energy =                1184.4764622314869484
    Total Energy =                      -1205.3138614477770716
  Basis Set: (AUG-CC-PVTZ AUX)
    Blend: AUG-CC-PVTZ-RI
    Molecular point group: c1

    Geometry (in Angstrom), charge = -4, multiplicity = 1:

       Center              X                  Y                   Z               Mass
    ------------   -----------------  -----------------  -----------------  -----------------
         P           -1.675156751849     0.014533725707    -0.006993848333    30.973761998420
         P            1.680451248151     0.014536725707    -0.007002848333    30.973761998420
         O           -0.026179151849    -0.143680574293     0.466380351667    15.994914619570
         O           -2.358711751849     0.014137725707     1.402111151667    15.994914619570
         O           -1.998145751849    -1.282818274293    -0.811286848333    15.994914619570
         O            2.363948248151     0.013694725707     1.402126151667    15.994914619570
         O            2.003484248151     1.312612725707    -0.810109848333    15.994914619570
         O           -1.998058751849     1.312387725707    -0.810508848333    15.994914619570
         O            2.003410248151    -1.282628274293    -0.811607848333    15.994914619570

  Basis Set: AUG-CC-PVTZ
    Blend: AUG-CC-PVTZ
  Basis Set: (AUG-CC-PVTZ AUX)
    Blend: AUG-CC-PVTZ-JKFIT
	 Reference Energy          =   -1205.3138614477770716 [Eh]
	 Singles Energy            =      -0.0000000000000000 [Eh]
	 Same-Spin Energy          =      -0.6170574564142643 [Eh]
	 Opposite-Spin Energy      =      -1.6667177874741745 [Eh]
	 Correlation Energy        =      -2.2837752438884387 [Eh]
	 Total Energy              =   -1207.5976366916654570 [Eh]

	 ================> DF-SCS-MP2 Energies <==================
	-----------------------------------------------------------
	 SCS Same-Spin Scale       =       0.3333333333333333 [-]
	 SCS Opposite-Spin Scale   =       1.2000000000000000 [-]
	 SCS Same-Spin Energy      =      -0.2056858188047548 [Eh]
	 SCS Opposite-Spin Energy  =      -2.0000613449690094 [Eh]
	 SCS Correlation Energy    =      -2.2057471637737640 [Eh]
	 SCS Total Energy          =   -1207.5196086115508933 [Eh]
	-----------------------------------------------------------

  Dipole Moment: [D]
     X:     0.4264      Y:     0.1998      Z:     0.1770     Total:     0.5030

*** Psi4 exiting successfully. Buy a developer a beer!
