                               Psi4 1.3.2 release

  ==> Input File <==

--------------------------------------------------------------------------
#psi4
#
memory 32 gb

molecule  {
-4 1
  P       -1.6778080    -0.0000010     0.0005490
  P        1.6778000     0.0000020     0.0005400
  O        0.0055296     0.0525819     0.3636628
  O       -2.3613630    -0.0003970     1.4096540
  O       -2.0007970    -1.2973530    -0.8037440
  O        2.3612970    -0.0008400     1.4096690
  O        2.0008330     1.2980780    -0.8025670
  O       -2.0007100     1.2978530    -0.8029660
  O        2.0007590    -1.2971630    -0.8040650
units angstrom
no_reorient  #important for SAPT in psi4, default
symmetry c1  #important for SAPT in psi4, default
}

set PROPERTIES_ORIGIN ["COM"]
properties('MP2/aug-cc-pvtz', properties = ['dipole'])
--------------------------------------------------------------------------

    Molecular point group: c1
  Charge       = -4
  Multiplicity = 1
  Basis Set: AUG-CC-PVTZ
    Blend: AUG-CC-PVTZ
  Basis Set: (AUG-CC-PVTZ AUX)
    Blend: AUG-CC-PVTZ-JKFIT

    Orbital Energies [Eh]
    ---------------------

    Doubly Occupied:

       1A    -79.443381     2A    -79.441302     3A    -19.915280
       4A    -19.879317     5A    -19.877987     6A    -19.877751
       7A    -19.876649     8A    -19.874346     9A    -19.872968
      10A     -6.953783    11A     -6.951826    12A     -4.852886
      13A     -4.851450    14A     -4.851358    15A     -4.850937
      16A     -4.849512    17A     -4.849420    18A     -0.724060
      19A     -0.689014    20A     -0.634988    21A     -0.608792
      22A     -0.607430    23A     -0.607095    24A     -0.605644
      25A     -0.155384    26A     -0.047994    27A      0.001737
      28A      0.033002    29A      0.033741    30A      0.057981
      31A      0.058423    32A      0.099382    33A      0.116350
      34A      0.124207    35A      0.150430    36A      0.151195
      37A      0.153473    38A      0.156440    39A      0.165327
      40A      0.189380    41A      0.191765    42A      0.207744
      43A      0.211306    44A      0.218728    45A      0.220310

  @DF-RHF Final Energy: -1205.32333275908854

   => Energetics <=

    Nuclear Repulsion Energy =            667.4946516229750841
    One-Electron Energy =               -3059.2167029933102640
    Two-Electron Energy =                1186.3987186112465224
    Total Energy =                      -1205.3233327590885438
  Basis Set: (AUG-CC-PVTZ AUX)
    Blend: AUG-CC-PVTZ-RI
    Molecular point group: c1

    Geometry (in Angstrom), charge = -4, multiplicity = 1:

       Center              X                  Y                   Z               Mass
    ------------   -----------------  -----------------  -----------------  -----------------
         P           -1.678316887430    -0.004853577321     0.003146949490    30.973761998420
         P            1.677291112570    -0.004850577321     0.003137949490    30.973761998420
         O            0.005020712570     0.047729322679     0.366260749490    15.994914619570
         O           -2.361871887430    -0.005249577321     1.412251949490    15.994914619570
         O           -2.001305887430    -1.302205577321    -0.801146050510    15.994914619570
         O            2.360788112570    -0.005692577321     1.412266949490    15.994914619570
         O            2.000324112570     1.293225422679    -0.799969050510    15.994914619570
         O           -2.001218887430     1.293000422679    -0.800368050510    15.994914619570
         O            2.000250112570    -1.302015577321    -0.801467050510    15.994914619570

  Basis Set: AUG-CC-PVTZ
    Blend: AUG-CC-PVTZ
  Basis Set: (AUG-CC-PVTZ AUX)
    Blend: AUG-CC-PVTZ-JKFIT
	 Reference Energy          =   -1205.3233327590885438 [Eh]
	 Singles Energy            =      -0.0000000000000000 [Eh]
	 Same-Spin Energy          =      -0.6159983819612129 [Eh]
	 Opposite-Spin Energy      =      -1.6637421153483714 [Eh]
	 Correlation Energy        =      -2.2797404973095841 [Eh]
	 Total Energy              =   -1207.6030732563981474 [Eh]

	 ================> DF-SCS-MP2 Energies <==================
	-----------------------------------------------------------
	 SCS Same-Spin Scale       =       0.3333333333333333 [-]
	 SCS Opposite-Spin Scale   =       1.2000000000000000 [-]
	 SCS Same-Spin Energy      =      -0.2053327939870710 [Eh]
	 SCS Opposite-Spin Energy  =      -1.9964905384180456 [Eh]
	 SCS Correlation Energy    =      -2.2018233324051164 [Eh]
	 SCS Total Energy          =   -1207.5251560914937272 [Eh]
	-----------------------------------------------------------

  Dipole Moment: [D]
     X:    -0.0902      Y:    -0.0688      Z:     0.3285     Total:     0.3476

*** Psi4 exiting successfully. Buy a developer a beer!
