                               Psi4 1.3.2 release

  ==> Input File <==

--------------------------------------------------------------------------
#psi4
#
memory 32 gb

molecule  {
-4 1
  P       -1.6904466    -0.0000284     0.0593420
  P        1.6778000     0.0000020     0.0005400
  O       -0.0000040    -0.0001820     0.3919770
  O       -2.3613630    -0.0003970     1.4096540
  O       -2.0007970    -1.2973530    -0.8037440
  O        2.3612970    -0.0008400     1.4096690
  O        2.0008330     1.2980780    -0.8025670
  O       -2.0007100     1.2978530    -0.8029660
  O        2.0007590    -1.2971630    -0.8040650
units angstrom
no_reorient  #important for SAPT in psi4, default
symmetry c1  #important for SAPT in psi4, default
}

set PROPERTIES_ORIGIN ["COM"]
properties('MP2/aug-cc-pvtz', properties = ['dipole'])
--------------------------------------------------------------------------

    Molecular point group: c1
  Charge       = -4
  Multiplicity = 1
  Basis Set: AUG-CC-PVTZ
    Blend: AUG-CC-PVTZ
  Basis Set: (AUG-CC-PVTZ AUX)
    Blend: AUG-CC-PVTZ-JKFIT

    Orbital Energies [Eh]
    ---------------------

    Doubly Occupied:

       1A    -79.442209     2A    -79.441993     3A    -19.914289
       4A    -19.888249     5A    -19.877410     6A    -19.875403
       7A    -19.875385     8A    -19.871403     9A    -19.871385
      10A     -6.952841    11A     -6.952595    12A     -4.851889
      13A     -4.851694    14A     -4.850728    15A     -4.850259
      16A     -4.850198    17A     -4.850179    18A     -0.724703
      19A     -0.693146    20A     -0.637760    21A     -0.614401
      22A     -0.606721    23A     -0.606657    24A     -0.592093
      25A     -0.153492    26A     -0.048759    27A      0.000998
      28A      0.032162    29A      0.034803    30A      0.056077
      31A      0.058588    32A      0.100549    33A      0.118340
      34A      0.118396    35A      0.150795    36A      0.151707
      37A      0.154562    38A      0.156083    39A      0.166723
      40A      0.186551    41A      0.195481    42A      0.209001
      43A      0.212355    44A      0.219918    45A      0.222383

  @DF-RHF Final Energy: -1205.31857924016572

   => Energetics <=

    Nuclear Repulsion Energy =            666.9456905961446864
    One-Electron Energy =               -3058.1278005264548483
    Two-Electron Energy =                1185.8635306901444437
    Total Energy =                      -1205.3185792401657181
  Basis Set: (AUG-CC-PVTZ AUX)
    Blend: AUG-CC-PVTZ-RI
    Molecular point group: c1

    Geometry (in Angstrom), charge = -4, multiplicity = 1:

       Center              X                  Y                   Z               Mass
    ------------   -----------------  -----------------  -----------------  -----------------
         P           -1.688195616626    -0.000023330267     0.048864804797    30.973761998420
         P            1.680050983374     0.000007069733    -0.009937195203    30.973761998420
         O            0.002246983374    -0.000176930267     0.381499804797    15.994914619570
         O           -2.359112016626    -0.000391930267     1.399176804797    15.994914619570
         O           -1.998546016626    -1.297347930267    -0.814221195203    15.994914619570
         O            2.363547983374    -0.000834930267     1.399191804797    15.994914619570
         O            2.003083983374     1.298083069733    -0.813044195203    15.994914619570
         O           -1.998459016626     1.297858069733    -0.813443195203    15.994914619570
         O            2.003009983374    -1.297157930267    -0.814542195203    15.994914619570

  Basis Set: AUG-CC-PVTZ
    Blend: AUG-CC-PVTZ
  Basis Set: (AUG-CC-PVTZ AUX)
    Blend: AUG-CC-PVTZ-JKFIT
	 Reference Energy          =   -1205.3185792401657181 [Eh]
	 Singles Energy            =      -0.0000000000000000 [Eh]
	 Same-Spin Energy          =      -0.6161273965805645 [Eh]
	 Opposite-Spin Energy      =      -1.6640820241085570 [Eh]
	 Correlation Energy        =      -2.2802094206891215 [Eh]
	 Total Energy              =   -1207.5987886608547797 [Eh]

	 ================> DF-SCS-MP2 Energies <==================
	-----------------------------------------------------------
	 SCS Same-Spin Scale       =       0.3333333333333333 [-]
	 SCS Opposite-Spin Scale   =       1.2000000000000000 [-]
	 SCS Same-Spin Energy      =      -0.2053757988601881 [Eh]
	 SCS Opposite-Spin Energy  =      -1.9968984289302683 [Eh]
	 SCS Correlation Energy    =      -2.2022742277904563 [Eh]
	 SCS Total Energy          =   -1207.5208534679561581 [Eh]
	-----------------------------------------------------------

  Dipole Moment: [D]
     X:    -0.1495      Y:    -0.0005      Z:     1.1578     Total:     1.1674

*** Psi4 exiting successfully. Buy a developer a beer!
