                               Psi4 1.3.2 release

  ==> Input File <==

--------------------------------------------------------------------------
#psi4
#
memory 32 gb

molecule  {
-4 1
  P       -1.6631253     0.0000262    -0.0577671
  P        1.6778000     0.0000020     0.0005400
  O       -0.0000040    -0.0001820     0.3919770
  O       -2.3613630    -0.0003970     1.4096540
  O       -2.0007970    -1.2973530    -0.8037440
  O        2.3612970    -0.0008400     1.4096690
  O        2.0008330     1.2980780    -0.8025670
  O       -2.0007100     1.2978530    -0.8029660
  O        2.0007590    -1.2971630    -0.8040650
units angstrom
no_reorient  #important for SAPT in psi4, default
symmetry c1  #important for SAPT in psi4, default
}

set PROPERTIES_ORIGIN ["COM"]
properties('MP2/aug-cc-pvtz', properties = ['dipole'])
--------------------------------------------------------------------------

    Molecular point group: c1
  Charge       = -4
  Multiplicity = 1
  Basis Set: AUG-CC-PVTZ
    Blend: AUG-CC-PVTZ
  Basis Set: (AUG-CC-PVTZ AUX)
    Blend: AUG-CC-PVTZ-JKFIT

    Orbital Energies [Eh]
    ---------------------

    Doubly Occupied:

       1A    -79.442641     2A    -79.442378     3A    -19.918056
       4A    -19.881572     5A    -19.881554     6A    -19.878074
       7A    -19.877336     8A    -19.877317     9A    -19.867496
      10A     -6.953251    11A     -6.953203    12A     -4.852308
      13A     -4.852212    14A     -4.850957    15A     -4.850915
      16A     -4.850847    17A     -4.850697    18A     -0.724933
      19A     -0.691879    20A     -0.638295    21A     -0.623005
      22A     -0.608731    23A     -0.607873    24A     -0.585434
      25A     -0.153084    26A     -0.050176    27A      0.000577
      28A      0.031474    29A      0.034393    30A      0.054951
      31A      0.060057    32A      0.093995    33A      0.114617
      34A      0.127535    35A      0.148045    36A      0.149905
      37A      0.151468    38A      0.155617    39A      0.169430
      40A      0.185140    41A      0.194736    42A      0.204915
      43A      0.214295    44A      0.218367    45A      0.222635

  @DF-RHF Final Energy: -1205.31877739102060

   => Energetics <=

    Nuclear Repulsion Energy =            667.3897061330599172
    One-Electron Energy =               -3058.9528275028001190
    Two-Electron Energy =                1186.2443439787195985
    Total Energy =                      -1205.3187773910206033
  Basis Set: (AUG-CC-PVTZ AUX)
    Blend: AUG-CC-PVTZ-RI
    Molecular point group: c1

    Geometry (in Angstrom), charge = -4, multiplicity = 1:

       Center              X                  Y                   Z               Mass
    ------------   -----------------  -----------------  -----------------  -----------------
         P           -1.665740247684     0.000021545458    -0.047387132226    30.973761998420
         P            1.675185052316    -0.000002654542     0.010919967774    30.973761998420
         O           -0.002618947684    -0.000186654542     0.402356967774    15.994914619570
         O           -2.363977947684    -0.000401654542     1.420033967774    15.994914619570
         O           -2.003411947684    -1.297357654542    -0.793364032226    15.994914619570
         O            2.358682052316    -0.000844654542     1.420048967774    15.994914619570
         O            1.998218052316     1.298073345458    -0.792187032226    15.994914619570
         O           -2.003324947684     1.297848345458    -0.792586032226    15.994914619570
         O            1.998144052316    -1.297167654542    -0.793685032226    15.994914619570

  Basis Set: AUG-CC-PVTZ
    Blend: AUG-CC-PVTZ
  Basis Set: (AUG-CC-PVTZ AUX)
    Blend: AUG-CC-PVTZ-JKFIT
	 Reference Energy          =   -1205.3187773910206033 [Eh]
	 Singles Energy            =      -0.0000000000000000 [Eh]
	 Same-Spin Energy          =      -0.6163486679094667 [Eh]
	 Opposite-Spin Energy      =      -1.6647769628389892 [Eh]
	 Correlation Energy        =      -2.2811256307484560 [Eh]
	 Total Energy              =   -1207.5999030217690233 [Eh]

	 ================> DF-SCS-MP2 Energies <==================
	-----------------------------------------------------------
	 SCS Same-Spin Scale       =       0.3333333333333333 [-]
	 SCS Opposite-Spin Scale   =       1.2000000000000000 [-]
	 SCS Same-Spin Energy      =      -0.2054495559698222 [Eh]
	 SCS Opposite-Spin Energy  =      -1.9977323554067870 [Eh]
	 SCS Correlation Energy    =      -2.2031819113766091 [Eh]
	 SCS Total Energy          =   -1207.5219593023971356 [Eh]
	-----------------------------------------------------------

  Dipole Moment: [D]
     X:     0.2660      Y:     0.0003      Z:    -0.5936     Total:     0.6505

*** Psi4 exiting successfully. Buy a developer a beer!
