                               Psi4 1.3.2 release

  ==> Input File <==

--------------------------------------------------------------------------
#psi4
#
memory 32 gb

molecule  {
0 1
  O       -0.0525357     0.1852228    -0.0000030
  C        1.1784130    -0.5251360    -0.0000050
  C       -1.1784630    -0.5251780    -0.0000060
  C        2.3664400     0.4132380     0.0000090
  C       -2.3664280     0.4132520     0.0000040
  H        1.1945630    -1.1779900     0.8871400
  H        1.1945690    -1.1779700    -0.8871650
  H       -1.1945520    -1.1779740    -0.8871710
  H       -1.1945470    -1.1779890     0.8871480
  H        3.3031730    -0.1515840     0.0000040
  H        2.3407260     1.0507680    -0.8862060
  H        2.3407210     1.0507470     0.8862380
  H       -3.3032220    -0.1514730    -0.0000030
  H       -2.3406640     1.0507570     0.8862330
  H       -2.3406620     1.0507780    -0.8862100
units angstrom
no_reorient  #important for SAPT in psi4, default
symmetry c1  #important for SAPT in psi4, default
}

set PROPERTIES_ORIGIN ["COM"]
properties('MP2/aug-cc-pvtz', properties = ['dipole'])
--------------------------------------------------------------------------

    Molecular point group: c1
  Charge       = 0
  Multiplicity = 1
  Basis Set: AUG-CC-PVTZ
    Blend: AUG-CC-PVTZ
  Basis Set: (AUG-CC-PVTZ AUX)
    Blend: AUG-CC-PVTZ-JKFIT

    Orbital Energies [Eh]
    ---------------------

    Doubly Occupied:

       1A    -20.546037     2A    -11.277105     3A    -11.263372
       4A    -11.217340     5A    -11.208232     6A     -1.395378
       7A     -1.046906     8A     -0.980798     9A     -0.850618
      10A     -0.820270    11A     -0.684160    12A     -0.670532
      13A     -0.607063    14A     -0.604582    15A     -0.549627
      16A     -0.532031    17A     -0.522801    18A     -0.502571
      19A     -0.486190    20A     -0.457026    21A     -0.408586

  @DF-RHF Final Energy:  -232.23096478510243

   => Energetics <=

    Nuclear Repulsion Energy =            191.2733719982136051
    One-Electron Energy =                -693.7462211548124742
    Two-Electron Energy =                 270.2418843714964396
    Total Energy =                       -232.2309647851024010
  Basis Set: (AUG-CC-PVTZ AUX)
    Blend: AUG-CC-PVTZ-RI
    Molecular point group: c1

    Geometry (in Angstrom), charge = 0, multiplicity = 1:

       Center              X                  Y                   Z               Mass
    ------------   -----------------  -----------------  -----------------  -----------------
         O           -0.041186728817     0.192533794572    -0.000002785048    15.994914619570
         C            1.189761971183    -0.517825005428    -0.000004785048    12.000000000000
         C           -1.167114028817    -0.517867005428    -0.000005785048    12.000000000000
         C            2.377788971183     0.420548994572     0.000009214952    12.000000000000
         C           -2.355079028817     0.420562994572     0.000004214952    12.000000000000
         H            1.205911971183    -1.170679005428     0.887140214952     1.007825032230
         H            1.205917971183    -1.170659005428    -0.887164785048     1.007825032230
         H           -1.183203028817    -1.170663005428    -0.887170785048     1.007825032230
         H           -1.183198028817    -1.170678005428     0.887148214952     1.007825032230
         H            3.314521971183    -0.144273005428     0.000004214952     1.007825032230
         H            2.352074971183     1.058078994572    -0.886205785048     1.007825032230
         H            2.352069971183     1.058057994572     0.886238214952     1.007825032230
         H           -3.291873028817    -0.144162005428    -0.000002785048     1.007825032230
         H           -2.329315028817     1.058067994572     0.886233214952     1.007825032230
         H           -2.329313028817     1.058088994572    -0.886209785048     1.007825032230

  Basis Set: AUG-CC-PVTZ
    Blend: AUG-CC-PVTZ
  Basis Set: (AUG-CC-PVTZ AUX)
    Blend: AUG-CC-PVTZ-JKFIT
	 Reference Energy          =    -232.2309647851024295 [Eh]
	 Singles Energy            =      -0.0000000000000000 [Eh]
	 Same-Spin Energy          =      -0.2298816533922402 [Eh]
	 Opposite-Spin Energy      =      -0.8208940383604658 [Eh]
	 Correlation Energy        =      -1.0507756917527060 [Eh]
	 Total Energy              =    -233.2817404768551341 [Eh]

	 ================> DF-SCS-MP2 Energies <==================
	-----------------------------------------------------------
	 SCS Same-Spin Scale       =       0.3333333333333333 [-]
	 SCS Opposite-Spin Scale   =       1.2000000000000000 [-]
	 SCS Same-Spin Energy      =      -0.0766272177974134 [Eh]
	 SCS Opposite-Spin Energy  =      -0.9850728460325590 [Eh]
	 SCS Correlation Energy    =      -1.0617000638299723 [Eh]
	 SCS Total Energy          =    -233.2926648489323895 [Eh]
	-----------------------------------------------------------

  Dipole Moment: [D]
     X:     0.3904      Y:    -0.9153      Z:    -0.0000     Total:     0.9951

*** Psi4 exiting successfully. Buy a developer a beer!
