                               Psi4 1.3.2 release

  ==> Input File <==

--------------------------------------------------------------------------
#psi4
#
memory 32 gb

molecule  {
0 1
  O        0.0000150     0.2693590    -0.0000020
  C        1.1920994    -0.5044491    -0.0000049
  C       -1.1784630    -0.5251780    -0.0000060
  C        2.3664400     0.4132380     0.0000090
  C       -2.3664280     0.4132520     0.0000040
  H        1.1945630    -1.1779900     0.8871400
  H        1.1945690    -1.1779700    -0.8871650
  H       -1.1945520    -1.1779740    -0.8871710
  H       -1.1945470    -1.1779890     0.8871480
  H        3.3031730    -0.1515840     0.0000040
  H        2.3407260     1.0507680    -0.8862060
  H        2.3407210     1.0507470     0.8862380
  H       -3.3032220    -0.1514730    -0.0000030
  H       -2.3406640     1.0507570     0.8862330
  H       -2.3406620     1.0507780    -0.8862100
units angstrom
no_reorient  #important for SAPT in psi4, default
symmetry c1  #important for SAPT in psi4, default
}

set PROPERTIES_ORIGIN ["COM"]
properties('MP2/aug-cc-pvtz', properties = ['dipole'])
--------------------------------------------------------------------------

    Molecular point group: c1
  Charge       = 0
  Multiplicity = 1
  Basis Set: AUG-CC-PVTZ
    Blend: AUG-CC-PVTZ
  Basis Set: (AUG-CC-PVTZ AUX)
    Blend: AUG-CC-PVTZ-JKFIT

    Orbital Energies [Eh]
    ---------------------

    Doubly Occupied:

       1A    -20.550109     2A    -11.272979     3A    -11.272036
       4A    -11.211570     5A    -11.211142     6A     -1.366724
       7A     -1.042807     8A     -0.984093     9A     -0.837560
      10A     -0.823663    11A     -0.671675    12A     -0.661112
      13A     -0.603215    14A     -0.595835    15A     -0.549298
      16A     -0.527868    17A     -0.519160    18A     -0.495152
      19A     -0.482272    20A     -0.471697    21A     -0.416313

  @DF-RHF Final Energy:  -232.23338180802068

   => Energetics <=

    Nuclear Repulsion Energy =            190.0354306684073720
    One-Electron Energy =                -691.4050645232742909
    Two-Electron Energy =                 269.1362520468462662
    Total Energy =                       -232.2333818080206811
  Basis Set: (AUG-CC-PVTZ AUX)
    Blend: AUG-CC-PVTZ-RI
    Molecular point group: c1

    Geometry (in Angstrom), charge = 0, multiplicity = 1:

       Center              X                  Y                   Z               Mass
    ------------   -----------------  -----------------  -----------------  -----------------
         O           -0.002200735557     0.255150809633    -0.000002017183    15.994914619570
         C            1.189883664443    -0.518657290367    -0.000004917183    12.000000000000
         C           -1.180678735557    -0.539386190367    -0.000006017183    12.000000000000
         C            2.364224264443     0.399029809633     0.000008982817    12.000000000000
         C           -2.368643735557     0.399043809633     0.000003982817    12.000000000000
         H            1.192347264443    -1.192198190367     0.887139982817     1.007825032230
         H            1.192353264443    -1.192178190367    -0.887165017183     1.007825032230
         H           -1.196767735557    -1.192182190367    -0.887171017183     1.007825032230
         H           -1.196762735557    -1.192197190367     0.887147982817     1.007825032230
         H            3.300957264443    -0.165792190367     0.000003982817     1.007825032230
         H            2.338510264443     1.036559809633    -0.886206017183     1.007825032230
         H            2.338505264443     1.036538809633     0.886237982817     1.007825032230
         H           -3.305437735557    -0.165681190367    -0.000003017183     1.007825032230
         H           -2.342879735557     1.036548809633     0.886232982817     1.007825032230
         H           -2.342877735557     1.036569809633    -0.886210017183     1.007825032230

  Basis Set: AUG-CC-PVTZ
    Blend: AUG-CC-PVTZ
  Basis Set: (AUG-CC-PVTZ AUX)
    Blend: AUG-CC-PVTZ-JKFIT
	 Reference Energy          =    -232.2333818080206811 [Eh]
	 Singles Energy            =      -0.0000000000000000 [Eh]
	 Same-Spin Energy          =      -0.2304522481249707 [Eh]
	 Opposite-Spin Energy      =      -0.8233633620378751 [Eh]
	 Correlation Energy        =      -1.0538156101628458 [Eh]
	 Total Energy              =    -233.2871974181835242 [Eh]

	 ================> DF-SCS-MP2 Energies <==================
	-----------------------------------------------------------
	 SCS Same-Spin Scale       =       0.3333333333333333 [-]
	 SCS Opposite-Spin Scale   =       1.2000000000000000 [-]
	 SCS Same-Spin Energy      =      -0.0768174160416569 [Eh]
	 SCS Opposite-Spin Energy  =      -0.9880360344454501 [Eh]
	 SCS Correlation Energy    =      -1.0648534504871070 [Eh]
	 SCS Total Energy          =    -233.2982352585077876 [Eh]
	-----------------------------------------------------------

  Dipole Moment: [D]
     X:     0.0264      Y:    -1.1384      Z:    -0.0000     Total:     1.1387

*** Psi4 exiting successfully. Buy a developer a beer!
