                               Psi4 1.4a3.dev225

  ==> Input File <==

--------------------------------------------------------------------------
#psi4
#
memory 32 gb

molecule  {
0 1
  O        0.0000020    -0.2691450    -0.0000020
  C        1.1785260     0.5252810     0.0000050
  C       -1.1785320     0.5252840     0.0000070
  C        2.3507198    -0.4009682    -0.0000068
  C       -2.3664110    -0.4133700    -0.0000030
  H        1.1947970     1.1780560    -0.8871580
  H        1.1948000     1.1780360     0.8871820
  H       -1.1947990     1.1780360     0.8871840
  H       -1.1947990     1.1780550    -0.8871570
  H        3.3033530     0.1510230    -0.0000020
  H        2.3404690    -1.0510140     0.8861510
  H        2.3404660    -1.0509930    -0.8861810
  H       -3.3033580     0.1510100     0.0000040
  H       -2.3404590    -1.0509950    -0.8861760
  H       -2.3404580    -1.0510150     0.8861560
units angstrom
no_reorient  #important for SAPT in psi4, default
symmetry c1  #important for SAPT in psi4, default
}

set PROPERTIES_ORIGIN ["COM"]
properties('MP2/aug-cc-pvtz', properties = ['dipole'])
--------------------------------------------------------------------------

    Molecular point group: c1
  Charge       = 0
  Multiplicity = 1
  Basis Set: AUG-CC-PVTZ
    Blend: AUG-CC-PVTZ
  Basis Set: (AUG-CC-PVTZ AUX)
    Blend: AUG-CC-PVTZ-JKFIT

    Orbital Energies [Eh]
    ---------------------

    Doubly Occupied:

       1A    -20.550811     2A    -11.271791     3A    -11.270944
       4A    -11.212245     5A    -11.211469     6A     -1.367715
       7A     -1.042017     8A     -0.982534     9A     -0.836741
      10A     -0.826007    11A     -0.673580    12A     -0.661523
      13A     -0.603483    14A     -0.595971    15A     -0.546766
      16A     -0.525885    17A     -0.517491    18A     -0.492702
      19A     -0.483197    20A     -0.473792    21A     -0.418861

  @DF-RHF Final Energy:  -232.23353912534060

   => Energetics <=

    Nuclear Repulsion Energy =            190.1945122672073865
    One-Electron Energy =                -691.7250553893854885
    Two-Electron Energy =                 269.2970039968374749
    Total Energy =                       -232.2335391253405987
  Basis Set: (AUG-CC-PVTZ AUX)
    Blend: AUG-CC-PVTZ-RI
    Molecular point group: c1

    Geometry (in Angstrom), charge = 0, multiplicity = 1:

       Center              X                  Y                   Z               Mass
    ------------   -----------------  -----------------  -----------------  -----------------
         O            0.002544382473    -0.260320065052    -0.000001965354    15.994914619570
         C            1.181068382473     0.534105934948     0.000005034646    12.000000000000
         C           -1.175989617527     0.534108934948     0.000007034646    12.000000000000
         C            2.353262182473    -0.392143265052    -0.000006765354    12.000000000000
         C           -2.363868617527    -0.404545065052    -0.000002965354    12.000000000000
         H            1.197339382473     1.186880934948    -0.887157965354     1.007825032230
         H            1.197342382473     1.186860934948     0.887182034646     1.007825032230
         H           -1.192256617527     1.186860934948     0.887184034646     1.007825032230
         H           -1.192256617527     1.186879934948    -0.887156965354     1.007825032230
         H            3.305895382473     0.159847934948    -0.000001965354     1.007825032230
         H            2.343011382473    -1.042189065052     0.886151034646     1.007825032230
         H            2.343008382473    -1.042168065052    -0.886180965354     1.007825032230
         H           -3.300815617527     0.159834934948     0.000004034646     1.007825032230
         H           -2.337916617527    -1.042170065052    -0.886175965354     1.007825032230
         H           -2.337915617527    -1.042190065052     0.886156034646     1.007825032230

  Basis Set: AUG-CC-PVTZ
    Blend: AUG-CC-PVTZ
  Basis Set: (AUG-CC-PVTZ AUX)
    Blend: AUG-CC-PVTZ-JKFIT
	 Reference Energy          =    -232.2335391253405987 [Eh]
	 Singles Energy            =      -0.0000000000000000 [Eh]
	 Same-Spin Energy          =      -0.2304608943090141 [Eh]
	 Opposite-Spin Energy      =      -0.8234527130387175 [Eh]
	 Correlation Energy        =      -1.0539136073477315 [Eh]
	 Total Energy              =    -233.2874527326883367 [Eh]

	 ================> DF-SCS-MP2 Energies <==================
	-----------------------------------------------------------
	 SCS Same-Spin Scale       =       0.3333333333333333 [-]
	 SCS Opposite-Spin Scale   =       1.2000000000000000 [-]
	 SCS Same-Spin Energy      =      -0.0768202981030047 [Eh]
	 SCS Opposite-Spin Energy  =      -0.9881432556464609 [Eh]
	 SCS Correlation Energy    =      -1.0649635537494655 [Eh]
	 SCS Total Energy          =    -233.2985026790900633 [Eh]
	-----------------------------------------------------------

  Dipole Moment: [D]
     X:     0.0076      Y:     1.1707      Z:     0.0000     Total:     1.1707

*** Psi4 exiting successfully. Buy a developer a beer!
