                               Psi4 1.3.2 release

  ==> Input File <==

--------------------------------------------------------------------------
#psi4
#
memory 32 gb

molecule  {
0 1
  O        0.0000150     0.2693590    -0.0000020
  C        1.0954980    -0.4692334    -0.0000048
  C       -1.1784630    -0.5251780    -0.0000060
  C        2.3664400     0.4132380     0.0000090
  C       -2.3664280     0.4132520     0.0000040
  H        1.1945630    -1.1779900     0.8871400
  H        1.1945690    -1.1779700    -0.8871650
  H       -1.1945520    -1.1779740    -0.8871710
  H       -1.1945470    -1.1779890     0.8871480
  H        3.3031730    -0.1515840     0.0000040
  H        2.3407260     1.0507680    -0.8862060
  H        2.3407210     1.0507470     0.8862380
  H       -3.3032220    -0.1514730    -0.0000030
  H       -2.3406640     1.0507570     0.8862330
  H       -2.3406620     1.0507780    -0.8862100
units angstrom
no_reorient  #important for SAPT in psi4, default
symmetry c1  #important for SAPT in psi4, default
}

set PROPERTIES_ORIGIN ["COM"]
properties('MP2/aug-cc-pvtz', properties = ['dipole'])
--------------------------------------------------------------------------

    Molecular point group: c1
  Charge       = 0
  Multiplicity = 1
  Basis Set: AUG-CC-PVTZ
    Blend: AUG-CC-PVTZ
  Basis Set: (AUG-CC-PVTZ AUX)
    Blend: AUG-CC-PVTZ-JKFIT

    Orbital Energies [Eh]
    ---------------------

    Doubly Occupied:

       1A    -20.560678     2A    -11.278735     3A    -11.274106
       4A    -11.215845     5A    -11.209288     6A     -1.409010
       7A     -1.043635     8A     -0.976680     9A     -0.847195
      10A     -0.822748    11A     -0.682984    12A     -0.678047
      13A     -0.610410    14A     -0.598351    15A     -0.549348
      16A     -0.531981    17A     -0.524058    18A     -0.498698
      19A     -0.482200    20A     -0.458331    21A     -0.411660

  @DF-RHF Final Energy:  -232.22578188546188

   => Energetics <=

    Nuclear Repulsion Energy =            191.3068869960153506
    One-Electron Energy =                -693.7373630075079518
    Two-Electron Energy =                 270.2046941260307449
    Total Energy =                       -232.2257818854618563
  Basis Set: (AUG-CC-PVTZ AUX)
    Blend: AUG-CC-PVTZ-RI
    Molecular point group: c1

    Geometry (in Angstrom), charge = 0, multiplicity = 1:

       Center              X                  Y                   Z               Mass
    ------------   -----------------  -----------------  -----------------  -----------------
         O            0.013448883316     0.249445796214    -0.000002033383    15.994914619570
         C            1.108931883316    -0.489146603786    -0.000004833383    12.000000000000
         C           -1.165029116684    -0.545091203786    -0.000006033383    12.000000000000
         C            2.379873883316     0.393324796214     0.000008966617    12.000000000000
         C           -2.352994116684     0.393338796214     0.000003966617    12.000000000000
         H            1.207996883316    -1.197903203786     0.887139966617     1.007825032230
         H            1.208002883316    -1.197883203786    -0.887165033383     1.007825032230
         H           -1.181118116684    -1.197887203786    -0.887171033383     1.007825032230
         H           -1.181113116684    -1.197902203786     0.887147966617     1.007825032230
         H            3.316606883316    -0.171497203786     0.000003966617     1.007825032230
         H            2.354159883316     1.030854796214    -0.886206033383     1.007825032230
         H            2.354154883316     1.030833796214     0.886237966617     1.007825032230
         H           -3.289788116684    -0.171386203786    -0.000003033383     1.007825032230
         H           -2.327230116684     1.030843796214     0.886232966617     1.007825032230
         H           -2.327228116684     1.030864796214    -0.886210033383     1.007825032230

  Basis Set: AUG-CC-PVTZ
    Blend: AUG-CC-PVTZ
  Basis Set: (AUG-CC-PVTZ AUX)
    Blend: AUG-CC-PVTZ-JKFIT
	 Reference Energy          =    -232.2257818854618847 [Eh]
	 Singles Energy            =      -0.0000000000000000 [Eh]
	 Same-Spin Energy          =      -0.2303828287058428 [Eh]
	 Opposite-Spin Energy      =      -0.8222953339420487 [Eh]
	 Correlation Energy        =      -1.0526781626478916 [Eh]
	 Total Energy              =    -233.2784600481097641 [Eh]

	 ================> DF-SCS-MP2 Energies <==================
	-----------------------------------------------------------
	 SCS Same-Spin Scale       =       0.3333333333333333 [-]
	 SCS Opposite-Spin Scale   =       1.2000000000000000 [-]
	 SCS Same-Spin Energy      =      -0.0767942762352809 [Eh]
	 SCS Opposite-Spin Energy  =      -0.9867544007304584 [Eh]
	 SCS Correlation Energy    =      -1.0635486769657394 [Eh]
	 SCS Total Energy          =    -233.2893305624276366 [Eh]
	-----------------------------------------------------------

  Dipole Moment: [D]
     X:    -0.4422      Y:    -0.9873      Z:    -0.0000     Total:     1.0818

*** Psi4 exiting successfully. Buy a developer a beer!
