                               Psi4 1.3.2 release

  ==> Input File <==

--------------------------------------------------------------------------
#psi4
#
memory 32 gb

molecule  {
0 1
  O       -0.0765770     0.1418305    -0.0000036
  C        1.1784130    -0.5251360    -0.0000050
  C       -1.1784630    -0.5251780    -0.0000060
  C        2.3664400     0.4132380     0.0000090
  C       -2.3664280     0.4132520     0.0000040
  H        1.1945630    -1.1779900     0.8871400
  H        1.1945690    -1.1779700    -0.8871650
  H       -1.1945520    -1.1779740    -0.8871710
  H       -1.1945470    -1.1779890     0.8871480
  H        3.3031730    -0.1515840     0.0000040
  H        2.3407260     1.0507680    -0.8862060
  H        2.3407210     1.0507470     0.8862380
  H       -3.3032220    -0.1514730    -0.0000030
  H       -2.3406640     1.0507570     0.8862330
  H       -2.3406620     1.0507780    -0.8862100
units angstrom
no_reorient  #important for SAPT in psi4, default
symmetry c1  #important for SAPT in psi4, default
}

set PROPERTIES_ORIGIN ["COM"]
properties('MP2/aug-cc-pvtz', properties = ['dipole'])
--------------------------------------------------------------------------

    Molecular point group: c1
  Charge       = 0
  Multiplicity = 1
  Basis Set: AUG-CC-PVTZ
    Blend: AUG-CC-PVTZ
  Basis Set: (AUG-CC-PVTZ AUX)
    Blend: AUG-CC-PVTZ-JKFIT

    Orbital Energies [Eh]
    ---------------------

    Doubly Occupied:

       1A    -20.543388     2A    -11.280448     3A    -11.259535
       4A    -11.220489     5A    -11.206527     6A     -1.411705
       7A     -1.051199     8A     -0.980414     9A     -0.858273
      10A     -0.817126    11A     -0.691023    12A     -0.675173
      13A     -0.614333    14A     -0.605972    15A     -0.551317
      16A     -0.533835    17A     -0.524995    18A     -0.507904
      19A     -0.487487    20A     -0.447431    21A     -0.402082

  @DF-RHF Final Energy:  -232.22237849934135

   => Energetics <=

    Nuclear Repulsion Energy =            191.9785439362313753
    One-Electron Energy =                -695.0605319810482570
    Two-Electron Energy =                 270.8596095454755073
    Total Energy =                       -232.2223784993413460
  Basis Set: (AUG-CC-PVTZ AUX)
    Blend: AUG-CC-PVTZ-RI
    Molecular point group: c1

    Geometry (in Angstrom), charge = 0, multiplicity = 1:

       Center              X                  Y                   Z               Mass
    ------------   -----------------  -----------------  -----------------  -----------------
         O           -0.060036694801     0.158511367375    -0.000003255488    15.994914619570
         C            1.194953305199    -0.508455132625    -0.000004655488    12.000000000000
         C           -1.161922694801    -0.508497132625    -0.000005655488    12.000000000000
         C            2.382980305199     0.429918867375     0.000009344512    12.000000000000
         C           -2.349887694801     0.429932867375     0.000004344512    12.000000000000
         H            1.211103305199    -1.161309132625     0.887140344512     1.007825032230
         H            1.211109305199    -1.161289132625    -0.887164655488     1.007825032230
         H           -1.178011694801    -1.161293132625    -0.887170655488     1.007825032230
         H           -1.178006694801    -1.161308132625     0.887148344512     1.007825032230
         H            3.319713305199    -0.134903132625     0.000004344512     1.007825032230
         H            2.357266305199     1.067448867375    -0.886205655488     1.007825032230
         H            2.357261305199     1.067427867375     0.886238344512     1.007825032230
         H           -3.286681694801    -0.134792132625    -0.000002655488     1.007825032230
         H           -2.324123694801     1.067437867375     0.886233344512     1.007825032230
         H           -2.324121694801     1.067458867375    -0.886209655488     1.007825032230

  Basis Set: AUG-CC-PVTZ
    Blend: AUG-CC-PVTZ
  Basis Set: (AUG-CC-PVTZ AUX)
    Blend: AUG-CC-PVTZ-JKFIT
	 Reference Energy          =    -232.2223784993413460 [Eh]
	 Singles Energy            =      -0.0000000000000000 [Eh]
	 Same-Spin Energy          =      -0.2298405472558155 [Eh]
	 Opposite-Spin Energy      =      -0.8200548855944130 [Eh]
	 Correlation Energy        =      -1.0498954328502283 [Eh]
	 Total Energy              =    -233.2722739321915810 [Eh]

	 ================> DF-SCS-MP2 Energies <==================
	-----------------------------------------------------------
	 SCS Same-Spin Scale       =       0.3333333333333333 [-]
	 SCS Opposite-Spin Scale   =       1.2000000000000000 [-]
	 SCS Same-Spin Energy      =      -0.0766135157519385 [Eh]
	 SCS Opposite-Spin Energy  =      -0.9840658627132955 [Eh]
	 SCS Correlation Energy    =      -1.0606793784652340 [Eh]
	 SCS Total Energy          =    -233.2830578778065842 [Eh]
	-----------------------------------------------------------

  Dipole Moment: [D]
     X:     0.6064      Y:    -0.7708      Z:     0.0000     Total:     0.9807

*** Psi4 exiting successfully. Buy a developer a beer!
