                               Psi4 1.3.2 release

  ==> Input File <==

--------------------------------------------------------------------------
#psi4
#
memory 32 gb

molecule  {
0 1
  O       -0.0269946     0.2277495    -0.0000025
  C        1.1784130    -0.5251360    -0.0000050
  C       -1.1784630    -0.5251780    -0.0000060
  C        2.3664400     0.4132380     0.0000090
  C       -2.3664280     0.4132520     0.0000040
  H        1.1945630    -1.1779900     0.8871400
  H        1.1945690    -1.1779700    -0.8871650
  H       -1.1945520    -1.1779740    -0.8871710
  H       -1.1945470    -1.1779890     0.8871480
  H        3.3031730    -0.1515840     0.0000040
  H        2.3407260     1.0507680    -0.8862060
  H        2.3407210     1.0507470     0.8862380
  H       -3.3032220    -0.1514730    -0.0000030
  H       -2.3406640     1.0507570     0.8862330
  H       -2.3406620     1.0507780    -0.8862100
units angstrom
no_reorient  #important for SAPT in psi4, default
symmetry c1  #important for SAPT in psi4, default
}

set PROPERTIES_ORIGIN ["COM"]
properties('MP2/aug-cc-pvtz', properties = ['dipole'])
--------------------------------------------------------------------------

    Molecular point group: c1
  Charge       = 0
  Multiplicity = 1
  Basis Set: AUG-CC-PVTZ
    Blend: AUG-CC-PVTZ
  Basis Set: (AUG-CC-PVTZ AUX)
    Blend: AUG-CC-PVTZ-JKFIT

    Orbital Energies [Eh]
    ---------------------

    Doubly Occupied:

       1A    -20.548530     2A    -11.274228     3A    -11.267476
       4A    -11.214333     5A    -11.209863     6A     -1.380596
       7A     -1.043110     8A     -0.981126     9A     -0.843706
      10A     -0.823380    11A     -0.678200    12A     -0.665746
      13A     -0.603702    14A     -0.600144    15A     -0.548689
      16A     -0.530024    17A     -0.520984    18A     -0.496069
      19A     -0.485389    20A     -0.465743    21A     -0.414176

  @DF-RHF Final Energy:  -232.23464798041607

   => Energetics <=

    Nuclear Repulsion Energy =            190.5912629884655018
    One-Electron Energy =                -692.4613951209444167
    Two-Electron Energy =                 269.6354841520628725
    Total Energy =                       -232.2346479804160708
  Basis Set: (AUG-CC-PVTZ AUX)
    Blend: AUG-CC-PVTZ-RI
    Molecular point group: c1

    Geometry (in Angstrom), charge = 0, multiplicity = 1:

       Center              X                  Y                   Z               Mass
    ------------   -----------------  -----------------  -----------------  -----------------
         O           -0.021160820643     0.225877534237    -0.000002393015    15.994914619570
         C            1.184246779357    -0.527007965763    -0.000004893015    12.000000000000
         C           -1.172629220643    -0.527049965763    -0.000005893015    12.000000000000
         C            2.372273779357     0.411366034237     0.000009106985    12.000000000000
         C           -2.360594220643     0.411380034237     0.000004106985    12.000000000000
         H            1.200396779357    -1.179861965763     0.887140106985     1.007825032230
         H            1.200402779357    -1.179841965763    -0.887164893015     1.007825032230
         H           -1.188718220643    -1.179845965763    -0.887170893015     1.007825032230
         H           -1.188713220643    -1.179860965763     0.887148106985     1.007825032230
         H            3.309006779357    -0.153455965763     0.000004106985     1.007825032230
         H            2.346559779357     1.048896034237    -0.886205893015     1.007825032230
         H            2.346554779357     1.048875034237     0.886238106985     1.007825032230
         H           -3.297388220643    -0.153344965763    -0.000002893015     1.007825032230
         H           -2.334830220643     1.048885034237     0.886233106985     1.007825032230
         H           -2.334828220643     1.048906034237    -0.886209893015     1.007825032230

  Basis Set: AUG-CC-PVTZ
    Blend: AUG-CC-PVTZ
  Basis Set: (AUG-CC-PVTZ AUX)
    Blend: AUG-CC-PVTZ-JKFIT
	 Reference Energy          =    -232.2346479804160708 [Eh]
	 Singles Energy            =      -0.0000000000000000 [Eh]
	 Same-Spin Energy          =      -0.2300470562590589 [Eh]
	 Opposite-Spin Energy      =      -0.8219927222468923 [Eh]
	 Correlation Energy        =      -1.0520397785059512 [Eh]
	 Total Energy              =    -233.2866877589220280 [Eh]

	 ================> DF-SCS-MP2 Energies <==================
	-----------------------------------------------------------
	 SCS Same-Spin Scale       =       0.3333333333333333 [-]
	 SCS Opposite-Spin Scale   =       1.2000000000000000 [-]
	 SCS Same-Spin Energy      =      -0.0766823520863529 [Eh]
	 SCS Opposite-Spin Energy  =      -0.9863912666962708 [Eh]
	 SCS Correlation Energy    =      -1.0630736187826237 [Eh]
	 SCS Total Energy          =    -233.2977215991986952 [Eh]
	-----------------------------------------------------------

  Dipole Moment: [D]
     X:     0.1889      Y:    -1.0490      Z:    -0.0000     Total:     1.0659

*** Psi4 exiting successfully. Buy a developer a beer!
