                               Psi4 1.3.2 release

  ==> Input File <==

--------------------------------------------------------------------------
#psi4
#
memory 32 gb

molecule  {
0 1
  O        0.0000150     0.2693590    -0.0000020
  C        1.2054226    -0.4835265    -0.0000048
  C       -1.1784630    -0.5251780    -0.0000060
  C        2.3664400     0.4132380     0.0000090
  C       -2.3664280     0.4132520     0.0000040
  H        1.1945630    -1.1779900     0.8871400
  H        1.1945690    -1.1779700    -0.8871650
  H       -1.1945520    -1.1779740    -0.8871710
  H       -1.1945470    -1.1779890     0.8871480
  H        3.3031730    -0.1515840     0.0000040
  H        2.3407260     1.0507680    -0.8862060
  H        2.3407210     1.0507470     0.8862380
  H       -3.3032220    -0.1514730    -0.0000030
  H       -2.3406640     1.0507570     0.8862330
  H       -2.3406620     1.0507780    -0.8862100
units angstrom
no_reorient  #important for SAPT in psi4, default
symmetry c1  #important for SAPT in psi4, default
}

set PROPERTIES_ORIGIN ["COM"]
properties('MP2/aug-cc-pvtz', properties = ['dipole'])
--------------------------------------------------------------------------

    Molecular point group: c1
  Charge       = 0
  Multiplicity = 1
  Basis Set: AUG-CC-PVTZ
    Blend: AUG-CC-PVTZ
  Basis Set: (AUG-CC-PVTZ AUX)
    Blend: AUG-CC-PVTZ-JKFIT

    Orbital Energies [Eh]
    ---------------------

    Doubly Occupied:

       1A    -20.549492     2A    -11.274377     3A    -11.272351
       4A    -11.211697     5A    -11.210809     6A     -1.366142
       7A     -1.046207     8A     -0.986815     9A     -0.837622
      10A     -0.820792    11A     -0.670468    12A     -0.661402
      13A     -0.603367    14A     -0.598508    15A     -0.550270
      16A     -0.527863    17A     -0.518789    18A     -0.500858
      19A     -0.479444    20A     -0.470098    21A     -0.413505

  @DF-RHF Final Energy:  -232.23123078705899

   => Energetics <=

    Nuclear Repulsion Energy =            190.1414952015186088
    One-Electron Energy =                -691.6036977877241725
    Two-Electron Energy =                 269.2309717991465163
    Total Energy =                       -232.2312307870590189
  Basis Set: (AUG-CC-PVTZ AUX)
    Blend: AUG-CC-PVTZ-RI
    Molecular point group: c1

    Geometry (in Angstrom), charge = 0, multiplicity = 1:

       Center              X                  Y                   Z               Mass
    ------------   -----------------  -----------------  -----------------  -----------------
         O           -0.004359120447     0.251761306832    -0.000002033383    15.994914619570
         C            1.201048479553    -0.501124193168    -0.000004833383    12.000000000000
         C           -1.182837120447    -0.542775693168    -0.000006033383    12.000000000000
         C            2.362065879553     0.395640306832     0.000008966617    12.000000000000
         C           -2.370802120447     0.395654306832     0.000003966617    12.000000000000
         H            1.190188879553    -1.195587693168     0.887139966617     1.007825032230
         H            1.190194879553    -1.195567693168    -0.887165033383     1.007825032230
         H           -1.198926120447    -1.195571693168    -0.887171033383     1.007825032230
         H           -1.198921120447    -1.195586693168     0.887147966617     1.007825032230
         H            3.298798879553    -0.169181693168     0.000003966617     1.007825032230
         H            2.336351879553     1.033170306832    -0.886206033383     1.007825032230
         H            2.336346879553     1.033149306832     0.886237966617     1.007825032230
         H           -3.307596120447    -0.169070693168    -0.000003033383     1.007825032230
         H           -2.345038120447     1.033159306832     0.886232966617     1.007825032230
         H           -2.345036120447     1.033180306832    -0.886210033383     1.007825032230

  Basis Set: AUG-CC-PVTZ
    Blend: AUG-CC-PVTZ
  Basis Set: (AUG-CC-PVTZ AUX)
    Blend: AUG-CC-PVTZ-JKFIT
	 Reference Energy          =    -232.2312307870589905 [Eh]
	 Singles Energy            =      -0.0000000000000000 [Eh]
	 Same-Spin Energy          =      -0.2306196199148402 [Eh]
	 Opposite-Spin Energy      =      -0.8234751294887698 [Eh]
	 Correlation Energy        =      -1.0540947494036099 [Eh]
	 Total Energy              =    -233.2853255364626079 [Eh]

	 ================> DF-SCS-MP2 Energies <==================
	-----------------------------------------------------------
	 SCS Same-Spin Scale       =       0.3333333333333333 [-]
	 SCS Opposite-Spin Scale   =       1.2000000000000000 [-]
	 SCS Same-Spin Energy      =      -0.0768732066382801 [Eh]
	 SCS Opposite-Spin Energy  =      -0.9881701553865236 [Eh]
	 SCS Correlation Energy    =      -1.0650433620248037 [Eh]
	 SCS Total Energy          =    -233.2962741490837857 [Eh]
	-----------------------------------------------------------

  Dipole Moment: [D]
     X:     0.0526      Y:    -1.1023      Z:    -0.0000     Total:     1.1035

*** Psi4 exiting successfully. Buy a developer a beer!
