                               Psi4 1.3.2 release

  ==> Input File <==

--------------------------------------------------------------------------
#psi4
#
memory 32 gb

molecule  {
0 1
  O        0.0000150     0.2693590    -0.0000020
  C        1.1643677    -0.5455809    -0.0000051
  C       -1.1784630    -0.5251780    -0.0000060
  C        2.3664400     0.4132380     0.0000090
  C       -2.3664280     0.4132520     0.0000040
  H        1.1945630    -1.1779900     0.8871400
  H        1.1945690    -1.1779700    -0.8871650
  H       -1.1945520    -1.1779740    -0.8871710
  H       -1.1945470    -1.1779890     0.8871480
  H        3.3031730    -0.1515840     0.0000040
  H        2.3407260     1.0507680    -0.8862060
  H        2.3407210     1.0507470     0.8862380
  H       -3.3032220    -0.1514730    -0.0000030
  H       -2.3406640     1.0507570     0.8862330
  H       -2.3406620     1.0507780    -0.8862100
units angstrom
no_reorient  #important for SAPT in psi4, default
symmetry c1  #important for SAPT in psi4, default
}

set PROPERTIES_ORIGIN ["COM"]
properties('MP2/aug-cc-pvtz', properties = ['dipole'])
--------------------------------------------------------------------------

    Molecular point group: c1
  Charge       = 0
  Multiplicity = 1
  Basis Set: AUG-CC-PVTZ
    Blend: AUG-CC-PVTZ
  Basis Set: (AUG-CC-PVTZ AUX)
    Blend: AUG-CC-PVTZ-JKFIT

    Orbital Energies [Eh]
    ---------------------

    Doubly Occupied:

       1A    -20.551514     2A    -11.271547     3A    -11.270724
       4A    -11.211735     5A    -11.211365     6A     -1.368071
       7A     -1.037273     8A     -0.978551     9A     -0.838206
      10A     -0.828509    11A     -0.674626    12A     -0.660662
      13A     -0.603596    14A     -0.591796    15A     -0.547439
      16A     -0.527846    17A     -0.519690    18A     -0.487826
      19A     -0.484325    20A     -0.472633    21A     -0.421102

  @DF-RHF Final Energy:  -232.23345353834165

   => Energetics <=

    Nuclear Repulsion Energy =            189.8406217207488567
    One-Electron Energy =                -691.0300716638021186
    Two-Electron Energy =                 268.9559964047115841
    Total Energy =                       -232.2334535383416778
  Basis Set: (AUG-CC-PVTZ AUX)
    Blend: AUG-CC-PVTZ-RI
    Molecular point group: c1

    Geometry (in Angstrom), charge = 0, multiplicity = 1:

       Center              X                  Y                   Z               Mass
    ------------   -----------------  -----------------  -----------------  -----------------
         O            0.002291854982     0.261814243015    -0.000001984782    15.994914619570
         C            1.166644554982    -0.553125656985    -0.000005084782    12.000000000000
         C           -1.176186145018    -0.532722756985    -0.000005984782    12.000000000000
         C            2.368716854982     0.405693243015     0.000009015218    12.000000000000
         C           -2.364151145018     0.405707243015     0.000004015218    12.000000000000
         H            1.196839854982    -1.185534756985     0.887140015218     1.007825032230
         H            1.196845854982    -1.185514756985    -0.887164984782     1.007825032230
         H           -1.192275145018    -1.185518756985    -0.887170984782     1.007825032230
         H           -1.192270145018    -1.185533756985     0.887148015218     1.007825032230
         H            3.305449854982    -0.159128756985     0.000004015218     1.007825032230
         H            2.343002854982     1.043223243015    -0.886205984782     1.007825032230
         H            2.342997854982     1.043202243015     0.886238015218     1.007825032230
         H           -3.300945145018    -0.159017756985    -0.000002984782     1.007825032230
         H           -2.338387145018     1.043212243015     0.886233015218     1.007825032230
         H           -2.338385145018     1.043233243015    -0.886209984782     1.007825032230

  Basis Set: AUG-CC-PVTZ
    Blend: AUG-CC-PVTZ
  Basis Set: (AUG-CC-PVTZ AUX)
    Blend: AUG-CC-PVTZ-JKFIT
	 Reference Energy          =    -232.2334535383416494 [Eh]
	 Singles Energy            =      -0.0000000000000000 [Eh]
	 Same-Spin Energy          =      -0.2302614652642069 [Eh]
	 Opposite-Spin Energy      =      -0.8234084669597874 [Eh]
	 Correlation Energy        =      -1.0536699322239944 [Eh]
	 Total Energy              =    -233.2871234705656320 [Eh]

	 ================> DF-SCS-MP2 Energies <==================
	-----------------------------------------------------------
	 SCS Same-Spin Scale       =       0.3333333333333333 [-]
	 SCS Opposite-Spin Scale   =       1.2000000000000000 [-]
	 SCS Same-Spin Energy      =      -0.0767538217547356 [Eh]
	 SCS Opposite-Spin Energy  =      -0.9880901603517449 [Eh]
	 SCS Correlation Energy    =      -1.0648439821064806 [Eh]
	 SCS Total Energy          =    -233.2982975204481306 [Eh]
	-----------------------------------------------------------

  Dipole Moment: [D]
     X:    -0.0276      Y:    -1.2029      Z:    -0.0000     Total:     1.2032

*** Psi4 exiting successfully. Buy a developer a beer!
