                               Psi4 1.3.2 release

  ==> Input File <==

--------------------------------------------------------------------------
#psi4
#
memory 32 gb

molecule  {
0 1
  O        0.0895177     0.3881828    -0.0000005
  C        1.1784130    -0.5251360    -0.0000050
  C       -1.1784630    -0.5251780    -0.0000060
  C        2.3664400     0.4132380     0.0000090
  C       -2.3664280     0.4132520     0.0000040
  H        1.1945630    -1.1779900     0.8871400
  H        1.1945690    -1.1779700    -0.8871650
  H       -1.1945520    -1.1779740    -0.8871710
  H       -1.1945470    -1.1779890     0.8871480
  H        3.3031730    -0.1515840     0.0000040
  H        2.3407260     1.0507680    -0.8862060
  H        2.3407210     1.0507470     0.8862380
  H       -3.3032220    -0.1514730    -0.0000030
  H       -2.3406640     1.0507570     0.8862330
  H       -2.3406620     1.0507780    -0.8862100
units angstrom
no_reorient  #important for SAPT in psi4, default
symmetry c1  #important for SAPT in psi4, default
}

set PROPERTIES_ORIGIN ["COM"]
properties('MP2/aug-cc-pvtz', properties = ['dipole'])
--------------------------------------------------------------------------

    Molecular point group: c1
  Charge       = 0
  Multiplicity = 1
  Basis Set: AUG-CC-PVTZ
    Blend: AUG-CC-PVTZ
  Basis Set: (AUG-CC-PVTZ AUX)
    Blend: AUG-CC-PVTZ-JKFIT

    Orbital Energies [Eh]
    ---------------------

    Doubly Occupied:

       1A    -20.555604     2A    -11.285178     3A    -11.266234
       4A    -11.216333     5A    -11.203453     6A     -1.336420
       7A     -1.033569     8A     -0.980376     9A     -0.836447
      10A     -0.822295    11A     -0.661767    12A     -0.646518
      13A     -0.604463    14A     -0.576338    15A     -0.550052
      16A     -0.521134    17A     -0.515868    18A     -0.497348
      19A     -0.486525    20A     -0.456413    21A     -0.427648

  @DF-RHF Final Energy:  -232.21306116289009

   => Energetics <=

    Nuclear Repulsion Energy =            188.1441666033802562
    One-Electron Energy =                -687.7544856808203804
    Two-Electron Energy =                 267.3972579145500390
    Total Energy =                       -232.2130611628900851
  Basis Set: (AUG-CC-PVTZ AUX)
    Blend: AUG-CC-PVTZ-RI
    Molecular point group: c1

    Geometry (in Angstrom), charge = 0, multiplicity = 1:

       Center              X                  Y                   Z               Mass
    ------------   -----------------  -----------------  -----------------  -----------------
         O            0.070192512651     0.351667830422    -0.000000824883    15.994914619570
         C            1.159087812651    -0.561650969578    -0.000005324883    12.000000000000
         C           -1.197788187349    -0.561692969578    -0.000006324883    12.000000000000
         C            2.347114812651     0.376723030422     0.000008675117    12.000000000000
         C           -2.385753187349     0.376737030422     0.000003675117    12.000000000000
         H            1.175237812651    -1.214504969578     0.887139675117     1.007825032230
         H            1.175243812651    -1.214484969578    -0.887165324883     1.007825032230
         H           -1.213877187349    -1.214488969578    -0.887171324883     1.007825032230
         H           -1.213872187349    -1.214503969578     0.887147675117     1.007825032230
         H            3.283847812651    -0.188098969578     0.000003675117     1.007825032230
         H            2.321400812651     1.014253030422    -0.886206324883     1.007825032230
         H            2.321395812651     1.014232030422     0.886237675117     1.007825032230
         H           -3.322547187349    -0.187987969578    -0.000003324883     1.007825032230
         H           -2.359989187349     1.014242030422     0.886232675117     1.007825032230
         H           -2.359987187349     1.014263030422    -0.886210324883     1.007825032230

  Basis Set: AUG-CC-PVTZ
    Blend: AUG-CC-PVTZ
  Basis Set: (AUG-CC-PVTZ AUX)
    Blend: AUG-CC-PVTZ-JKFIT
	 Reference Energy          =    -232.2130611628900851 [Eh]
	 Singles Energy            =      -0.0000000000000000 [Eh]
	 Same-Spin Energy          =      -0.2318471323262772 [Eh]
	 Opposite-Spin Energy      =      -0.8287391410008580 [Eh]
	 Correlation Energy        =      -1.0605862733271352 [Eh]
	 Total Energy              =    -233.2736474362172316 [Eh]

	 ================> DF-SCS-MP2 Energies <==================
	-----------------------------------------------------------
	 SCS Same-Spin Scale       =       0.3333333333333333 [-]
	 SCS Opposite-Spin Scale   =       1.2000000000000000 [-]
	 SCS Same-Spin Energy      =      -0.0772823774420924 [Eh]
	 SCS Opposite-Spin Energy  =      -0.9944869692010295 [Eh]
	 SCS Correlation Energy    =      -1.0717693466431220 [Eh]
	 SCS Total Energy          =    -233.2848305095332080 [Eh]
	-----------------------------------------------------------

  Dipole Moment: [D]
     X:    -0.5091      Y:    -1.4777      Z:    -0.0000     Total:     1.5629

*** Psi4 exiting successfully. Buy a developer a beer!
