                               Psi4 1.3.2 release

  ==> Input File <==

--------------------------------------------------------------------------
#psi4
#
memory 32 gb

molecule  {
0 1
  O       -0.0136714     0.2486721    -0.0000023
  C        1.1784130    -0.5251360    -0.0000050
  C       -1.1784630    -0.5251780    -0.0000060
  C        2.3664400     0.4132380     0.0000090
  C       -2.3664280     0.4132520     0.0000040
  H        1.1945630    -1.1779900     0.8871400
  H        1.1945690    -1.1779700    -0.8871650
  H       -1.1945520    -1.1779740    -0.8871710
  H       -1.1945470    -1.1779890     0.8871480
  H        3.3031730    -0.1515840     0.0000040
  H        2.3407260     1.0507680    -0.8862060
  H        2.3407210     1.0507470     0.8862380
  H       -3.3032220    -0.1514730    -0.0000030
  H       -2.3406640     1.0507570     0.8862330
  H       -2.3406620     1.0507780    -0.8862100
units angstrom
no_reorient  #important for SAPT in psi4, default
symmetry c1  #important for SAPT in psi4, default
}

set PROPERTIES_ORIGIN ["COM"]
properties('MP2/aug-cc-pvtz', properties = ['dipole'])
--------------------------------------------------------------------------

    Molecular point group: c1
  Charge       = 0
  Multiplicity = 1
  Basis Set: AUG-CC-PVTZ
    Blend: AUG-CC-PVTZ
  Basis Set: (AUG-CC-PVTZ AUX)
    Blend: AUG-CC-PVTZ-JKFIT

    Orbital Energies [Eh]
    ---------------------

    Doubly Occupied:

       1A    -20.549691     2A    -11.272946     3A    -11.269603
       4A    -11.212878     5A    -11.210663     6A     -1.373789
       7A     -1.041409     8A     -0.981247     9A     -0.840576
      10A     -0.824875    11A     -0.675534    12A     -0.663314
      13A     -0.603443    14A     -0.596825    15A     -0.548454
      16A     -0.528959    17A     -0.520193    18A     -0.492611
      19A     -0.485175    20A     -0.469597    21A     -0.416621

  @DF-RHF Final Energy:  -232.23486099641002

   => Energetics <=

    Nuclear Repulsion Energy =            190.2598222969505457
    One-Electron Energy =                -691.8325638751924771
    Two-Electron Energy =                 269.3378805818318824
    Total Energy =                       -232.2348609964100206
  Basis Set: (AUG-CC-PVTZ AUX)
    Blend: AUG-CC-PVTZ-RI
    Molecular point group: c1

    Geometry (in Angstrom), charge = 0, multiplicity = 1:

       Center              X                  Y                   Z               Mass
    ------------   -----------------  -----------------  -----------------  -----------------
         O           -0.010714552479     0.242282233579    -0.000002236202    15.994914619570
         C            1.181369847521    -0.531525866421    -0.000004936202    12.000000000000
         C           -1.175506152479    -0.531567866421    -0.000005936202    12.000000000000
         C            2.369396847521     0.406848133579     0.000009063798    12.000000000000
         C           -2.363471152479     0.406862133579     0.000004063798    12.000000000000
         H            1.197519847521    -1.184379866421     0.887140063798     1.007825032230
         H            1.197525847521    -1.184359866421    -0.887164936202     1.007825032230
         H           -1.191595152479    -1.184363866421    -0.887170936202     1.007825032230
         H           -1.191590152479    -1.184378866421     0.887148063798     1.007825032230
         H            3.306129847521    -0.157973866421     0.000004063798     1.007825032230
         H            2.343682847521     1.044378133579    -0.886205936202     1.007825032230
         H            2.343677847521     1.044357133579     0.886238063798     1.007825032230
         H           -3.300265152479    -0.157862866421    -0.000002936202     1.007825032230
         H           -2.337707152479     1.044367133579     0.886233063798     1.007825032230
         H           -2.337705152479     1.044388133579    -0.886209936202     1.007825032230

  Basis Set: AUG-CC-PVTZ
    Blend: AUG-CC-PVTZ
  Basis Set: (AUG-CC-PVTZ AUX)
    Blend: AUG-CC-PVTZ-JKFIT
	 Reference Energy          =    -232.2348609964100206 [Eh]
	 Singles Energy            =      -0.0000000000000000 [Eh]
	 Same-Spin Energy          =      -0.2301753002337301 [Eh]
	 Opposite-Spin Energy      =      -0.8226365750768834 [Eh]
	 Correlation Energy        =      -1.0528118753106135 [Eh]
	 Total Energy              =    -233.2876728717206447 [Eh]

	 ================> DF-SCS-MP2 Energies <==================
	-----------------------------------------------------------
	 SCS Same-Spin Scale       =       0.3333333333333333 [-]
	 SCS Opposite-Spin Scale   =       1.2000000000000000 [-]
	 SCS Same-Spin Energy      =      -0.0767251000779100 [Eh]
	 SCS Opposite-Spin Energy  =      -0.9871638900922600 [Eh]
	 SCS Correlation Energy    =      -1.0638889901701700 [Eh]
	 SCS Total Energy          =    -233.2987499865801908 [Eh]
	-----------------------------------------------------------

  Dipole Moment: [D]
     X:     0.0929      Y:    -1.1118      Z:    -0.0000     Total:     1.1157

*** Psi4 exiting successfully. Buy a developer a beer!
