                               Psi4 1.4a3.dev225

  ==> Input File <==

--------------------------------------------------------------------------
#psi4
#
memory 32 gb

molecule  {
0 1
  O        0.0000020    -0.2691450    -0.0000020
  C        1.1785260     0.5252810     0.0000050
  C       -1.1785320     0.5252840     0.0000070
  C        2.3821042    -0.4257678    -0.0000072
  C       -2.3664110    -0.4133700    -0.0000030
  H        1.1947970     1.1780560    -0.8871580
  H        1.1948000     1.1780360     0.8871820
  H       -1.1947990     1.1780360     0.8871840
  H       -1.1947990     1.1780550    -0.8871570
  H        3.3033530     0.1510230    -0.0000020
  H        2.3404690    -1.0510140     0.8861510
  H        2.3404660    -1.0509930    -0.8861810
  H       -3.3033580     0.1510100     0.0000040
  H       -2.3404590    -1.0509950    -0.8861760
  H       -2.3404580    -1.0510150     0.8861560
units angstrom
no_reorient  #important for SAPT in psi4, default
symmetry c1  #important for SAPT in psi4, default
}

set PROPERTIES_ORIGIN ["COM"]
properties('MP2/aug-cc-pvtz', properties = ['dipole'])
--------------------------------------------------------------------------

    Molecular point group: c1
  Charge       = 0
  Multiplicity = 1
  Basis Set: AUG-CC-PVTZ
    Blend: AUG-CC-PVTZ
  Basis Set: (AUG-CC-PVTZ AUX)
    Blend: AUG-CC-PVTZ-JKFIT

    Orbital Energies [Eh]
    ---------------------

    Doubly Occupied:

       1A    -20.550765     2A    -11.272554     3A    -11.271751
       4A    -11.211450     5A    -11.210790     6A     -1.367002
       7A     -1.037862     8A     -0.980096     9A     -0.838746
      10A     -0.826447    11A     -0.672562    12A     -0.660254
      13A     -0.603162    14A     -0.591426    15A     -0.550238
      16A     -0.529902    17A     -0.521244    18A     -0.486717
      19A     -0.486346    20A     -0.471066    21A     -0.418809

  @DF-RHF Final Energy:  -232.23387485162402

   => Energetics <=

    Nuclear Repulsion Energy =            189.6720802602593494
    One-Electron Energy =                -690.6935354657146036
    Two-Electron Energy =                 268.7875803538312312
    Total Energy =                       -232.2338748516240230
  Basis Set: (AUG-CC-PVTZ AUX)
    Blend: AUG-CC-PVTZ-RI
    Molecular point group: c1

    Geometry (in Angstrom), charge = 0, multiplicity = 1:

       Center              X                  Y                   Z               Mass
    ------------   -----------------  -----------------  -----------------  -----------------
         O           -0.002539952728    -0.256302480543    -0.000001900553    15.994914619570
         C            1.175984047272     0.538123519457     0.000005099447    12.000000000000
         C           -1.181073952728     0.538126519457     0.000007099447    12.000000000000
         C            2.379562247272    -0.412925280543    -0.000007100553    12.000000000000
         C           -2.368952952728    -0.400527480543    -0.000002900553    12.000000000000
         H            1.192255047272     1.190898519457    -0.887157900553     1.007825032230
         H            1.192258047272     1.190878519457     0.887182099447     1.007825032230
         H           -1.197340952728     1.190878519457     0.887184099447     1.007825032230
         H           -1.197340952728     1.190897519457    -0.887156900553     1.007825032230
         H            3.300811047272     0.163865519457    -0.000001900553     1.007825032230
         H            2.337927047272    -1.038171480543     0.886151099447     1.007825032230
         H            2.337924047272    -1.038150480543    -0.886180900553     1.007825032230
         H           -3.305899952728     0.163852519457     0.000004099447     1.007825032230
         H           -2.343000952728    -1.038152480543    -0.886175900553     1.007825032230
         H           -2.342999952728    -1.038172480543     0.886156099447     1.007825032230

  Basis Set: AUG-CC-PVTZ
    Blend: AUG-CC-PVTZ
  Basis Set: (AUG-CC-PVTZ AUX)
    Blend: AUG-CC-PVTZ-JKFIT
	 Reference Energy          =    -232.2338748516243641 [Eh]
	 Singles Energy            =      -0.0000000000000000 [Eh]
	 Same-Spin Energy          =      -0.2302298131620985 [Eh]
	 Opposite-Spin Energy      =      -0.8232785460494257 [Eh]
	 Correlation Energy        =      -1.0535083592115242 [Eh]
	 Total Energy              =    -233.2873832108358840 [Eh]

	 ================> DF-SCS-MP2 Energies <==================
	-----------------------------------------------------------
	 SCS Same-Spin Scale       =       0.3333333333333333 [-]
	 SCS Opposite-Spin Scale   =       1.2000000000000000 [-]
	 SCS Same-Spin Energy      =      -0.0767432710540328 [Eh]
	 SCS Opposite-Spin Energy  =      -0.9879342552593109 [Eh]
	 SCS Correlation Energy    =      -1.0646775263133437 [Eh]
	 SCS Total Energy          =    -233.2985523779377104 [Eh]
	-----------------------------------------------------------

  Dipole Moment: [D]
     X:    -0.0081      Y:     1.1732      Z:     0.0000     Total:     1.1733

*** Psi4 exiting successfully. Buy a developer a beer!
