                               Psi4 1.3.2 release

  ==> Input File <==

--------------------------------------------------------------------------
#psi4
#
memory 32 gb

molecule  {
0 1
  O        0.0000150     0.2693590    -0.0000020
  C        1.2309637    -0.4409998    -0.0000046
  C       -1.1784630    -0.5251780    -0.0000060
  C        2.3664400     0.4132380     0.0000090
  C       -2.3664280     0.4132520     0.0000040
  H        1.1945630    -1.1779900     0.8871400
  H        1.1945690    -1.1779700    -0.8871650
  H       -1.1945520    -1.1779740    -0.8871710
  H       -1.1945470    -1.1779890     0.8871480
  H        3.3031730    -0.1515840     0.0000040
  H        2.3407260     1.0507680    -0.8862060
  H        2.3407210     1.0507470     0.8862380
  H       -3.3032220    -0.1514730    -0.0000030
  H       -2.3406640     1.0507570     0.8862330
  H       -2.3406620     1.0507780    -0.8862100
units angstrom
no_reorient  #important for SAPT in psi4, default
symmetry c1  #important for SAPT in psi4, default
}

set PROPERTIES_ORIGIN ["COM"]
properties('MP2/aug-cc-pvtz', properties = ['dipole'])
--------------------------------------------------------------------------

    Molecular point group: c1
  Charge       = 0
  Multiplicity = 1
  Basis Set: AUG-CC-PVTZ
    Blend: AUG-CC-PVTZ
  Basis Set: (AUG-CC-PVTZ AUX)
    Blend: AUG-CC-PVTZ-JKFIT

    Orbital Energies [Eh]
    ---------------------

    Doubly Occupied:

       1A    -20.548435     2A    -11.277679     3A    -11.273113
       4A    -11.211995     5A    -11.210104     6A     -1.365156
       7A     -1.054471     8A     -0.991977     9A     -0.838148
      10A     -0.814606    11A     -0.668605    12A     -0.662156
      13A     -0.605155    14A     -0.604409    15A     -0.552281
      16A     -0.527845    17A     -0.517940    18A     -0.511040
      19A     -0.473931    20A     -0.466158    21A     -0.406902

  @DF-RHF Final Energy:  -232.22232851117235

   => Energetics <=

    Nuclear Repulsion Energy =            190.3719094416886151
    One-Electron Energy =                -692.0242664483065482
    Two-Electron Energy =                 269.4300284954455833
    Total Energy =                       -232.2223285111723499
  Basis Set: (AUG-CC-PVTZ AUX)
    Blend: AUG-CC-PVTZ-RI
    Molecular point group: c1

    Geometry (in Angstrom), charge = 0, multiplicity = 1:

       Center              X                  Y                   Z               Mass
    ------------   -----------------  -----------------  -----------------  -----------------
         O           -0.008496829430     0.244871896877    -0.000002065783    15.994914619570
         C            1.222451870570    -0.465486903123    -0.000004665783    12.000000000000
         C           -1.186974829430    -0.549665103123    -0.000006065783    12.000000000000
         C            2.357928170570     0.388750896877     0.000008934217    12.000000000000
         C           -2.374939829430     0.388764896877     0.000003934217    12.000000000000
         H            1.186051170570    -1.202477103123     0.887139934217     1.007825032230
         H            1.186057170570    -1.202457103123    -0.887165065783     1.007825032230
         H           -1.203063829430    -1.202461103123    -0.887171065783     1.007825032230
         H           -1.203058829430    -1.202476103123     0.887147934217     1.007825032230
         H            3.294661170570    -0.176071103123     0.000003934217     1.007825032230
         H            2.332214170570     1.026280896877    -0.886206065783     1.007825032230
         H            2.332209170570     1.026259896877     0.886237934217     1.007825032230
         H           -3.311733829430    -0.175960103123    -0.000003065783     1.007825032230
         H           -2.349175829430     1.026269896877     0.886232934217     1.007825032230
         H           -2.349173829430     1.026290896877    -0.886210065783     1.007825032230

  Basis Set: AUG-CC-PVTZ
    Blend: AUG-CC-PVTZ
  Basis Set: (AUG-CC-PVTZ AUX)
    Blend: AUG-CC-PVTZ-JKFIT
	 Reference Energy          =    -232.2223285111723499 [Eh]
	 Singles Energy            =      -0.0000000000000000 [Eh]
	 Same-Spin Energy          =      -0.2311002347160646 [Eh]
	 Opposite-Spin Energy      =      -0.8239693133377515 [Eh]
	 Correlation Energy        =      -1.0550695480538161 [Eh]
	 Total Energy              =    -233.2773980592261580 [Eh]

	 ================> DF-SCS-MP2 Energies <==================
	-----------------------------------------------------------
	 SCS Same-Spin Scale       =       0.3333333333333333 [-]
	 SCS Opposite-Spin Scale   =       1.2000000000000000 [-]
	 SCS Same-Spin Energy      =      -0.0770334115720215 [Eh]
	 SCS Opposite-Spin Energy  =      -0.9887631760053017 [Eh]
	 SCS Correlation Energy    =      -1.0657965875773232 [Eh]
	 SCS Total Energy          =    -233.2881250987496742 [Eh]
	-----------------------------------------------------------

  Dipole Moment: [D]
     X:     0.1039      Y:    -1.0219      Z:    -0.0000     Total:     1.0272

*** Psi4 exiting successfully. Buy a developer a beer!
