                               Psi4 1.3.2 release

  ==> Input File <==

--------------------------------------------------------------------------
#psi4
#
memory 32 gb

molecule  {
0 1
  O        0.0583067     0.3496245    -0.0000010
  C        1.1784130    -0.5251360    -0.0000050
  C       -1.1784630    -0.5251780    -0.0000060
  C        2.3664400     0.4132380     0.0000090
  C       -2.3664280     0.4132520     0.0000040
  H        1.1945630    -1.1779900     0.8871400
  H        1.1945690    -1.1779700    -0.8871650
  H       -1.1945520    -1.1779740    -0.8871710
  H       -1.1945470    -1.1779890     0.8871480
  H        3.3031730    -0.1515840     0.0000040
  H        2.3407260     1.0507680    -0.8862060
  H        2.3407210     1.0507470     0.8862380
  H       -3.3032220    -0.1514730    -0.0000030
  H       -2.3406640     1.0507570     0.8862330
  H       -2.3406620     1.0507780    -0.8862100
units angstrom
no_reorient  #important for SAPT in psi4, default
symmetry c1  #important for SAPT in psi4, default
}

set PROPERTIES_ORIGIN ["COM"]
properties('MP2/aug-cc-pvtz', properties = ['dipole'])
--------------------------------------------------------------------------

    Molecular point group: c1
  Charge       = 0
  Multiplicity = 1
  Basis Set: AUG-CC-PVTZ
    Blend: AUG-CC-PVTZ
  Basis Set: (AUG-CC-PVTZ AUX)
    Blend: AUG-CC-PVTZ-JKFIT

    Orbital Energies [Eh]
    ---------------------

    Doubly Occupied:

       1A    -20.554348     2A    -11.280665     3A    -11.267816
       4A    -11.214674     5A    -11.206023     6A     -1.345364
       7A     -1.035045     8A     -0.981023     9A     -0.833983
      10A     -0.825881    11A     -0.664919    12A     -0.651169
      13A     -0.603730    14A     -0.581685    15A     -0.549093
      16A     -0.523342    17A     -0.516961    18A     -0.491797
      19A     -0.485752    20A     -0.466207    21A     -0.425485

  @DF-RHF Final Energy:  -232.22276374970062

   => Energetics <=

    Nuclear Repulsion Energy =            188.7100673387844552
    One-Electron Energy =                -688.8557370850907091
    Two-Electron Energy =                 267.9229059966056070
    Total Energy =                       -232.2227637497006185
  Basis Set: (AUG-CC-PVTZ AUX)
    Blend: AUG-CC-PVTZ-RI
    Molecular point group: c1

    Geometry (in Angstrom), charge = 0, multiplicity = 1:

       Center              X                  Y                   Z               Mass
    ------------   -----------------  -----------------  -----------------  -----------------
         O            0.045721028649     0.321435578281    -0.000001216916    15.994914619570
         C            1.165827328649    -0.553324921719    -0.000005216916    12.000000000000
         C           -1.191048671351    -0.553366921719    -0.000006216916    12.000000000000
         C            2.353854328649     0.385049078281     0.000008783084    12.000000000000
         C           -2.379013671351     0.385063078281     0.000003783084    12.000000000000
         H            1.181977328649    -1.206178921719     0.887139783084     1.007825032230
         H            1.181983328649    -1.206158921719    -0.887165216916     1.007825032230
         H           -1.207137671351    -1.206162921719    -0.887171216916     1.007825032230
         H           -1.207132671351    -1.206177921719     0.887147783084     1.007825032230
         H            3.290587328649    -0.179772921719     0.000003783084     1.007825032230
         H            2.328140328649     1.022579078281    -0.886206216916     1.007825032230
         H            2.328135328649     1.022558078281     0.886237783084     1.007825032230
         H           -3.315807671351    -0.179661921719    -0.000003216916     1.007825032230
         H           -2.353249671351     1.022568078281     0.886232783084     1.007825032230
         H           -2.353247671351     1.022589078281    -0.886210216916     1.007825032230

  Basis Set: AUG-CC-PVTZ
    Blend: AUG-CC-PVTZ
  Basis Set: (AUG-CC-PVTZ AUX)
    Blend: AUG-CC-PVTZ-JKFIT
	 Reference Energy          =    -232.2227637497006185 [Eh]
	 Singles Energy            =      -0.0000000000000000 [Eh]
	 Same-Spin Energy          =      -0.2312407241671288 [Eh]
	 Opposite-Spin Energy      =      -0.8267308301628462 [Eh]
	 Correlation Energy        =      -1.0579715543299750 [Eh]
	 Total Energy              =    -233.2807353040305998 [Eh]

	 ================> DF-SCS-MP2 Energies <==================
	-----------------------------------------------------------
	 SCS Same-Spin Scale       =       0.3333333333333333 [-]
	 SCS Opposite-Spin Scale   =       1.2000000000000000 [-]
	 SCS Same-Spin Energy      =      -0.0770802413890429 [Eh]
	 SCS Opposite-Spin Energy  =      -0.9920769961954155 [Eh]
	 SCS Correlation Energy    =      -1.0691572375844585 [Eh]
	 SCS Total Energy          =    -233.2919209872850672 [Eh]
	-----------------------------------------------------------

  Dipole Moment: [D]
     X:    -0.3484      Y:    -1.3859      Z:    -0.0000     Total:     1.4290

*** Psi4 exiting successfully. Buy a developer a beer!
