                               Psi4 1.3.2 release

  ==> Input File <==

--------------------------------------------------------------------------
#psi4
#
memory 32 gb

molecule  {
0 1
  O        0.0284603     0.3100005    -0.0000015
  C        1.1784130    -0.5251360    -0.0000050
  C       -1.1784630    -0.5251780    -0.0000060
  C        2.3664400     0.4132380     0.0000090
  C       -2.3664280     0.4132520     0.0000040
  H        1.1945630    -1.1779900     0.8871400
  H        1.1945690    -1.1779700    -0.8871650
  H       -1.1945520    -1.1779740    -0.8871710
  H       -1.1945470    -1.1779890     0.8871480
  H        3.3031730    -0.1515840     0.0000040
  H        2.3407260     1.0507680    -0.8862060
  H        2.3407210     1.0507470     0.8862380
  H       -3.3032220    -0.1514730    -0.0000030
  H       -2.3406640     1.0507570     0.8862330
  H       -2.3406620     1.0507780    -0.8862100
units angstrom
no_reorient  #important for SAPT in psi4, default
symmetry c1  #important for SAPT in psi4, default
}

set PROPERTIES_ORIGIN ["COM"]
properties('MP2/aug-cc-pvtz', properties = ['dipole'])
--------------------------------------------------------------------------

    Molecular point group: c1
  Charge       = 0
  Multiplicity = 1
  Basis Set: AUG-CC-PVTZ
    Blend: AUG-CC-PVTZ
  Basis Set: (AUG-CC-PVTZ AUX)
    Blend: AUG-CC-PVTZ-JKFIT

    Orbital Energies [Eh]
    ---------------------

    Doubly Occupied:

       1A    -20.552735     2A    -11.276181     3A    -11.269640
       4A    -11.213055     5A    -11.208687     6A     -1.355648
       7A     -1.037144     8A     -0.981317     9A     -0.833520
      10A     -0.828079    11A     -0.668661    12A     -0.655980
      13A     -0.603323    14A     -0.587446    15A     -0.548512
      16A     -0.525613    17A     -0.518144    18A     -0.487174
      19A     -0.485229    20A     -0.473671    21A     -0.422581

  @DF-RHF Final Energy:  -232.22994393644956

   => Energetics <=

    Nuclear Repulsion Energy =            189.3075504404896776
    One-Electron Energy =                -690.0103101318585459
    Two-Electron Energy =                 268.4728157549193384
    Total Energy =                       -232.2299439364495584
  Basis Set: (AUG-CC-PVTZ AUX)
    Blend: AUG-CC-PVTZ-RI
    Molecular point group: c1

    Geometry (in Angstrom), charge = 0, multiplicity = 1:

       Center              X                  Y                   Z               Mass
    ------------   -----------------  -----------------  -----------------  -----------------
         O            0.022319481115     0.290367747002    -0.000001608949    15.994914619570
         C            1.172272181115    -0.544768752998    -0.000005108949    12.000000000000
         C           -1.184603818885    -0.544810752998    -0.000006108949    12.000000000000
         C            2.360299181115     0.393605247002     0.000008891051    12.000000000000
         C           -2.372568818885     0.393619247002     0.000003891051    12.000000000000
         H            1.188422181115    -1.197622752998     0.887139891051     1.007825032230
         H            1.188428181115    -1.197602752998    -0.887165108949     1.007825032230
         H           -1.200692818885    -1.197606752998    -0.887171108949     1.007825032230
         H           -1.200687818885    -1.197621752998     0.887147891051     1.007825032230
         H            3.297032181115    -0.171216752998     0.000003891051     1.007825032230
         H            2.334585181115     1.031135247002    -0.886206108949     1.007825032230
         H            2.334580181115     1.031114247002     0.886237891051     1.007825032230
         H           -3.309362818885    -0.171105752998    -0.000003108949     1.007825032230
         H           -2.346804818885     1.031124247002     0.886232891051     1.007825032230
         H           -2.346802818885     1.031145247002    -0.886210108949     1.007825032230

  Basis Set: AUG-CC-PVTZ
    Blend: AUG-CC-PVTZ
  Basis Set: (AUG-CC-PVTZ AUX)
    Blend: AUG-CC-PVTZ-JKFIT
	 Reference Energy          =    -232.2299439364495584 [Eh]
	 Singles Energy            =      -0.0000000000000000 [Eh]
	 Same-Spin Energy          =      -0.2307333655361601 [Eh]
	 Opposite-Spin Energy      =      -0.8249259942989368 [Eh]
	 Correlation Energy        =      -1.0556593598350970 [Eh]
	 Total Energy              =    -233.2856032962846484 [Eh]

	 ================> DF-SCS-MP2 Energies <==================
	-----------------------------------------------------------
	 SCS Same-Spin Scale       =       0.3333333333333333 [-]
	 SCS Opposite-Spin Scale   =       1.2000000000000000 [-]
	 SCS Same-Spin Energy      =      -0.0769111218453867 [Eh]
	 SCS Opposite-Spin Energy  =      -0.9899111931587241 [Eh]
	 SCS Correlation Energy    =      -1.0668223150041107 [Eh]
	 SCS Total Energy          =    -233.2967662514536755 [Eh]
	-----------------------------------------------------------

  Dipole Moment: [D]
     X:    -0.1790      Y:    -1.2841      Z:    -0.0000     Total:     1.2965

*** Psi4 exiting successfully. Buy a developer a beer!
