                               Psi4 1.4a3.dev225

  ==> Input File <==

--------------------------------------------------------------------------
#psi4
#
memory 32 gb

molecule  {
0 1
  O        0.0000020    -0.2691450    -0.0000020
  C        1.1785260     0.5252810     0.0000050
  C       -1.1785320     0.5252840     0.0000070
  C        2.4056426    -0.4443674    -0.0000074
  C       -2.3664110    -0.4133700    -0.0000030
  H        1.1947970     1.1780560    -0.8871580
  H        1.1948000     1.1780360     0.8871820
  H       -1.1947990     1.1780360     0.8871840
  H       -1.1947990     1.1780550    -0.8871570
  H        3.3033530     0.1510230    -0.0000020
  H        2.3404690    -1.0510140     0.8861510
  H        2.3404660    -1.0509930    -0.8861810
  H       -3.3033580     0.1510100     0.0000040
  H       -2.3404590    -1.0509950    -0.8861760
  H       -2.3404580    -1.0510150     0.8861560
units angstrom
no_reorient  #important for SAPT in psi4, default
symmetry c1  #important for SAPT in psi4, default
}

set PROPERTIES_ORIGIN ["COM"]
properties('MP2/aug-cc-pvtz', properties = ['dipole'])
--------------------------------------------------------------------------

    Molecular point group: c1
  Charge       = 0
  Multiplicity = 1
  Basis Set: AUG-CC-PVTZ
    Blend: AUG-CC-PVTZ
  Basis Set: (AUG-CC-PVTZ AUX)
    Blend: AUG-CC-PVTZ-JKFIT

    Orbital Energies [Eh]
    ---------------------

    Doubly Occupied:

       1A    -20.550754     2A    -11.273662     3A    -11.271729
       4A    -11.211441     5A    -11.210021     6A     -1.366538
       7A     -1.035278     8A     -0.978342     9A     -0.840264
      10A     -0.826591    11A     -0.671904    12A     -0.659413
      13A     -0.603121    14A     -0.588554    15A     -0.553524
      16A     -0.533189    17A     -0.523418    18A     -0.488740
      19A     -0.483063    20A     -0.466696    21A     -0.418749

  @DF-RHF Final Energy:  -232.23220870985773

   => Energetics <=

    Nuclear Repulsion Energy =            189.2900931974234027
    One-Electron Energy =                -689.9346179681865578
    Two-Electron Energy =                 268.4123160609054253
    Total Energy =                       -232.2322087098577299
  Basis Set: (AUG-CC-PVTZ AUX)
    Blend: AUG-CC-PVTZ-RI
    Molecular point group: c1

    Geometry (in Angstrom), charge = 0, multiplicity = 1:

       Center              X                  Y                   Z               Mass
    ------------   -----------------  -----------------  -----------------  -----------------
         O           -0.006353220330    -0.253289308362    -0.000001868153    15.994914619570
         C            1.172170779670     0.541136691638     0.000005131847    12.000000000000
         C           -1.184887220330     0.541139691638     0.000007131847    12.000000000000
         C            2.399287379670    -0.428511708362    -0.000007268153    12.000000000000
         C           -2.372766220330    -0.397514308362    -0.000002868153    12.000000000000
         H            1.188441779670     1.193911691638    -0.887157868153     1.007825032230
         H            1.188444779670     1.193891691638     0.887182131847     1.007825032230
         H           -1.201154220330     1.193891691638     0.887184131847     1.007825032230
         H           -1.201154220330     1.193910691638    -0.887156868153     1.007825032230
         H            3.296997779670     0.166878691638    -0.000001868153     1.007825032230
         H            2.334113779670    -1.035158308362     0.886151131847     1.007825032230
         H            2.334110779670    -1.035137308362    -0.886180868153     1.007825032230
         H           -3.309713220330     0.166865691638     0.000004131847     1.007825032230
         H           -2.346814220330    -1.035139308362    -0.886175868153     1.007825032230
         H           -2.346813220330    -1.035159308362     0.886156131847     1.007825032230

  Basis Set: AUG-CC-PVTZ
    Blend: AUG-CC-PVTZ
  Basis Set: (AUG-CC-PVTZ AUX)
    Blend: AUG-CC-PVTZ-JKFIT
	 Reference Energy          =    -232.2322087098577299 [Eh]
	 Singles Energy            =      -0.0000000000000000 [Eh]
	 Same-Spin Energy          =      -0.2301290757608550 [Eh]
	 Opposite-Spin Energy      =      -0.8232790400009268 [Eh]
	 Correlation Energy        =      -1.0534081157617816 [Eh]
	 Total Energy              =    -233.2856168256195133 [Eh]

	 ================> DF-SCS-MP2 Energies <==================
	-----------------------------------------------------------
	 SCS Same-Spin Scale       =       0.3333333333333333 [-]
	 SCS Opposite-Spin Scale   =       1.2000000000000000 [-]
	 SCS Same-Spin Energy      =      -0.0767096919202850 [Eh]
	 SCS Opposite-Spin Energy  =      -0.9879348480011121 [Eh]
	 SCS Correlation Energy    =      -1.0646445399213971 [Eh]
	 SCS Total Energy          =    -233.2968532497791330 [Eh]
	-----------------------------------------------------------

  Dipole Moment: [D]
     X:    -0.0212      Y:     1.1764      Z:     0.0000     Total:     1.1766

*** Psi4 exiting successfully. Buy a developer a beer!
