                               Psi4 1.3.2 release

  ==> Input File <==

--------------------------------------------------------------------------
#psi4
#
memory 32 gb

molecule  {
0 1
  O        0.0000150     0.2693590    -0.0000020
  C        1.1784130    -0.5251360    -0.0000050
  C       -1.1784630    -0.5251780    -0.0000060
  C        2.2094929     0.2892719     0.0000072
  C       -2.3664280     0.4132520     0.0000040
  H        1.1945630    -1.1779900     0.8871400
  H        1.1945690    -1.1779700    -0.8871650
  H       -1.1945520    -1.1779740    -0.8871710
  H       -1.1945470    -1.1779890     0.8871480
  H        3.3031730    -0.1515840     0.0000040
  H        2.3407260     1.0507680    -0.8862060
  H        2.3407210     1.0507470     0.8862380
  H       -3.3032220    -0.1514730    -0.0000030
  H       -2.3406640     1.0507570     0.8862330
  H       -2.3406620     1.0507780    -0.8862100
units angstrom
no_reorient  #important for SAPT in psi4, default
symmetry c1  #important for SAPT in psi4, default
}

set PROPERTIES_ORIGIN ["COM"]
properties('MP2/aug-cc-pvtz', properties = ['dipole'])
--------------------------------------------------------------------------

    Molecular point group: c1
  Charge       = 0
  Multiplicity = 1
  Basis Set: AUG-CC-PVTZ
    Blend: AUG-CC-PVTZ
  Basis Set: (AUG-CC-PVTZ AUX)
    Blend: AUG-CC-PVTZ-JKFIT

    Orbital Energies [Eh]
    ---------------------

    Doubly Occupied:

       1A    -20.551559     2A    -11.272115     3A    -11.261714
       4A    -11.223758     5A    -11.211688     6A     -1.372704
       7A     -1.074658     8A     -0.993111     9A     -0.832975
      10A     -0.815017    11A     -0.681120    12A     -0.669914
      13A     -0.625338    14A     -0.608530    15A     -0.542391
      16A     -0.522475    17A     -0.516314    18A     -0.490952
      19A     -0.466979    20A     -0.455892    21A     -0.416974

  @DF-RHF Final Energy:  -232.18238933263569

   => Energetics <=

    Nuclear Repulsion Energy =            192.8051350399673254
    One-Electron Energy =                -696.7626923066459312
    Two-Electron Energy =                 271.7751679340428836
    Total Energy =                       -232.1823893326356938
  Basis Set: (AUG-CC-PVTZ AUX)
    Blend: AUG-CC-PVTZ-RI
    Molecular point group: c1

    Geometry (in Angstrom), charge = 0, multiplicity = 1:

       Center              X                  Y                   Z               Mass
    ------------   -----------------  -----------------  -----------------  -----------------
         O            0.025442230713     0.278584883246    -0.000001709379    15.994914619570
         C            1.203840230713    -0.515910116754    -0.000004709379    12.000000000000
         C           -1.153035769287    -0.515952116754    -0.000005709379    12.000000000000
         C            2.234920130713     0.298497783246     0.000007490621    12.000000000000
         C           -2.341000769287     0.422477883246     0.000004290621    12.000000000000
         H            1.219990230713    -1.168764116754     0.887140290621     1.007825032230
         H            1.219996230713    -1.168744116754    -0.887164709379     1.007825032230
         H           -1.169124769287    -1.168748116754    -0.887170709379     1.007825032230
         H           -1.169119769287    -1.168763116754     0.887148290621     1.007825032230
         H            3.328600230713    -0.142358116754     0.000004290621     1.007825032230
         H            2.366153230713     1.059993883246    -0.886205709379     1.007825032230
         H            2.366148230713     1.059972883246     0.886238290621     1.007825032230
         H           -3.277794769287    -0.142247116754    -0.000002709379     1.007825032230
         H           -2.315236769287     1.059982883246     0.886233290621     1.007825032230
         H           -2.315234769287     1.060003883246    -0.886209709379     1.007825032230

  Basis Set: AUG-CC-PVTZ
    Blend: AUG-CC-PVTZ
  Basis Set: (AUG-CC-PVTZ AUX)
    Blend: AUG-CC-PVTZ-JKFIT
	 Reference Energy          =    -232.1823893326356938 [Eh]
	 Singles Energy            =      -0.0000000000000000 [Eh]
	 Same-Spin Energy          =      -0.2331247756150604 [Eh]
	 Opposite-Spin Energy      =      -0.8270354560052593 [Eh]
	 Correlation Energy        =      -1.0601602316203198 [Eh]
	 Total Energy              =    -233.2425495642560236 [Eh]

	 ================> DF-SCS-MP2 Energies <==================
	-----------------------------------------------------------
	 SCS Same-Spin Scale       =       0.3333333333333333 [-]
	 SCS Opposite-Spin Scale   =       1.2000000000000000 [-]
	 SCS Same-Spin Energy      =      -0.0777082585383535 [Eh]
	 SCS Opposite-Spin Energy  =      -0.9924425472063111 [Eh]
	 SCS Correlation Energy    =      -1.0701508057446645 [Eh]
	 SCS Total Energy          =    -233.2525401383803683 [Eh]
	-----------------------------------------------------------

  Dipole Moment: [D]
     X:     0.0591      Y:    -1.1882      Z:    -0.0000     Total:     1.1897

*** Psi4 exiting successfully. Buy a developer a beer!
