                               Psi4 1.3.2 release

  ==> Input File <==

--------------------------------------------------------------------------
#psi4
#
memory 32 gb

molecule  {
0 1
  O        0.0000150     0.2693590    -0.0000020
  C        1.2550050    -0.3976075    -0.0000044
  C       -1.1784630    -0.5251780    -0.0000060
  C        2.3664400     0.4132380     0.0000090
  C       -2.3664280     0.4132520     0.0000040
  H        1.1945630    -1.1779900     0.8871400
  H        1.1945690    -1.1779700    -0.8871650
  H       -1.1945520    -1.1779740    -0.8871710
  H       -1.1945470    -1.1779890     0.8871480
  H        3.3031730    -0.1515840     0.0000040
  H        2.3407260     1.0507680    -0.8862060
  H        2.3407210     1.0507470     0.8862380
  H       -3.3032220    -0.1514730    -0.0000030
  H       -2.3406640     1.0507570     0.8862330
  H       -2.3406620     1.0507780    -0.8862100
units angstrom
no_reorient  #important for SAPT in psi4, default
symmetry c1  #important for SAPT in psi4, default
}

set PROPERTIES_ORIGIN ["COM"]
properties('MP2/aug-cc-pvtz', properties = ['dipole'])
--------------------------------------------------------------------------

    Molecular point group: c1
  Charge       = 0
  Multiplicity = 1
  Basis Set: AUG-CC-PVTZ
    Blend: AUG-CC-PVTZ
  Basis Set: (AUG-CC-PVTZ AUX)
    Blend: AUG-CC-PVTZ-JKFIT

    Orbital Energies [Eh]
    ---------------------

    Doubly Occupied:

       1A    -20.547621     2A    -11.281605     3A    -11.274039
       4A    -11.212348     5A    -11.209412     6A     -1.364400
       7A     -1.064841     8A     -0.996586     9A     -0.839011
      10A     -0.808144    11A     -0.667480    12A     -0.663213
      13A     -0.613370    14A     -0.606445    15A     -0.554362
      16A     -0.527846    17A     -0.520343    18A     -0.515857
      19A     -0.468910    20A     -0.461487    21A     -0.398834

  @DF-RHF Final Energy:  -232.20684308506713

   => Energetics <=

    Nuclear Repulsion Energy =            190.6275705306060786
    One-Electron Energy =                -692.4765197151493794
    Two-Electron Energy =                 269.6421060994761660
    Total Energy =                       -232.2068430850671348
  Basis Set: (AUG-CC-PVTZ AUX)
    Blend: AUG-CC-PVTZ-RI
    Molecular point group: c1

    Geometry (in Angstrom), charge = 0, multiplicity = 1:

       Center              X                  Y                   Z               Mass
    ------------   -----------------  -----------------  -----------------  -----------------
         O           -0.012391567832     0.237842258000    -0.000002098184    15.994914619570
         C            1.242598432168    -0.429124242000    -0.000004498184    12.000000000000
         C           -1.190869567832    -0.556694742000    -0.000006098184    12.000000000000
         C            2.354033432168     0.381721258000     0.000008901816    12.000000000000
         C           -2.378834567832     0.381735258000     0.000003901816    12.000000000000
         H            1.182156432168    -1.209506742000     0.887139901816     1.007825032230
         H            1.182162432168    -1.209486742000    -0.887165098184     1.007825032230
         H           -1.206958567832    -1.209490742000    -0.887171098184     1.007825032230
         H           -1.206953567832    -1.209505742000     0.887147901816     1.007825032230
         H            3.290766432168    -0.183100742000     0.000003901816     1.007825032230
         H            2.328319432168     1.019251258000    -0.886206098184     1.007825032230
         H            2.328314432168     1.019230258000     0.886237901816     1.007825032230
         H           -3.315628567832    -0.182989742000    -0.000003098184     1.007825032230
         H           -2.353070567832     1.019240258000     0.886232901816     1.007825032230
         H           -2.353068567832     1.019261258000    -0.886210098184     1.007825032230

  Basis Set: AUG-CC-PVTZ
    Blend: AUG-CC-PVTZ
  Basis Set: (AUG-CC-PVTZ AUX)
    Blend: AUG-CC-PVTZ-JKFIT
	 Reference Energy          =    -232.2068430850671348 [Eh]
	 Singles Energy            =      -0.0000000000000000 [Eh]
	 Same-Spin Energy          =      -0.2317774141525072 [Eh]
	 Opposite-Spin Energy      =      -0.8248252368835352 [Eh]
	 Correlation Energy        =      -1.0566026510360422 [Eh]
	 Total Energy              =    -233.2634457361031650 [Eh]

	 ================> DF-SCS-MP2 Energies <==================
	-----------------------------------------------------------
	 SCS Same-Spin Scale       =       0.3333333333333333 [-]
	 SCS Opposite-Spin Scale   =       1.2000000000000000 [-]
	 SCS Same-Spin Energy      =      -0.0772591380508357 [Eh]
	 SCS Opposite-Spin Energy  =      -0.9897902842602422 [Eh]
	 SCS Correlation Energy    =      -1.0670494223110780 [Eh]
	 SCS Total Energy          =    -233.2738925073782070 [Eh]
	-----------------------------------------------------------

  Dipole Moment: [D]
     X:     0.1543      Y:    -0.9294      Z:    -0.0000     Total:     0.9422

*** Psi4 exiting successfully. Buy a developer a beer!
