                               Psi4 1.3.2 release

  ==> Input File <==

--------------------------------------------------------------------------
#psi4
#
memory 32 gb

molecule  {
0 1
  O        0.0000150     0.2693590    -0.0000020
  C        1.1201213    -0.6054015    -0.0000054
  C       -1.1784630    -0.5251780    -0.0000060
  C        2.3664400     0.4132380     0.0000090
  C       -2.3664280     0.4132520     0.0000040
  H        1.1945630    -1.1779900     0.8871400
  H        1.1945690    -1.1779700    -0.8871650
  H       -1.1945520    -1.1779740    -0.8871710
  H       -1.1945470    -1.1779890     0.8871480
  H        3.3031730    -0.1515840     0.0000040
  H        2.3407260     1.0507680    -0.8862060
  H        2.3407210     1.0507470     0.8862380
  H       -3.3032220    -0.1514730    -0.0000030
  H       -2.3406640     1.0507570     0.8862330
  H       -2.3406620     1.0507780    -0.8862100
units angstrom
no_reorient  #important for SAPT in psi4, default
symmetry c1  #important for SAPT in psi4, default
}

set PROPERTIES_ORIGIN ["COM"]
properties('MP2/aug-cc-pvtz', properties = ['dipole'])
--------------------------------------------------------------------------

    Molecular point group: c1
  Charge       = 0
  Multiplicity = 1
  Basis Set: AUG-CC-PVTZ
    Blend: AUG-CC-PVTZ
  Basis Set: (AUG-CC-PVTZ AUX)
    Blend: AUG-CC-PVTZ-JKFIT

    Orbital Energies [Eh]
    ---------------------

    Doubly Occupied:

       1A    -20.554025     2A    -11.271186     3A    -11.268795
       4A    -11.212385     5A    -11.211184     6A     -1.370565
       7A     -1.031457     8A     -0.970545     9A     -0.842433
      10A     -0.832020    11A     -0.680307    12A     -0.660204
      13A     -0.605559    14A     -0.588713    15A     -0.544911
      16A     -0.527677    17A     -0.519921    18A     -0.495326
      19A     -0.482693    20A     -0.456135    21A     -0.426728

  @DF-RHF Final Energy:  -232.22420534456217

   => Energetics <=

    Nuclear Repulsion Energy =            189.5879626937707201
    One-Electron Energy =                -690.5188005285873487
    Two-Electron Energy =                 268.7066324902544920
    Total Energy =                       -232.2242053445621650
  Basis Set: (AUG-CC-PVTZ AUX)
    Blend: AUG-CC-PVTZ-RI
    Molecular point group: c1

    Geometry (in Angstrom), charge = 0, multiplicity = 1:

       Center              X                  Y                   Z               Mass
    ------------   -----------------  -----------------  -----------------  -----------------
         O            0.009459859757     0.271505299156    -0.000001936182    15.994914619570
         C            1.129566159757    -0.603255200844    -0.000005336182    12.000000000000
         C           -1.169018140243    -0.523031700844    -0.000005936182    12.000000000000
         C            2.375884859757     0.415384299156     0.000009063818    12.000000000000
         C           -2.356983140243     0.415398299156     0.000004063818    12.000000000000
         H            1.204007859757    -1.175843700844     0.887140063818     1.007825032230
         H            1.204013859757    -1.175823700844    -0.887164936182     1.007825032230
         H           -1.185107140243    -1.175827700844    -0.887170936182     1.007825032230
         H           -1.185102140243    -1.175842700844     0.887148063818     1.007825032230
         H            3.312617859757    -0.149437700844     0.000004063818     1.007825032230
         H            2.350170859757     1.052914299156    -0.886205936182     1.007825032230
         H            2.350165859757     1.052893299156     0.886238063818     1.007825032230
         H           -3.293777140243    -0.149326700844    -0.000002936182     1.007825032230
         H           -2.331219140243     1.052903299156     0.886233063818     1.007825032230
         H           -2.331217140243     1.052924299156    -0.886209936182     1.007825032230

  Basis Set: AUG-CC-PVTZ
    Blend: AUG-CC-PVTZ
  Basis Set: (AUG-CC-PVTZ AUX)
    Blend: AUG-CC-PVTZ-JKFIT
	 Reference Energy          =    -232.2242053445621650 [Eh]
	 Singles Energy            =      -0.0000000000000000 [Eh]
	 Same-Spin Energy          =      -0.2303287802695207 [Eh]
	 Opposite-Spin Energy      =      -0.8241383548644969 [Eh]
	 Correlation Energy        =      -1.0544671351340176 [Eh]
	 Total Energy              =    -233.2786724796961835 [Eh]

	 ================> DF-SCS-MP2 Energies <==================
	-----------------------------------------------------------
	 SCS Same-Spin Scale       =       0.3333333333333333 [-]
	 SCS Opposite-Spin Scale   =       1.2000000000000000 [-]
	 SCS Same-Spin Energy      =      -0.0767762600898402 [Eh]
	 SCS Opposite-Spin Energy  =      -0.9889660258373962 [Eh]
	 SCS Correlation Energy    =      -1.0657422859272365 [Eh]
	 SCS Total Energy          =    -233.2899476304893938 [Eh]
	-----------------------------------------------------------

  Dipole Moment: [D]
     X:    -0.1125      Y:    -1.2816      Z:    -0.0000     Total:     1.2865

*** Psi4 exiting successfully. Buy a developer a beer!
