                               Psi4 1.4a3.dev225

  ==> Input File <==
---------------------------------------------------------------------------##psi4
#
memory 32 gb

molecule  {
0 1
  O        0.0000020    -0.2691450    -0.0000020
  C        1.1619420     0.5141020     0.0000049
  C       -1.1785320     0.5252840     0.0000070
  C        2.3664120    -0.4133680    -0.0000070
  C       -2.3664110    -0.4133700    -0.0000030
  H        1.1947970     1.1780560    -0.8871580
  H        1.1948000     1.1780360     0.8871820
  H       -1.1947990     1.1780360     0.8871840
  H       -1.1947990     1.1780550    -0.8871570
  H        3.3033530     0.1510230    -0.0000020
  H        2.3404690    -1.0510140     0.8861510
  H        2.3404660    -1.0509930    -0.8861810
  H       -3.3033580     0.1510100     0.0000040
  H       -2.3404590    -1.0509950    -0.8861760
  H       -2.3404580    -1.0510150     0.8861560
units angstrom
no_reorient  #important for SAPT in psi4, default
symmetry c1  #important for SAPT in psi4, default
}

set PROPERTIES_ORIGIN ["COM"]
properties('MP2/aug-cc-pvtz', properties = ['dipole'])---------------------------------------------------------------------------

  Memory set to  29.802 GiB by Python driver.     SCF Algorithm Type (re)set to DF.

*** tstart() called on c444-063.stampede2.tacc.utexas.edu**** at Fri Mar 19 07:26:14 2021
   => Loading Basis Set <=

    Name: AUG-CC-PVTZ
    Role: ORBITAL
    Keyword: BASIS
    atoms 1    entry O          line   331 file /home1/07844/xy3866/miniconda3/envs/p4env/share/psi4/basis/aug-cc-pvtz.gbs
    atoms 2-5  entry C          line   239 file /home1/07844/xy3866/miniconda3/envs/p4env/share/psi4/basis/aug-cc-pvtz.gbs
    atoms 6-15 entry H          line    40 file /home1/07844/xy3866/miniconda3/envs/p4env/share/psi4/basis/aug-cc-pvtz.gbs

         ---------------------------------------------------------
                                   SCF
               by Justin Turney, Rob Parrish, Andy Simmonett
                          and Daniel G. A. Smith
                              RHF Reference
                       32 Threads,  30517 MiB Core
         ---------------------------------------------------------

  ==> Geometry <==

    Molecular point group: c1
    Full point group: C1

    Geometry (in Angstrom), charge = 0, multiplicity = 1:

       Center              X                  Y                   Z               Mass
    ------------   -----------------  -----------------  -----------------  -----------------
         O            0.002688855846    -0.256500252570    -0.000001916753    15.994914619570
         C            1.164628855846     0.526746747430     0.000004983247    12.000000000000
         C           -1.175845144154     0.537928747430     0.000007083247    12.000000000000
         C            2.369098855846    -0.400723252570    -0.000006916753    12.000000000000
         C           -2.363724144154    -0.400725252570    -0.000002916753    12.000000000000
         H            1.197483855846     1.190700747430    -0.887157916753     1.007825032230
         H            1.197486855846     1.190680747430     0.887182083247     1.007825032230
         H           -1.192112144154     1.190680747430     0.887184083247     1.007825032230
         H           -1.192112144154     1.190699747430    -0.887156916753     1.007825032230
         H            3.306039855846     0.163667747430    -0.000001916753     1.007825032230
         H            2.343155855846    -1.038369252570     0.886151083247     1.007825032230
         H            2.343152855846    -1.038348252570    -0.886180916753     1.007825032230
         H           -3.300671144154     0.163654747430     0.000004083247     1.007825032230
         H           -2.337772144154    -1.038350252570    -0.886175916753     1.007825032230
         H           -2.337771144154    -1.038370252570     0.886156083247     1.007825032230

  Running in c1 symmetry.

  Rotational constants: A =      0.59859  B =      0.07545  C =      0.07056 [cm^-1]
  Rotational constants: A =  17945.18685  B =   2261.83920  C =   2115.24467 [MHz]
  Nuclear repulsion =  190.193551885639693

  Charge       = 0
  Multiplicity = 1
  Electrons    = 42
  Nalpha       = 21
  Nbeta        = 21

  ==> Algorithm <==

  SCF Algorithm Type is DF.
  DIIS enabled.
  MOM disabled.
  Fractional occupation disabled.
  Guess Type is SAD.
  Energy threshold   = 1.00e-10
  Density threshold  = 1.00e-10
  Integral threshold = 1.00e-12

  ==> Primary Basis <==

  Basis Set: AUG-CC-PVTZ
    Blend: AUG-CC-PVTZ
    Number of shells: 160
    Number of basis functions: 460
    Number of Cartesian functions: 525
    Spherical Harmonics?: true
    Max angular momentum: 3

    => Loading Basis Set <=

    Name: (AUG-CC-PVTZ AUX)
    Role: JKFIT
    Keyword: DF_BASIS_SCF
    atoms 1    entry O          line   286 file /home1/07844/xy3866/miniconda3/envs/p4env/share/psi4/basis/aug-cc-pvtz-jkfit.gbs
    atoms 2-5  entry C          line   162 file /home1/07844/xy3866/miniconda3/envs/p4env/share/psi4/basis/aug-cc-pvtz-jkfit.gbs
    atoms 6-15 entry H          line    70 file /home1/07844/xy3866/miniconda3/envs/p4env/share/psi4/basis/aug-cc-pvtz-jkfit.gbs
   ==> Integral Setup <==
   DFHelper Memory: AOs need 1.555 GiB; user supplied 22.352 GiB. Using in-core AOs.
   ==> MemDFJK: Density-Fitted J/K Matrices <==

    J tasked:                   Yes
    K tasked:                   Yes
    wK tasked:                   No
    OpenMP threads:              32
    Memory [MiB]:             22888
    Algorithm:                 Core
    Schwarz Cutoff:           1E-12
    Mask sparsity (%):       5.8658
    Fitting Condition:        1E-10

   => Auxiliary Basis Set <=

  Basis Set: (AUG-CC-PVTZ AUX)
    Blend: AUG-CC-PVTZ-JKFIT
    Number of shells: 290
    Number of basis functions: 980
    Number of Cartesian functions: 1205
    Spherical Harmonics?: true
    Max angular momentum: 4
   Minimum eigenvalue in the overlap matrix is 8.7439226427E-06.
  Reciprocal condition number of the overlap matrix is 5.0142828589E-07.
    Using symmetric orthogonalization.

  ==> Pre-Iterations <==

  SCF Guess: Superposition of Atomic Densities via on-the-fly atomic UHF (no occupation information).
    -------------------------
    Irrep   Nso     Nmo
   -------------------------
     A        460     460
   -------------------------
    Total     460     460
   -------------------------

  ==> Iterations <==

                           Total Energy        Delta E     RMS |[F,P]|
    @DF-RHF iter SAD:  -231.45295938645327   -2.31453e+02   0.00000e+00     @DF-RHF iter   1:  -232.02870061212187   -5.75741e-01   1.26952e-03 DIIS    @DF-RHF iter   2:  -232.19771307623631   -1.69012e-01   5.93538e-04 DIIS    @DF-RHF iter   3:  -232.23127672260026   -3.35636e-02   1.30241e-04 DIIS    @DF-RHF iter   4:  -232.23379789728949   -2.52117e-03   5.48814e-05 DIIS    @DF-RHF iter   5:  -232.23411437924642   -3.16482e-04   7.85502e-06 DIIS    @DF-RHF iter   6:  -232.23412785872847   -1.34795e-05   1.19368e-06 DIIS    @DF-RHF iter   7:  -232.23412825437069   -3.95642e-07   2.27484e-07 DIIS    @DF-RHF iter   8:  -232.23412826633128   -1.19606e-08   6.07141e-08 DIIS    @DF-RHF iter   9:  -232.23412826710756   -7.76282e-10   1.85195e-08 DIIS    @DF-RHF iter  10:  -232.23412826718021   -7.26459e-11   5.30331e-09 DIIS    @DF-RHF iter  11:  -232.23412826718626   -6.05382e-12   1.11282e-09 DIIS    @DF-RHF iter  12:  -232.23412826718658   -3.12639e-13   3.24783e-10 DIIS    @DF-RHF iter  13:  -232.23412826718672   -1.42109e-13   1.10399e-10 DIIS    @DF-RHF iter  14:  -232.23412826718641    3.12639e-13   3.43067e-11 DIIS
  Energy and wave function converged.

  ==> Post-Iterations <==

    Orbital Energies [Eh]
    ---------------------

    Doubly Occupied:

       1A    -20.552722     2A    -11.273082     3A    -11.271935
       4A    -11.212292     5A    -11.210979     6A     -1.374780
       7A     -1.040130     8A     -0.980650     9A     -0.838955
      10A     -0.825874    11A     -0.674552    12A     -0.664266
      13A     -0.602102    14A     -0.596497    15A     -0.548425
      16A     -0.528625    17A     -0.519999    18A     -0.489948
      19A     -0.483997    20A     -0.472290    21A     -0.418302

    Virtual:

      22A      0.031268    23A      0.036032    24A      0.040277
      25A      0.040507    26A      0.054335    27A      0.055129
      28A      0.057062    29A      0.064212    30A      0.077206
      31A      0.082956    32A      0.101341    33A      0.112080
      34A      0.120323    35A      0.130719    36A      0.131104
      37A      0.133724    38A      0.136516    39A      0.140759
      40A      0.144456    41A      0.146919    42A      0.155900
      43A      0.162475    44A      0.179028    45A      0.193488
      46A      0.201622    47A      0.214340    48A      0.218353
      49A      0.230953    50A      0.232172    51A      0.236946
      52A      0.260338    53A      0.264366    54A      0.272184
      55A      0.282370    56A      0.291619    57A      0.299173
      58A      0.301259    59A      0.313580    60A      0.315586
      61A      0.316396    62A      0.322598    63A      0.340975
      64A      0.343773    65A      0.344375    66A      0.362791
      67A      0.363753    68A      0.367816    69A      0.368209
      70A      0.378636    71A      0.381040    72A      0.387139
      73A      0.387729    74A      0.399521    75A      0.405949
      76A      0.419963    77A      0.423984    78A      0.425918
      79A      0.431968    80A      0.434524    81A      0.436183
      82A      0.439820    83A      0.457978    84A      0.458067
      85A      0.460220    86A      0.469375    87A      0.472014
      88A      0.472463    89A      0.481218    90A      0.481382
      91A      0.484635    92A      0.486821    93A      0.501735
      94A      0.503313    95A      0.506303    96A      0.527659
      97A      0.529681    98A      0.534875    99A      0.535504
     100A      0.549096   101A      0.557060   102A      0.577754
     103A      0.577941   104A      0.583763   105A      0.603493
     106A      0.605077   107A      0.614412   108A      0.630518
     109A      0.634870   110A      0.638990   111A      0.645834
     112A      0.678280   113A      0.681058   114A      0.692828
     115A      0.719741   116A      0.753973   117A      0.759901
     118A      0.773893   119A      0.788783   120A      0.789085
     121A      0.806556   122A      0.815201   123A      0.830348
     124A      0.833370   125A      0.836443   126A      0.850060
     127A      0.851856   128A      0.853057   129A      0.867541
     130A      0.872399   131A      0.886032   132A      0.901042
     133A      0.909532   134A      0.910520   135A      0.911747
     136A      0.914152   137A      0.915281   138A      0.934089
     139A      0.934125   140A      0.941311   141A      0.950661
     142A      0.953376   143A      0.965054   144A      0.969288
     145A      0.981033   146A      0.985245   147A      0.997689
     148A      1.007276   149A      1.013816   150A      1.047678
     151A      1.048479   152A      1.054992   153A      1.060955
     154A      1.061459   155A      1.070113   156A      1.077240
     157A      1.081476   158A      1.094935   159A      1.098046
     160A      1.122283   161A      1.124587   162A      1.126470
     163A      1.128202   164A      1.140097   165A      1.143754
     166A      1.161945   167A      1.170833   168A      1.181156
     169A      1.184502   170A      1.198885   171A      1.200000
     172A      1.208990   173A      1.230448   174A      1.239318
     175A      1.245546   176A      1.250378   177A      1.259832
     178A      1.264391   179A      1.286874   180A      1.290694
     181A      1.293818   182A      1.308710   183A      1.321224
     184A      1.323044   185A      1.348130   186A      1.356382
     187A      1.365010   188A      1.379850   189A      1.386804
     190A      1.427810   191A      1.434710   192A      1.440532
     193A      1.457191   194A      1.466593   195A      1.475315
     196A      1.497390   197A      1.503813   198A      1.535162
     199A      1.544080   200A      1.570334   201A      1.580942
     202A      1.595372   203A      1.598589   204A      1.607435
     205A      1.613851   206A      1.641892   207A      1.642231
     208A      1.644618   209A      1.646288   210A      1.652696
     211A      1.664537   212A      1.670124   213A      1.675459
     214A      1.687779   215A      1.690114   216A      1.702168
     217A      1.709522   218A      1.716408   219A      1.718929
     220A      1.727175   221A      1.738118   222A      1.757489
     223A      1.769289   224A      1.770580   225A      1.793113
     226A      1.808228   227A      1.811510   228A      1.818344
     229A      1.826461   230A      1.841009   231A      1.867156
     232A      1.869969   233A      1.891001   234A      1.894358
     235A      1.905234   236A      1.930523   237A      1.942414
     238A      1.976113   239A      1.976703   240A      1.987976
     241A      1.991742   242A      2.009073   243A      2.038249
     244A      2.043753   245A      2.057399   246A      2.071155
     247A      2.102006   248A      2.123875   249A      2.127063
     250A      2.137334   251A      2.146631   252A      2.200007
     253A      2.228670   254A      2.230039   255A      2.238733
     256A      2.243998   257A      2.248464   258A      2.267661
     259A      2.276379   260A      2.283819   261A      2.305399
     262A      2.312687   263A      2.328276   264A      2.365636
     265A      2.367815   266A      2.398664   267A      2.421216
     268A      2.450779   269A      2.479230   270A      2.485788
     271A      2.508996   272A      2.523928   273A      2.562523
     274A      2.571832   275A      2.641522   276A      2.704897
     277A      2.774717   278A      2.803396   279A      2.855653
     280A      2.885951   281A      2.887059   282A      2.969302
     283A      2.970327   284A      3.039423   285A      3.042752
     286A      3.093090   287A      3.160491   288A      3.171464
     289A      3.176495   290A      3.247872   291A      3.285446
     292A      3.322530   293A      3.357189   294A      3.397080
     295A      3.403798   296A      3.422934   297A      3.438394
     298A      3.462861   299A      3.470372   300A      3.473830
     301A      3.554020   302A      3.560566   303A      3.604638
     304A      3.612976   305A      3.639942   306A      3.658493
     307A      3.690075   308A      3.698078   309A      3.698810
     310A      3.700714   311A      3.705330   312A      3.712878
     313A      3.722734   314A      3.726117   315A      3.756597
     316A      3.772866   317A      3.786731   318A      3.790870
     319A      3.805121   320A      3.807184   321A      3.847855
     322A      3.859304   323A      3.881382   324A      3.896885
     325A      3.913506   326A      3.917173   327A      3.926096
     328A      3.954208   329A      3.966607   330A      3.978525
     331A      3.986853   332A      4.007196   333A      4.028322
     334A      4.034112   335A      4.061233   336A      4.092500
     337A      4.109757   338A      4.111797   339A      4.147317
     340A      4.152657   341A      4.163186   342A      4.177826
     343A      4.211864   344A      4.228226   345A      4.250246
     346A      4.251226   347A      4.255324   348A      4.266302
     349A      4.295994   350A      4.301751   351A      4.309411
     352A      4.363388   353A      4.367678   354A      4.410891
     355A      4.429378   356A      4.452046   357A      4.484451
     358A      4.486880   359A      4.506968   360A      4.507076
     361A      4.522472   362A      4.562358   363A      4.580948
     364A      4.606189   365A      4.610004   366A      4.668595
     367A      4.671116   368A      4.674972   369A      4.722306
     370A      4.762452   371A      4.800461   372A      4.833155
     373A      4.833380   374A      4.838923   375A      4.853467
     376A      4.860000   377A      4.860021   378A      4.869366
     379A      4.875055   380A      4.876737   381A      4.938735
     382A      4.955861   383A      4.982336   384A      5.014888
     385A      5.028561   386A      5.032888   387A      5.060578
     388A      5.118059   389A      5.133811   390A      5.137869
     391A      5.139124   392A      5.163274   393A      5.180717
     394A      5.205582   395A      5.213567   396A      5.230736
     397A      5.233058   398A      5.257661   399A      5.277807
     400A      5.322234   401A      5.337219   402A      5.384092
     403A      5.388760   404A      5.401520   405A      5.421938
     406A      5.434478   407A      5.456935   408A      5.470036
     409A      5.507095   410A      5.508933   411A      5.546282
     412A      5.576222   413A      5.610688   414A      5.634317
     415A      5.679675   416A      5.736512   417A      5.763670
     418A      5.766569   419A      5.802244   420A      5.835117
     421A      5.846121   422A      5.893366   423A      5.979390
     424A      6.009090   425A      6.056462   426A      6.061615
     427A      6.066543   428A      6.084831   429A      6.126765
     430A      6.172396   431A      6.223330   432A      6.235407
     433A      6.237549   434A      6.247648   435A      6.398877
     436A      6.449724   437A      6.698607   438A      6.704275
     439A      6.751896   440A      6.777193   441A      6.817641
     442A      6.858259   443A      6.879615   444A      7.031411
     445A      7.077502   446A      7.281240   447A      7.325303
     448A      7.495431   449A      7.558649   450A      7.706780
     451A      7.790731   452A      7.840213   453A      8.039885
     454A      8.412322   455A      8.469525   456A     15.414231
     457A     17.740780   458A     18.011832   459A     18.366795
     460A     18.581291

    Final Occupation by Irrep:
              A
    DOCC [    21 ]

  @DF-RHF Final Energy:  -232.23412826718641

   => Energetics <=

    Nuclear Repulsion Energy =            190.1935518856396925
    One-Electron Energy =                -691.6945523784659144
    Two-Electron Energy =                 269.2668722256398155
    Total Energy =                       -232.2341282671864064

Computation Completed

*** tstop() called on c444-063.stampede2.tacc.utexas.edu at Fri Mar 19 07:28:01 2021
Module time:
	user time   =     236.92 seconds =       3.95 minutes
	system time =      18.23 seconds =       0.30 minutes
	total time  =        107 seconds =       1.78 minutes
Total time:
	user time   =     236.92 seconds =       3.95 minutes
	system time =      18.23 seconds =       0.30 minutes
	total time  =        107 seconds =       1.78 minutes    => Loading Basis Set <=

    Name: (AUG-CC-PVTZ AUX)
    Role: RIFIT
    Keyword: DF_BASIS_MP2
    atoms 1    entry O          line   264 file /home1/07844/xy3866/miniconda3/envs/p4env/share/psi4/basis/aug-cc-pvtz-ri.gbs
    atoms 2-5  entry C          line   148 file /home1/07844/xy3866/miniconda3/envs/p4env/share/psi4/basis/aug-cc-pvtz-ri.gbs
    atoms 6-15 entry H          line    30 file /home1/07844/xy3866/miniconda3/envs/p4env/share/psi4/basis/aug-cc-pvtz-ri.gbs

*** tstart() called on c444-063.stampede2.tacc.utexas.edu
*** at Fri Mar 19 07:28:02 2021

  //>>>>>>>>>>>>>>>>>>>>>>>>>>>>>>>>>>>//
  //               DFMP2               //
  //<<<<<<<<<<<<<<<<<<<<<<<<<<<<<<<<<<<//

	 --------------------------------------------------------
	                          DF-MP2
	      2nd-Order Density-Fitted Moller-Plesset Theory
	              RMP2 Wavefunction,  32 Threads

	        Rob Parrish, Justin Turney, Andy Simmonett,
	           Ed Hohenstein, and C. David Sherrill
	 --------------------------------------------------------

   => Auxiliary Basis Set <=

  Basis Set: (AUG-CC-PVTZ AUX)
    Blend: AUG-CC-PVTZ-RI
    Number of shells: 280
    Number of basis functions: 990
    Number of Cartesian functions: 1230
    Spherical Harmonics?: true
    Max angular momentum: 4

	 --------------------------------------------------------
	                 NBF =   460, NAUX =   990
	 --------------------------------------------------------
	   CLASS    FOCC     OCC    AOCC    AVIR     VIR    FVIR
	   PAIRS       0      21      21     439     439       0
	 --------------------------------------------------------
   DFHelper Memory: AOs need 1.587 GiB; user supplied 22.352 GiB. Using in-core AOs.

         ------------------------------------------------------------
                                     CPHF
                                  Rob Parrish
         ------------------------------------------------------------

  ==> Geometry <==

    Molecular point group: c1
    Full point group: C1

    Geometry (in Angstrom), charge = 0, multiplicity = 1:

       Center              X                  Y                   Z               Mass
    ------------   -----------------  -----------------  -----------------  -----------------
         O            0.002688855846    -0.256500252570    -0.000001916753    15.994914619570
         C            1.164628855846     0.526746747430     0.000004983247    12.000000000000
         C           -1.175845144154     0.537928747430     0.000007083247    12.000000000000
         C            2.369098855846    -0.400723252570    -0.000006916753    12.000000000000
         C           -2.363724144154    -0.400725252570    -0.000002916753    12.000000000000
         H            1.197483855846     1.190700747430    -0.887157916753     1.007825032230
         H            1.197486855846     1.190680747430     0.887182083247     1.007825032230
         H           -1.192112144154     1.190680747430     0.887184083247     1.007825032230
         H           -1.192112144154     1.190699747430    -0.887156916753     1.007825032230
         H            3.306039855846     0.163667747430    -0.000001916753     1.007825032230
         H            2.343155855846    -1.038369252570     0.886151083247     1.007825032230
         H            2.343152855846    -1.038348252570    -0.886180916753     1.007825032230
         H           -3.300671144154     0.163654747430     0.000004083247     1.007825032230
         H           -2.337772144154    -1.038350252570    -0.886175916753     1.007825032230
         H           -2.337771144154    -1.038370252570     0.886156083247     1.007825032230

  Nuclear repulsion =  190.193551885639693
  Reference energy  = -232.234128267186406

  ==> Basis Set <==

  Basis Set: AUG-CC-PVTZ
    Blend: AUG-CC-PVTZ
    Number of shells: 160
    Number of basis functions: 460
    Number of Cartesian functions: 525
    Spherical Harmonics?: true
    Max angular momentum: 3

  ==> CGRSolver (by Rob Parrish) <==

   Number of roots    =         1
   Preconditioning    =    JACOBI
   Convergence cutoff =     1E-06
   Maximum iterations =       100

  ==> CPHFRHamiltonian (by Rob Parrish) <==

  ==> MemDFJK: Density-Fitted J/K Matrices <==

    J tasked:                   Yes
    K tasked:                   Yes
    wK tasked:                   No
    OpenMP threads:              32
    Memory [MiB]:             22888
    Algorithm:                 Core
    Schwarz Cutoff:           1E-12
    Mask sparsity (%):       3.7476
    Fitting Condition:        1E-10

   => Auxiliary Basis Set <=

  Basis Set: (AUG-CC-PVTZ AUX)
    Blend: AUG-CC-PVTZ-JKFIT
    Number of shells: 290
    Number of basis functions: 980
    Number of Cartesian functions: 1205
    Spherical Harmonics?: true
    Max angular momentum: 4

  ==> CPHF Iterations <==

  => Iterations <=

             Iter  Converged  Remaining    Residual   CGR           1          0          1   8.052E-02
  CGR           2          0          1   1.892E-02
  CGR           3          0          1   6.558E-03
  CGR           4          0          1   1.380E-03
  CGR           5          0          1   3.193E-04
  CGR           6          0          1   8.580E-05
  CGR           7          0          1   1.728E-05
  CGR           8          0          1   5.516E-06
  CGR           9          0          1   1.287E-06
  CGR          10          1          0   3.361E-07

    CGRSolver converged.

	-----------------------------------------------------------
	 ==================> DF-MP2 Energies <====================
	-----------------------------------------------------------
	 Reference Energy          =    -232.2341282671864064 [Eh]
	 Singles Energy            =      -0.0000000000000000 [Eh]
	 Same-Spin Energy          =      -0.2302861775143986 [Eh]
	 Opposite-Spin Energy      =      -0.8230338266154853 [Eh]
	 Correlation Energy        =      -1.0533200041298840 [Eh]
	 Total Energy              =    -233.2874482713162934 [Eh]
	-----------------------------------------------------------
	 ================> DF-SCS-MP2 Energies <==================
	-----------------------------------------------------------
	 SCS Same-Spin Scale       =       0.3333333333333333 [-]
	 SCS Opposite-Spin Scale   =       1.2000000000000000 [-]
	 SCS Same-Spin Energy      =      -0.0767620591714662 [Eh]
	 SCS Opposite-Spin Energy  =      -0.9876405919385823 [Eh]
	 SCS Correlation Energy    =      -1.0644026511100486 [Eh]
	 SCS Total Energy          =    -233.2985309182964500 [Eh]
	-----------------------------------------------------------

Properties will be evaluated at  -0.000000,   0.000000,   0.000000 [a0]

Properties computed using the MP2 density matrix

  Nuclear Dipole Moment: [e a0]
     X:     0.0252      Y:     0.8768      Z:     0.0000

  Electronic Dipole Moment: [e a0]
     X:    -0.0575      Y:    -0.4285      Z:     0.0000

  Dipole Moment: [e a0]
     X:    -0.0323      Y:     0.4483      Z:     0.0000     Total:     0.4495

  Dipole Moment: [D]
     X:    -0.0821      Y:     1.1395      Z:     0.0000     Total:     1.1424

*** tstop() called on c444-063.stampede2.tacc.utexas.edu at Fri Mar 19 07:29:14 2021
Module time:
	user time   =     572.31 seconds =       9.54 minutes
	system time =      19.84 seconds =       0.33 minutes
	total time  =         72 seconds =       1.20 minutes
Total time:
	user time   =     809.95 seconds =      13.50 minutes
	system time =      38.09 seconds =       0.63 minutes
	total time  =        180 seconds =       3.00 minutes

    Psi4 stopped on: Friday, 19 March 2021 07:29AM
    Psi4 wall time for execution: 0:03:00.43

*** Psi4 exiting successfully. Buy a developer a beer!
