                               Psi4 1.3.2 release

  ==> Input File <==

--------------------------------------------------------------------------
#psi4
#
memory 32 gb

molecule  {
0 1
  O        0.0000150     0.2693590    -0.0000020
  C        1.1499677    -0.5657775    -0.0000052
  C       -1.1784630    -0.5251780    -0.0000060
  C        2.3664400     0.4132380     0.0000090
  C       -2.3664280     0.4132520     0.0000040
  H        1.1945630    -1.1779900     0.8871400
  H        1.1945690    -1.1779700    -0.8871650
  H       -1.1945520    -1.1779740    -0.8871710
  H       -1.1945470    -1.1779890     0.8871480
  H        3.3031730    -0.1515840     0.0000040
  H        2.3407260     1.0507680    -0.8862060
  H        2.3407210     1.0507470     0.8862380
  H       -3.3032220    -0.1514730    -0.0000030
  H       -2.3406640     1.0507570     0.8862330
  H       -2.3406620     1.0507780    -0.8862100
units angstrom
no_reorient  #important for SAPT in psi4, default
symmetry c1  #important for SAPT in psi4, default
}

set PROPERTIES_ORIGIN ["COM"]
properties('MP2/aug-cc-pvtz', properties = ['dipole'])
--------------------------------------------------------------------------

    Molecular point group: c1
  Charge       = 0
  Multiplicity = 1
  Basis Set: AUG-CC-PVTZ
    Blend: AUG-CC-PVTZ
  Basis Set: (AUG-CC-PVTZ AUX)
    Blend: AUG-CC-PVTZ-JKFIT

    Orbital Energies [Eh]
    ---------------------

    Doubly Occupied:

       1A    -20.552299     2A    -11.271376     3A    -11.269882
       4A    -11.211986     5A    -11.211288     6A     -1.368838
       7A     -1.035047     8A     -0.975809     9A     -0.839158
      10A     -0.830214    11A     -0.676363    12A     -0.660487
      13A     -0.604092    14A     -0.590398    15A     -0.546559
      16A     -0.527811    17A     -0.519842    18A     -0.490467
      19A     -0.481855    20A     -0.469436    21A     -0.423154

  @DF-RHF Final Energy:  -232.23153331122214

   => Energetics <=

    Nuclear Repulsion Energy =            189.7514008704910680
    One-Electron Energy =                -690.8531501219741813
    Two-Electron Energy =                 268.8702159402610050
    Total Energy =                       -232.2315333112221083
  Basis Set: (AUG-CC-PVTZ AUX)
    Blend: AUG-CC-PVTZ-RI
    Molecular point group: c1

    Geometry (in Angstrom), charge = 0, multiplicity = 1:

       Center              X                  Y                   Z               Mass
    ------------   -----------------  -----------------  -----------------  -----------------
         O            0.004624683614     0.265086132372    -0.000001968582    15.994914619570
         C            1.154577383614    -0.570050367628    -0.000005168582    12.000000000000
         C           -1.173853316386    -0.529450867628    -0.000005968582    12.000000000000
         C            2.371049683614     0.408965132372     0.000009031418    12.000000000000
         C           -2.361818316386     0.408979132372     0.000004031418    12.000000000000
         H            1.199172683614    -1.182262867628     0.887140031418     1.007825032230
         H            1.199178683614    -1.182242867628    -0.887164968582     1.007825032230
         H           -1.189942316386    -1.182246867628    -0.887170968582     1.007825032230
         H           -1.189937316386    -1.182261867628     0.887148031418     1.007825032230
         H            3.307782683614    -0.155856867628     0.000004031418     1.007825032230
         H            2.345335683614     1.046495132372    -0.886205968582     1.007825032230
         H            2.345330683614     1.046474132372     0.886238031418     1.007825032230
         H           -3.298612316386    -0.155745867628    -0.000002968582     1.007825032230
         H           -2.336054316386     1.046484132372     0.886233031418     1.007825032230
         H           -2.336052316386     1.046505132372    -0.886209968582     1.007825032230

  Basis Set: AUG-CC-PVTZ
    Blend: AUG-CC-PVTZ
  Basis Set: (AUG-CC-PVTZ AUX)
    Blend: AUG-CC-PVTZ-JKFIT
	 Reference Energy          =    -232.2315333112221367 [Eh]
	 Singles Energy            =      -0.0000000000000000 [Eh]
	 Same-Spin Energy          =      -0.2302372202923713 [Eh]
	 Opposite-Spin Energy      =      -0.8235641694279430 [Eh]
	 Correlation Energy        =      -1.0538013897203142 [Eh]
	 Total Energy              =    -233.2853347009424567 [Eh]

	 ================> DF-SCS-MP2 Energies <==================
	-----------------------------------------------------------
	 SCS Same-Spin Scale       =       0.3333333333333333 [-]
	 SCS Opposite-Spin Scale   =       1.2000000000000000 [-]
	 SCS Same-Spin Energy      =      -0.0767457400974571 [Eh]
	 SCS Opposite-Spin Energy  =      -0.9882770033135315 [Eh]
	 SCS Correlation Energy    =      -1.0650227434109887 [Eh]
	 SCS Total Energy          =    -233.2965560546331290 [Eh]
	-----------------------------------------------------------

  Dipole Moment: [D]
     X:    -0.0554      Y:    -1.2315      Z:    -0.0000     Total:     1.2328

*** Psi4 exiting successfully. Buy a developer a beer!
