                               Psi4 1.3.2 release

  ==> Input File <==

--------------------------------------------------------------------------
#psi4
#
memory 32 gb

molecule  {
0 1
  O        0.0000150     0.2693590    -0.0000020
  C        1.1784130    -0.5251360    -0.0000050
  C       -1.1784630    -0.5251780    -0.0000060
  C        2.2879664     0.3512549     0.0000081
  C       -2.3664280     0.4132520     0.0000040
  H        1.1945630    -1.1779900     0.8871400
  H        1.1945690    -1.1779700    -0.8871650
  H       -1.1945520    -1.1779740    -0.8871710
  H       -1.1945470    -1.1779890     0.8871480
  H        3.3031730    -0.1515840     0.0000040
  H        2.3407260     1.0507680    -0.8862060
  H        2.3407210     1.0507470     0.8862380
  H       -3.3032220    -0.1514730    -0.0000030
  H       -2.3406640     1.0507570     0.8862330
  H       -2.3406620     1.0507780    -0.8862100
units angstrom
no_reorient  #important for SAPT in psi4, default
symmetry c1  #important for SAPT in psi4, default
}

set PROPERTIES_ORIGIN ["COM"]
properties('MP2/aug-cc-pvtz', properties = ['dipole'])
--------------------------------------------------------------------------

    Molecular point group: c1
  Charge       = 0
  Multiplicity = 1
  Basis Set: AUG-CC-PVTZ
    Blend: AUG-CC-PVTZ
  Basis Set: (AUG-CC-PVTZ AUX)
    Blend: AUG-CC-PVTZ-JKFIT

    Orbital Energies [Eh]
    ---------------------

    Doubly Occupied:

       1A    -20.551017     2A    -11.271898     3A    -11.267218
       4A    -11.216480     5A    -11.211534     6A     -1.369536
       7A     -1.053388     8A     -0.987508     9A     -0.833698
      10A     -0.823273    11A     -0.676228    12A     -0.664645
      13A     -0.607533    14A     -0.605030    15A     -0.543037
      16A     -0.519909    17A     -0.512646    18A     -0.500556
      19A     -0.474198    20A     -0.472982    21A     -0.418703

  @DF-RHF Final Energy:  -232.22224590020380

   => Energetics <=

    Nuclear Repulsion Energy =            191.2982735761075332
    One-Electron Energy =                -693.8790025338900023
    Two-Electron Energy =                 270.3584830575786668
    Total Energy =                       -232.2222459002038022
  Basis Set: (AUG-CC-PVTZ AUX)
    Blend: AUG-CC-PVTZ-RI
    Molecular point group: c1

    Geometry (in Angstrom), charge = 0, multiplicity = 1:

       Center              X                  Y                   Z               Mass
    ------------   -----------------  -----------------  -----------------  -----------------
         O            0.012729367685     0.268543514005    -0.000001855181    15.994914619570
         C            1.191127367685    -0.525951485995    -0.000004855181    12.000000000000
         C           -1.165748632315    -0.525993485995    -0.000005855181    12.000000000000
         C            2.300680767685     0.350439414005     0.000008244819    12.000000000000
         C           -2.353713632315     0.412436514005     0.000004144819    12.000000000000
         H            1.207277367685    -1.178805485995     0.887140144819     1.007825032230
         H            1.207283367685    -1.178785485995    -0.887164855181     1.007825032230
         H           -1.181837632315    -1.178789485995    -0.887170855181     1.007825032230
         H           -1.181832632315    -1.178804485995     0.887148144819     1.007825032230
         H            3.315887367685    -0.152399485995     0.000004144819     1.007825032230
         H            2.353440367685     1.049952514005    -0.886205855181     1.007825032230
         H            2.353435367685     1.049931514005     0.886238144819     1.007825032230
         H           -3.290507632315    -0.152288485995    -0.000002855181     1.007825032230
         H           -2.327949632315     1.049941514005     0.886233144819     1.007825032230
         H           -2.327947632315     1.049962514005    -0.886209855181     1.007825032230

  Basis Set: AUG-CC-PVTZ
    Blend: AUG-CC-PVTZ
  Basis Set: (AUG-CC-PVTZ AUX)
    Blend: AUG-CC-PVTZ-JKFIT
	 Reference Energy          =    -232.2222459002038022 [Eh]
	 Singles Energy            =      -0.0000000000000000 [Eh]
	 Same-Spin Energy          =      -0.2312913355130516 [Eh]
	 Opposite-Spin Energy      =      -0.8244440465938103 [Eh]
	 Correlation Energy        =      -1.0557353821068620 [Eh]
	 Total Energy              =    -233.2779812823106624 [Eh]

	 ================> DF-SCS-MP2 Energies <==================
	-----------------------------------------------------------
	 SCS Same-Spin Scale       =       0.3333333333333333 [-]
	 SCS Opposite-Spin Scale   =       1.2000000000000000 [-]
	 SCS Same-Spin Energy      =      -0.0770971118376839 [Eh]
	 SCS Opposite-Spin Energy  =      -0.9893328559125724 [Eh]
	 SCS Correlation Energy    =      -1.0664299677502562 [Eh]
	 SCS Total Energy          =    -233.2886758679540549 [Eh]
	-----------------------------------------------------------

  Dipole Moment: [D]
     X:     0.0342      Y:    -1.1717      Z:    -0.0000     Total:     1.1722

*** Psi4 exiting successfully. Buy a developer a beer!
