                               Psi4 1.3.2 release

  ==> Input File <==

--------------------------------------------------------------------------
#psi4
#
memory 32 gb

molecule  {
0 1
  O        0.0000150     0.2693590    -0.0000020
  C        1.2613280    -0.5810386    -0.0000052
  C       -1.1784630    -0.5251780    -0.0000060
  C        2.3664400     0.4132380     0.0000090
  C       -2.3664280     0.4132520     0.0000040
  H        1.1945630    -1.1779900     0.8871400
  H        1.1945690    -1.1779700    -0.8871650
  H       -1.1945520    -1.1779740    -0.8871710
  H       -1.1945470    -1.1779890     0.8871480
  H        3.3031730    -0.1515840     0.0000040
  H        2.3407260     1.0507680    -0.8862060
  H        2.3407210     1.0507470     0.8862380
  H       -3.3032220    -0.1514730    -0.0000030
  H       -2.3406640     1.0507570     0.8862330
  H       -2.3406620     1.0507780    -0.8862100
units angstrom
no_reorient  #important for SAPT in psi4, default
symmetry c1  #important for SAPT in psi4, default
}

set PROPERTIES_ORIGIN ["COM"]
properties('MP2/aug-cc-pvtz', properties = ['dipole'])
--------------------------------------------------------------------------

    Molecular point group: c1
  Charge       = 0
  Multiplicity = 1
  Basis Set: AUG-CC-PVTZ
    Blend: AUG-CC-PVTZ
  Basis Set: (AUG-CC-PVTZ AUX)
    Blend: AUG-CC-PVTZ-JKFIT

    Orbital Energies [Eh]
    ---------------------

    Doubly Occupied:

       1A    -20.540869     2A    -11.273263     3A    -11.265551
       4A    -11.214389     5A    -11.207431     6A     -1.335498
       7A     -1.041421     8A     -0.982459     9A     -0.839418
      10A     -0.822250    11A     -0.668920    12A     -0.644924
      13A     -0.609164    14A     -0.582936    15A     -0.549432
      16A     -0.524674    17A     -0.521628    18A     -0.492427
      19A     -0.491900    20A     -0.457803    21A     -0.416770

  @DF-RHF Final Energy:  -232.22420116590797

   => Energetics <=

    Nuclear Repulsion Energy =            188.6910895041826564
    One-Electron Energy =                -688.8643251129943792
    Two-Electron Energy =                 267.9490344429037805
    Total Energy =                       -232.2242011659079708
  Basis Set: (AUG-CC-PVTZ AUX)
    Blend: AUG-CC-PVTZ-RI
    Molecular point group: c1

    Geometry (in Angstrom), charge = 0, multiplicity = 1:

       Center              X                  Y                   Z               Mass
    ------------   -----------------  -----------------  -----------------  -----------------
         O           -0.013415906404     0.267558460915    -0.000001968582    15.994914619570
         C            1.247897093596    -0.582839139085    -0.000005168582    12.000000000000
         C           -1.191893906404    -0.526978539085    -0.000005968582    12.000000000000
         C            2.353009093596     0.411437460915     0.000009031418    12.000000000000
         C           -2.379858906404     0.411451460915     0.000004031418    12.000000000000
         H            1.181132093596    -1.179790539085     0.887140031418     1.007825032230
         H            1.181138093596    -1.179770539085    -0.887164968582     1.007825032230
         H           -1.207982906404    -1.179774539085    -0.887170968582     1.007825032230
         H           -1.207977906404    -1.179789539085     0.887148031418     1.007825032230
         H            3.289742093596    -0.153384539085     0.000004031418     1.007825032230
         H            2.327295093596     1.048967460915    -0.886205968582     1.007825032230
         H            2.327290093596     1.048946460915     0.886238031418     1.007825032230
         H           -3.316652906404    -0.153273539085    -0.000002968582     1.007825032230
         H           -2.354094906404     1.048956460915     0.886233031418     1.007825032230
         H           -2.354092906404     1.048977460915    -0.886209968582     1.007825032230

  Basis Set: AUG-CC-PVTZ
    Blend: AUG-CC-PVTZ
  Basis Set: (AUG-CC-PVTZ AUX)
    Blend: AUG-CC-PVTZ-JKFIT
	 Reference Energy          =    -232.2242011659079708 [Eh]
	 Singles Energy            =      -0.0000000000000000 [Eh]
	 Same-Spin Energy          =      -0.2309295410351371 [Eh]
	 Opposite-Spin Energy      =      -0.8255087400578208 [Eh]
	 Correlation Energy        =      -1.0564382810929580 [Eh]
	 Total Energy              =    -233.2806394470009366 [Eh]

	 ================> DF-SCS-MP2 Energies <==================
	-----------------------------------------------------------
	 SCS Same-Spin Scale       =       0.3333333333333333 [-]
	 SCS Opposite-Spin Scale   =       1.2000000000000000 [-]
	 SCS Same-Spin Energy      =      -0.0769765136783790 [Eh]
	 SCS Opposite-Spin Energy  =      -0.9906104880693849 [Eh]
	 SCS Correlation Energy    =      -1.0675870017477640 [Eh]
	 SCS Total Energy          =    -233.2917881676557386 [Eh]
	-----------------------------------------------------------

  Dipole Moment: [D]
     X:     0.3731      Y:    -1.3049      Z:    -0.0000     Total:     1.3571

*** Psi4 exiting successfully. Buy a developer a beer!
