                               Psi4 1.3.2 release

  ==> Input File <==

--------------------------------------------------------------------------
#psi4
#
memory 32 gb

molecule  {
0 1
  O        0.0000150     0.2693590    -0.0000020
  C        1.1784130    -0.5251360    -0.0000050
  C       -1.1784630    -0.5251780    -0.0000060
  C        2.3664400     0.4132380     0.0000090
  C       -2.3664280     0.4132520     0.0000040
  H        1.1945630    -1.1779900     0.8871400
  H        1.1945690    -1.1779700    -0.8871650
  H       -1.1945520    -1.1779740    -0.8871710
  H       -1.1945470    -1.1779890     0.8871480
  H        3.3031730    -0.1515840     0.0000040
  H        2.3407260     1.0507680    -0.8862060
  H        2.3407210     1.0507470     0.8862380
  H       -3.3032220    -0.1514730    -0.0000030
  H       -2.3406640     1.0507570     0.8862330
  H       -2.3406620     1.0507780    -0.8862100
units angstrom
no_reorient  #important for SAPT in psi4, default
symmetry c1  #important for SAPT in psi4, default
}

set PROPERTIES_ORIGIN ["COM"]
properties('MP2/aug-cc-pvtz', properties = ['dipole'])
--------------------------------------------------------------------------

    Molecular point group: c1
  Charge       = 0
  Multiplicity = 1
  Basis Set: AUG-CC-PVTZ
    Blend: AUG-CC-PVTZ
  Basis Set: (AUG-CC-PVTZ AUX)
    Blend: AUG-CC-PVTZ-JKFIT

    Orbital Energies [Eh]
    ---------------------

    Doubly Occupied:

       1A    -20.550783     2A    -11.271774     3A    -11.271753
       4A    -11.211459     5A    -11.211453     6A     -1.367366
       7A     -1.039844     8A     -0.981325     9A     -0.837717
      10A     -0.826278    11A     -0.673062    12A     -0.660868
      13A     -0.603297    14A     -0.593602    15A     -0.548354
      16A     -0.527864    17A     -0.519463    18A     -0.489361
      19A     -0.485081    20A     -0.472803    21A     -0.418834

  @DF-RHF Final Energy:  -232.23409683004334

   => Energetics <=

    Nuclear Repulsion Energy =            189.9352149459886903
    One-Electron Energy =                -691.2139434508491149
    Two-Electron Energy =                 269.0446316748170261
    Total Energy =                       -232.2340968300433701
  Basis Set: (AUG-CC-PVTZ AUX)
    Blend: AUG-CC-PVTZ-RI
    Molecular point group: c1

    Geometry (in Angstrom), charge = 0, multiplicity = 1:

       Center              X                  Y                   Z               Mass
    ------------   -----------------  -----------------  -----------------  -----------------
         O            0.000016488456     0.258502128565    -0.000002000982    15.994914619570
         C            1.178414488456    -0.535992871435    -0.000005000982    12.000000000000
         C           -1.178461511544    -0.536034871435    -0.000006000982    12.000000000000
         C            2.366441488456     0.402381128565     0.000008999018    12.000000000000
         C           -2.366426511544     0.402395128565     0.000003999018    12.000000000000
         H            1.194564488456    -1.188846871435     0.887139999018     1.007825032230
         H            1.194570488456    -1.188826871435    -0.887165000982     1.007825032230
         H           -1.194550511544    -1.188830871435    -0.887171000982     1.007825032230
         H           -1.194545511544    -1.188845871435     0.887147999018     1.007825032230
         H            3.303174488456    -0.162440871435     0.000003999018     1.007825032230
         H            2.340727488456     1.039911128565    -0.886206000982     1.007825032230
         H            2.340722488456     1.039890128565     0.886237999018     1.007825032230
         H           -3.303220511544    -0.162329871435    -0.000003000982     1.007825032230
         H           -2.340662511544     1.039900128565     0.886232999018     1.007825032230
         H           -2.340660511544     1.039921128565    -0.886210000982     1.007825032230

  Basis Set: AUG-CC-PVTZ
    Blend: AUG-CC-PVTZ
  Basis Set: (AUG-CC-PVTZ AUX)
    Blend: AUG-CC-PVTZ-JKFIT
	 Reference Energy          =    -232.2340968300433417 [Eh]
	 Singles Energy            =      -0.0000000000000000 [Eh]
	 Same-Spin Energy          =      -0.2303329985050252 [Eh]
	 Opposite-Spin Energy      =      -0.8233413173494171 [Eh]
	 Correlation Energy        =      -1.0536743158544422 [Eh]
	 Total Energy              =    -233.2877711458977785 [Eh]

	 ================> DF-SCS-MP2 Energies <==================
	-----------------------------------------------------------
	 SCS Same-Spin Scale       =       0.3333333333333333 [-]
	 SCS Opposite-Spin Scale   =       1.2000000000000000 [-]
	 SCS Same-Spin Energy      =      -0.0767776661683417 [Eh]
	 SCS Opposite-Spin Energy  =      -0.9880095808193005 [Eh]
	 SCS Correlation Energy    =      -1.0647872469876423 [Eh]
	 SCS Total Energy          =    -233.2988840770309764 [Eh]
	-----------------------------------------------------------

  Dipole Moment: [D]
     X:    -0.0003      Y:    -1.1719      Z:    -0.0000     Total:     1.1719

*** Psi4 exiting successfully. Buy a developer a beer!
