                               Psi4 1.3.2 release

  ==> Input File <==

--------------------------------------------------------------------------
#psi4
#
memory 32 gb

molecule  {
0 1
  O        0.0000150     0.2693590    -0.0000020
  C        1.1784130    -0.5251360    -0.0000050
  C       -1.1784630    -0.5251780    -0.0000060
  C        2.4449136     0.4752211     0.0000099
  C       -2.3664280     0.4132520     0.0000040
  H        1.1945630    -1.1779900     0.8871400
  H        1.1945690    -1.1779700    -0.8871650
  H       -1.1945520    -1.1779740    -0.8871710
  H       -1.1945470    -1.1779890     0.8871480
  H        3.3031730    -0.1515840     0.0000040
  H        2.3407260     1.0507680    -0.8862060
  H        2.3407210     1.0507470     0.8862380
  H       -3.3032220    -0.1514730    -0.0000030
  H       -2.3406640     1.0507570     0.8862330
  H       -2.3406620     1.0507780    -0.8862100
units angstrom
no_reorient  #important for SAPT in psi4, default
symmetry c1  #important for SAPT in psi4, default
}

set PROPERTIES_ORIGIN ["COM"]
properties('MP2/aug-cc-pvtz', properties = ['dipole'])
--------------------------------------------------------------------------

    Molecular point group: c1
  Charge       = 0
  Multiplicity = 1
  Basis Set: AUG-CC-PVTZ
    Blend: AUG-CC-PVTZ
  Basis Set: (AUG-CC-PVTZ AUX)
    Blend: AUG-CC-PVTZ-JKFIT

    Orbital Energies [Eh]
    ---------------------

    Doubly Occupied:

       1A    -20.550788     2A    -11.275336     3A    -11.271710
       4A    -11.211443     5A    -11.209379     6A     -1.365917
       7A     -1.031814     8A     -0.975641     9A     -0.842666
      10A     -0.826669    11A     -0.670998    12A     -0.658205
      13A     -0.603443    14A     -0.584721    15A     -0.559809
      16A     -0.538864    17A     -0.525873    18A     -0.491193
      19A     -0.480599    20A     -0.455414    21A     -0.418639

  @DF-RHF Final Energy:  -232.22634824202538

   => Energetics <=

    Nuclear Repulsion Energy =            188.6728961633557446
    One-Electron Energy =                -688.7002422602148499
    Two-Electron Energy =                 267.8009978548337244
    Total Energy =                       -232.2263482420253808
  Basis Set: (AUG-CC-PVTZ AUX)
    Blend: AUG-CC-PVTZ-RI
    Molecular point group: c1

    Geometry (in Angstrom), charge = 0, multiplicity = 1:

       Center              X                  Y                   Z               Mass
    ------------   -----------------  -----------------  -----------------  -----------------
         O           -0.012696390773     0.248460743124    -0.000002146784    15.994914619570
         C            1.165701609227    -0.546034256876    -0.000005146784    12.000000000000
         C           -1.191174390773    -0.546076256876    -0.000006146784    12.000000000000
         C            2.432202209227     0.454322843124     0.000009753216    12.000000000000
         C           -2.379139390773     0.392353743124     0.000003853216    12.000000000000
         H            1.181851609227    -1.198888256876     0.887139853216     1.007825032230
         H            1.181857609227    -1.198868256876    -0.887165146784     1.007825032230
         H           -1.207263390773    -1.198872256876    -0.887171146784     1.007825032230
         H           -1.207258390773    -1.198887256876     0.887147853216     1.007825032230
         H            3.290461609227    -0.172482256876     0.000003853216     1.007825032230
         H            2.328014609227     1.029869743124    -0.886206146784     1.007825032230
         H            2.328009609227     1.029848743124     0.886237853216     1.007825032230
         H           -3.315933390773    -0.172371256876    -0.000003146784     1.007825032230
         H           -2.353375390773     1.029858743124     0.886232853216     1.007825032230
         H           -2.353373390773     1.029879743124    -0.886210146784     1.007825032230

  Basis Set: AUG-CC-PVTZ
    Blend: AUG-CC-PVTZ
  Basis Set: (AUG-CC-PVTZ AUX)
    Blend: AUG-CC-PVTZ-JKFIT
	 Reference Energy          =    -232.2263482420253808 [Eh]
	 Singles Energy            =      -0.0000000000000000 [Eh]
	 Same-Spin Energy          =      -0.2300911795692472 [Eh]
	 Opposite-Spin Energy      =      -0.8235198811917193 [Eh]
	 Correlation Energy        =      -1.0536110607609666 [Eh]
	 Total Energy              =    -233.2799593027863523 [Eh]

	 ================> DF-SCS-MP2 Energies <==================
	-----------------------------------------------------------
	 SCS Same-Spin Scale       =       0.3333333333333333 [-]
	 SCS Opposite-Spin Scale   =       1.2000000000000000 [-]
	 SCS Same-Spin Energy      =      -0.0766970598564157 [Eh]
	 SCS Opposite-Spin Energy  =      -0.9882238574300630 [Eh]
	 SCS Correlation Energy    =      -1.0649209172864789 [Eh]
	 SCS Total Energy          =    -233.2912691593118666 [Eh]
	-----------------------------------------------------------

  Dipole Moment: [D]
     X:    -0.0468      Y:    -1.1844      Z:    -0.0000     Total:     1.1853

*** Psi4 exiting successfully. Buy a developer a beer!
