                               Psi4 1.3.2 release

  ==> Input File <==

--------------------------------------------------------------------------
#psi4
#
memory 32 gb

molecule  {
0 1
  O        0.0140603     0.2898039    -0.0000017
  C        1.1784130    -0.5251360    -0.0000050
  C       -1.1784630    -0.5251780    -0.0000060
  C        2.3664400     0.4132380     0.0000090
  C       -2.3664280     0.4132520     0.0000040
  H        1.1945630    -1.1779900     0.8871400
  H        1.1945690    -1.1779700    -0.8871650
  H       -1.1945520    -1.1779740    -0.8871710
  H       -1.1945470    -1.1779890     0.8871480
  H        3.3031730    -0.1515840     0.0000040
  H        2.3407260     1.0507680    -0.8862060
  H        2.3407210     1.0507470     0.8862380
  H       -3.3032220    -0.1514730    -0.0000030
  H       -2.3406640     1.0507570     0.8862330
  H       -2.3406620     1.0507780    -0.8862100
units angstrom
no_reorient  #important for SAPT in psi4, default
symmetry c1  #important for SAPT in psi4, default
}

set PROPERTIES_ORIGIN ["COM"]
properties('MP2/aug-cc-pvtz', properties = ['dipole'])
--------------------------------------------------------------------------

    Molecular point group: c1
  Charge       = 0
  Multiplicity = 1
  Basis Set: AUG-CC-PVTZ
    Blend: AUG-CC-PVTZ
  Basis Set: (AUG-CC-PVTZ AUX)
    Blend: AUG-CC-PVTZ-JKFIT

    Orbital Energies [Eh]
    ---------------------

    Doubly Occupied:

       1A    -20.551799     2A    -11.273962     3A    -11.270659
       4A    -11.212256     5A    -11.210056     6A     -1.361322
       7A     -1.038421     8A     -0.981352     9A     -0.835242
      10A     -0.827469    11A     -0.670774    12A     -0.658420
      13A     -0.603259    14A     -0.590475    15A     -0.548376
      16A     -0.526746    17A     -0.518783    18A     -0.487130
      19A     -0.485102    20A     -0.474573    21A     -0.420818

  @DF-RHF Final Energy:  -232.23243315541390

   => Energetics <=

    Nuclear Repulsion Energy =            189.6177113145840565
    One-Electron Energy =                -690.6062956482461459
    Two-Electron Energy =                 268.7561511782481602
    Total Energy =                       -232.2324331554139007
  Basis Set: (AUG-CC-PVTZ AUX)
    Blend: AUG-CC-PVTZ-RI
    Molecular point group: c1

    Geometry (in Angstrom), charge = 0, multiplicity = 1:

       Center              X                  Y                   Z               Mass
    ------------   -----------------  -----------------  -----------------  -----------------
         O            0.011028930680     0.274532279577    -0.000001765763    15.994914619570
         C            1.175381630680    -0.540407620423    -0.000005065763    12.000000000000
         C           -1.181494369320    -0.540449620423    -0.000006065763    12.000000000000
         C            2.363408630680     0.397966379577     0.000008934237    12.000000000000
         C           -2.369459369320     0.397980379577     0.000003934237    12.000000000000
         H            1.191531630680    -1.193261620423     0.887139934237     1.007825032230
         H            1.191537630680    -1.193241620423    -0.887165065763     1.007825032230
         H           -1.197583369320    -1.193245620423    -0.887171065763     1.007825032230
         H           -1.197578369320    -1.193260620423     0.887147934237     1.007825032230
         H            3.300141630680    -0.166855620423     0.000003934237     1.007825032230
         H            2.337694630680     1.035496379577    -0.886206065763     1.007825032230
         H            2.337689630680     1.035475379577     0.886237934237     1.007825032230
         H           -3.306253369320    -0.166744620423    -0.000003065763     1.007825032230
         H           -2.343695369320     1.035485379577     0.886232934237     1.007825032230
         H           -2.343693369320     1.035506379577    -0.886210065763     1.007825032230

  Basis Set: AUG-CC-PVTZ
    Blend: AUG-CC-PVTZ
  Basis Set: (AUG-CC-PVTZ AUX)
    Blend: AUG-CC-PVTZ-JKFIT
	 Reference Energy          =    -232.2324331554139007 [Eh]
	 Singles Energy            =      -0.0000000000000000 [Eh]
	 Same-Spin Energy          =      -0.2305193234477302 [Eh]
	 Opposite-Spin Energy      =      -0.8241051122015718 [Eh]
	 Correlation Energy        =      -1.0546244356493020 [Eh]
	 Total Energy              =    -233.2870575910632169 [Eh]

	 ================> DF-SCS-MP2 Energies <==================
	-----------------------------------------------------------
	 SCS Same-Spin Scale       =       0.3333333333333333 [-]
	 SCS Opposite-Spin Scale   =       1.2000000000000000 [-]
	 SCS Same-Spin Energy      =      -0.0768397744825767 [Eh]
	 SCS Opposite-Spin Energy  =      -0.9889261346418861 [Eh]
	 SCS Correlation Energy    =      -1.0657659091244627 [Eh]
	 SCS Total Energy          =    -233.2981990645383519 [Eh]
	-----------------------------------------------------------

  Dipole Moment: [D]
     X:    -0.0909      Y:    -1.2293      Z:    -0.0000     Total:     1.2327

*** Psi4 exiting successfully. Buy a developer a beer!
