                               Psi4 1.4a3.dev225

  ==> Input File <==

--------------------------------------------------------------------------
#psi4
#
memory 32 gb

molecule  {
0 1
  O        0.0000020    -0.2691450    -0.0000020
  C        1.2199860     0.5532286     0.0000052
  C       -1.1785320     0.5252840     0.0000070
  C        2.3664120    -0.4133680    -0.0000070
  C       -2.3664110    -0.4133700    -0.0000030
  H        1.1947970     1.1780560    -0.8871580
  H        1.1948000     1.1780360     0.8871820
  H       -1.1947990     1.1780360     0.8871840
  H       -1.1947990     1.1780550    -0.8871570
  H        3.3033530     0.1510230    -0.0000020
  H        2.3404690    -1.0510140     0.8861510
  H        2.3404660    -1.0509930    -0.8861810
  H       -3.3033580     0.1510100     0.0000040
  H       -2.3404590    -1.0509950    -0.8861760
  H       -2.3404580    -1.0510150     0.8861560
units angstrom
no_reorient  #important for SAPT in psi4, default
symmetry c1  #important for SAPT in psi4, default
}

set PROPERTIES_ORIGIN ["COM"]
properties('MP2/aug-cc-pvtz', properties = ['dipole'])
--------------------------------------------------------------------------

    Molecular point group: c1
  Charge       = 0
  Multiplicity = 1
  Basis Set: AUG-CC-PVTZ
    Blend: AUG-CC-PVTZ
  Basis Set: (AUG-CC-PVTZ AUX)
    Blend: AUG-CC-PVTZ-JKFIT

     Orbital Energies [Eh]
    ---------------------
     Doubly Occupied:

       1A    -20.545901     2A    -11.272032     3A    -11.268606

       4A    -11.212801     5A    -11.209426     6A     -1.350400

       7A     -1.040016     8A     -0.982303     9A     -0.837202

      10A     -0.825323    11A     -0.670284    12A     -0.652633

      13A     -0.606336    14A     -0.587404    15A     -0.548572

      16A     -0.526017    17A     -0.519608    18A     -0.491200

      19A     -0.488399    20A     -0.467433    21A     -0.418639

   @DF-RHF Final Energy:  -232.2309846904182

    => Energetics <=
     Total Energy =                       -232.2309846904182109
  Basis Set: (AUG-CC-PVTZ AUX)
    Blend: AUG-CC-PVTZ-RI
    Molecular point group: c1

    Geometry (in Angstrom), charge = 0, multiplicity = 1:

       Center              X                  Y                   Z               Mass
    ------------   -----------------  -----------------  -----------------  -----------------
         O           -0.006714387562    -0.262838839566    -0.000001965354    15.994914619570
         C            1.213269612438     0.559534760434     0.000005234646    12.000000000000
         C           -1.185248387562     0.531590160434     0.000007034646    12.000000000000
         C            2.359695612438    -0.407061839566    -0.000006965354    12.000000000000
         C           -2.373127387562    -0.407063839566    -0.000002965354    12.000000000000
         H            1.188080612438     1.184362160434    -0.887157965354     1.007825032230
         H            1.188083612438     1.184342160434     0.887182034646     1.007825032230
         H           -1.201515387562     1.184342160434     0.887184034646     1.007825032230
         H           -1.201515387562     1.184361160434    -0.887156965354     1.007825032230
         H            3.296636612438     0.157329160434    -0.000001965354     1.007825032230
         H            2.333752612438    -1.044707839566     0.886151034646     1.007825032230
         H            2.333749612438    -1.044686839566    -0.886180965354     1.007825032230
         H           -3.310074387562     0.157316160434     0.000004034646     1.007825032230
         H           -2.347175387562    -1.044688839566    -0.886175965354     1.007825032230
         H           -2.347174387562    -1.044708839566     0.886156034646     1.007825032230

  Basis Set: AUG-CC-PVTZ
    Blend: AUG-CC-PVTZ
  Basis Set: (AUG-CC-PVTZ AUX)
    Blend: AUG-CC-PVTZ-JKFIT
	 Reference Energy          =    -232.2309846904182109 [Eh]
	 Singles Energy            =      -0.0000000000000000 [Eh]
	 Same-Spin Energy          =      -0.2305553807489571 [Eh]
	 Opposite-Spin Energy      =      -0.8242992095653614 [Eh]
	 Correlation Energy        =      -1.0548545903143185 [Eh]
	 Total Energy              =    -233.2858392807325174 [Eh]

	 ================> DF-SCS-MP2 Energies <==================
	-----------------------------------------------------------
	 SCS Same-Spin Scale       =       0.3333333333333333 [-]
	 SCS Opposite-Spin Scale   =       1.2000000000000000 [-]
	 SCS Same-Spin Energy      =      -0.0768517935829857 [Eh]
	 SCS Opposite-Spin Energy  =      -0.9891590514784336 [Eh]
	 SCS Correlation Energy    =      -1.0660108450614194 [Eh]
	 SCS Total Energy          =    -233.2969955354796241 [Eh]
	-----------------------------------------------------------

  Dipole Moment: [D]
     X:     0.1939      Y:     1.2437      Z:     0.0000     Total:     1.2588

*** Psi4 exiting successfully. Buy a developer a beer!
