                               Psi4 1.3.2 release

  ==> Input File <==

--------------------------------------------------------------------------
#psi4
#
memory 32 gb

molecule  {
0 1
  O        0.0000150     0.2693590    -0.0000020
  C        1.0125830    -0.4133307    -0.0000046
  C       -1.1784630    -0.5251780    -0.0000060
  C        2.3664400     0.4132380     0.0000090
  C       -2.3664280     0.4132520     0.0000040
  H        1.1945630    -1.1779900     0.8871400
  H        1.1945690    -1.1779700    -0.8871650
  H       -1.1945520    -1.1779740    -0.8871710
  H       -1.1945470    -1.1779890     0.8871480
  H        3.3031730    -0.1515840     0.0000040
  H        2.3407260     1.0507680    -0.8862060
  H        2.3407210     1.0507470     0.8862380
  H       -3.3032220    -0.1514730    -0.0000030
  H       -2.3406640     1.0507570     0.8862330
  H       -2.3406620     1.0507780    -0.8862100
units angstrom
no_reorient  #important for SAPT in psi4, default
symmetry c1  #important for SAPT in psi4, default
}

set PROPERTIES_ORIGIN ["COM"]
properties('MP2/aug-cc-pvtz', properties = ['dipole'])
--------------------------------------------------------------------------

    Molecular point group: c1
  Charge       = 0
  Multiplicity = 1
  Basis Set: AUG-CC-PVTZ
    Blend: AUG-CC-PVTZ
  Basis Set: (AUG-CC-PVTZ AUX)
    Blend: AUG-CC-PVTZ-JKFIT

    Orbital Energies [Eh]
    ---------------------

    Doubly Occupied:

       1A    -20.572195     2A    -11.287240     3A    -11.280108
       4A    -11.221138     5A    -11.207309     6A     -1.463915
       7A     -1.053268     8A     -0.969325     9A     -0.861797
      10A     -0.820507    11A     -0.699993    12A     -0.693917
      13A     -0.632908    14A     -0.597886    15A     -0.552276
      16A     -0.535391    17A     -0.530143    18A     -0.511037
      19A     -0.486692    20A     -0.431496    21A     -0.392995

  @DF-RHF Final Energy:  -232.19054107097318

   => Energetics <=

    Nuclear Repulsion Energy =            192.8697721183599185
    One-Electron Energy =                -696.5175581491179173
    Two-Electron Energy =                 271.4572449597847594
    Total Energy =                       -232.1905410709732109
  Basis Set: (AUG-CC-PVTZ AUX)
    Blend: AUG-CC-PVTZ-RI
    Molecular point group: c1

    Geometry (in Angstrom), charge = 0, multiplicity = 1:

       Center              X                  Y                   Z               Mass
    ------------   -----------------  -----------------  -----------------  -----------------
         O            0.026881278175     0.240389447662    -0.000002065783    15.994914619570
         C            1.039449278175    -0.442300252338    -0.000004665783    12.000000000000
         C           -1.151596721825    -0.554147552338    -0.000006065783    12.000000000000
         C            2.393306278175     0.384268447662     0.000008934217    12.000000000000
         C           -2.339561721825     0.384282447662     0.000003934217    12.000000000000
         H            1.221429278175    -1.206959552338     0.887139934217     1.007825032230
         H            1.221435278175    -1.206939552338    -0.887165065783     1.007825032230
         H           -1.167685721825    -1.206943552338    -0.887171065783     1.007825032230
         H           -1.167680721825    -1.206958552338     0.887147934217     1.007825032230
         H            3.330039278175    -0.180553552338     0.000003934217     1.007825032230
         H            2.367592278175     1.021798447662    -0.886206065783     1.007825032230
         H            2.367587278175     1.021777447662     0.886237934217     1.007825032230
         H           -3.276355721825    -0.180442552338    -0.000003065783     1.007825032230
         H           -2.313797721825     1.021787447662     0.886232934217     1.007825032230
         H           -2.313795721825     1.021808447662    -0.886210065783     1.007825032230

  Basis Set: AUG-CC-PVTZ
    Blend: AUG-CC-PVTZ
  Basis Set: (AUG-CC-PVTZ AUX)
    Blend: AUG-CC-PVTZ-JKFIT
	 Reference Energy          =    -232.1905410709731825 [Eh]
	 Singles Energy            =      -0.0000000000000000 [Eh]
	 Same-Spin Energy          =      -0.2311326961279729 [Eh]
	 Opposite-Spin Energy      =      -0.8225305307899944 [Eh]
	 Correlation Energy        =      -1.0536632269179673 [Eh]
	 Total Energy              =    -233.2442042978911445 [Eh]

	 ================> DF-SCS-MP2 Energies <==================
	-----------------------------------------------------------
	 SCS Same-Spin Scale       =       0.3333333333333333 [-]
	 SCS Opposite-Spin Scale   =       1.2000000000000000 [-]
	 SCS Same-Spin Energy      =      -0.0770442320426576 [Eh]
	 SCS Opposite-Spin Energy  =      -0.9870366369479933 [Eh]
	 SCS Correlation Energy    =      -1.0640808689906509 [Eh]
	 SCS Total Energy          =    -233.2546219399638403 [Eh]
	-----------------------------------------------------------

  Dipole Moment: [D]
     X:    -0.9847      Y:    -0.7331      Z:    -0.0000     Total:     1.2276

*** Psi4 exiting successfully. Buy a developer a beer!
