                               Psi4 1.4a3.dev225

  ==> Input File <==

--------------------------------------------------------------------------
#psi4
#
memory 32 gb

molecule  {
0 1
  O        0.0000020    -0.2691450    -0.0000020
  C        1.1951100     0.5364600     0.0000051
  C       -1.1785320     0.5252840     0.0000070
  C        2.3664120    -0.4133680    -0.0000070
  C       -2.3664110    -0.4133700    -0.0000030
  H        1.1947970     1.1780560    -0.8871580
  H        1.1948000     1.1780360     0.8871820
  H       -1.1947990     1.1780360     0.8871840
  H       -1.1947990     1.1780550    -0.8871570
  H        3.3033530     0.1510230    -0.0000020
  H        2.3404690    -1.0510140     0.8861510
  H        2.3404660    -1.0509930    -0.8861810
  H       -3.3033580     0.1510100     0.0000040
  H       -2.3404590    -1.0509950    -0.8861760
  H       -2.3404580    -1.0510150     0.8861560
units angstrom
no_reorient  #important for SAPT in psi4, default
symmetry c1  #important for SAPT in psi4, default
}

set PROPERTIES_ORIGIN ["COM"]
properties('MP2/aug-cc-pvtz', properties = ['dipole'])
--------------------------------------------------------------------------

    Molecular point group: c1
  Charge       = 0
  Multiplicity = 1
  Basis Set: AUG-CC-PVTZ
    Blend: AUG-CC-PVTZ
  Basis Set: (AUG-CC-PVTZ AUX)
    Blend: AUG-CC-PVTZ-JKFIT

    Orbital Energies [Eh]
    ---------------------

    Doubly Occupied:

       1A    -20.548841     2A    -11.271757     3A    -11.270487
       4A    -11.211968     5A    -11.210638     6A     -1.360298
       7A     -1.039748     8A     -0.981812     9A     -0.837067
      10A     -0.826254    11A     -0.671774    12A     -0.657520
      13A     -0.604503    14A     -0.590931    15A     -0.548376
      16A     -0.527065    17A     -0.519264    18A     -0.489798
      19A     -0.486334    20A     -0.471537    21A     -0.419002

  @DF-RHF Final Energy:  -232.23334433373412

   => Energetics <=

    Nuclear Repulsion Energy =            189.6740950033492368
    One-Electron Energy =                -690.7249261653489611
    Two-Electron Energy =                 268.8174868282656007
    Total Energy =                       -232.2333443337341237
  Basis Set: (AUG-CC-PVTZ AUX)
    Blend: AUG-CC-PVTZ-RI
    Molecular point group: c1

    Geometry (in Angstrom), charge = 0, multiplicity = 1:

       Center              X                  Y                   Z               Mass
    ------------   -----------------  -----------------  -----------------  -----------------
         O           -0.002684426102    -0.260122293025    -0.000001949154    15.994914619570
         C            1.192423573898     0.545482706975     0.000005150846    12.000000000000
         C           -1.181218426102     0.534306706975     0.000007050846    12.000000000000
         C            2.363725573898    -0.404345293025    -0.000006949154    12.000000000000
         C           -2.369097426102    -0.404347293025    -0.000002949154    12.000000000000
         H            1.192110573898     1.187078706975    -0.887157949154     1.007825032230
         H            1.192113573898     1.187058706975     0.887182050846     1.007825032230
         H           -1.197485426102     1.187058706975     0.887184050846     1.007825032230
         H           -1.197485426102     1.187077706975    -0.887156949154     1.007825032230
         H            3.300666573898     0.160045706975    -0.000001949154     1.007825032230
         H            2.337782573898    -1.041991293025     0.886151050846     1.007825032230
         H            2.337779573898    -1.041970293025    -0.886180949154     1.007825032230
         H           -3.306044426102     0.160032706975     0.000004050846     1.007825032230
         H           -2.343145426102    -1.041972293025    -0.886175949154     1.007825032230
         H           -2.343144426102    -1.041992293025     0.886156050846     1.007825032230

  Basis Set: AUG-CC-PVTZ
    Blend: AUG-CC-PVTZ
  Basis Set: (AUG-CC-PVTZ AUX)
    Blend: AUG-CC-PVTZ-JKFIT
	 Reference Energy          =    -232.2333443337341237 [Eh]
	 Singles Energy            =      -0.0000000000000000 [Eh]
	 Same-Spin Energy          =      -0.2304020345382279 [Eh]
	 Opposite-Spin Energy      =      -0.8236916179542340 [Eh]
	 Correlation Energy        =      -1.0540936524924618 [Eh]
	 Total Energy              =    -233.2874379862265926 [Eh]

	 ================> DF-SCS-MP2 Energies <==================
	-----------------------------------------------------------
	 SCS Same-Spin Scale       =       0.3333333333333333 [-]
	 SCS Opposite-Spin Scale   =       1.2000000000000000 [-]
	 SCS Same-Spin Energy      =      -0.0768006781794093 [Eh]
	 SCS Opposite-Spin Energy  =      -0.9884299415450807 [Eh]
	 SCS Correlation Energy    =      -1.0652306197244901 [Eh]
	 SCS Total Energy          =    -233.2985749534586262 [Eh]
	-----------------------------------------------------------

  Dipole Moment: [D]
     X:     0.0794      Y:     1.2020      Z:     0.0000     Total:     1.2046

*** Psi4 exiting successfully. Buy a developer a beer!
