                               Psi4 1.4a3.dev225

  ==> Input File <==

--------------------------------------------------------------------------
#psi4
#
memory 32 gb

molecule  {
0 1
  O        0.0000020    -0.2691450    -0.0000020
  C        1.1785260     0.5252810     0.0000050
  C       -1.1785320     0.5252840     0.0000070
  C        2.3271814    -0.3823686    -0.0000066
  C       -2.3664110    -0.4133700    -0.0000030
  H        1.1947970     1.1780560    -0.8871580
  H        1.1948000     1.1780360     0.8871820
  H       -1.1947990     1.1780360     0.8871840
  H       -1.1947990     1.1780550    -0.8871570
  H        3.3033530     0.1510230    -0.0000020
  H        2.3404690    -1.0510140     0.8861510
  H        2.3404660    -1.0509930    -0.8861810
  H       -3.3033580     0.1510100     0.0000040
  H       -2.3404590    -1.0509950    -0.8861760
  H       -2.3404580    -1.0510150     0.8861560
units angstrom
no_reorient  #important for SAPT in psi4, default
symmetry c1  #important for SAPT in psi4, default
}

set PROPERTIES_ORIGIN ["COM"]
properties('MP2/aug-cc-pvtz', properties = ['dipole'])
--------------------------------------------------------------------------

    Molecular point group: c1
  Charge       = 0
  Multiplicity = 1
  Basis Set: AUG-CC-PVTZ
    Blend: AUG-CC-PVTZ
  Basis Set: (AUG-CC-PVTZ AUX)
    Blend: AUG-CC-PVTZ-JKFIT

    Orbital Energies [Eh]
    ---------------------

    Doubly Occupied:

       1A    -20.550870     2A    -11.271827     3A    -11.269629
       4A    -11.213639     5A    -11.211489     6A     -1.368327
       7A     -1.045756     8A     -0.984400     9A     -0.835374
      10A     -0.825355    11A     -0.674465    12A     -0.662596
      13A     -0.603922    14A     -0.599930    15A     -0.544906
      16A     -0.523280    17A     -0.514403    18A     -0.497500
      19A     -0.479863    20A     -0.474467    21A     -0.418859

  @DF-RHF Final Energy:  -232.23110535795530

   => Energetics <=

    Nuclear Repulsion Energy =            190.5975836842223714
    One-Electron Energy =                -692.5156654037278940
    Two-Electron Energy =                 269.6869763615501938
    Total Energy =                       -232.2311053579553004
  Basis Set: (AUG-CC-PVTZ AUX)
    Blend: AUG-CC-PVTZ-RI
    Molecular point group: c1

    Geometry (in Angstrom), charge = 0, multiplicity = 1:

       Center              X                  Y                   Z               Mass
    ------------   -----------------  -----------------  -----------------  -----------------
         O            0.006357650074    -0.263333237234    -0.000001997754    15.994914619570
         C            1.184881650074     0.531092762766     0.000005002246    12.000000000000
         C           -1.172176349926     0.531095762766     0.000007002246    12.000000000000
         C            2.333537050074    -0.376556837234    -0.000006597754    12.000000000000
         C           -2.360055349926    -0.407558237234    -0.000002997754    12.000000000000
         H            1.201152650074     1.183867762766    -0.887157997754     1.007825032230
         H            1.201155650074     1.183847762766     0.887182002246     1.007825032230
         H           -1.188443349926     1.183847762766     0.887184002246     1.007825032230
         H           -1.188443349926     1.183866762766    -0.887156997754     1.007825032230
         H            3.309708650074     0.156834762766    -0.000001997754     1.007825032230
         H            2.346824650074    -1.045202237234     0.886151002246     1.007825032230
         H            2.346821650074    -1.045181237234    -0.886180997754     1.007825032230
         H           -3.297002349926     0.156821762766     0.000004002246     1.007825032230
         H           -2.334103349926    -1.045183237234    -0.886175997754     1.007825032230
         H           -2.334102349926    -1.045203237234     0.886156002246     1.007825032230

  Basis Set: AUG-CC-PVTZ
    Blend: AUG-CC-PVTZ
  Basis Set: (AUG-CC-PVTZ AUX)
    Blend: AUG-CC-PVTZ-JKFIT
	 Reference Energy          =    -232.2311053579553004 [Eh]
	 Singles Energy            =      -0.0000000000000000 [Eh]
	 Same-Spin Energy          =      -0.2307116971265625 [Eh]
	 Opposite-Spin Energy      =      -0.8237203134751807 [Eh]
	 Correlation Energy        =      -1.0544320106017433 [Eh]
	 Total Energy              =    -233.2855373685570441 [Eh]

	 ================> DF-SCS-MP2 Energies <==================
	-----------------------------------------------------------
	 SCS Same-Spin Scale       =       0.3333333333333333 [-]
	 SCS Opposite-Spin Scale   =       1.2000000000000000 [-]
	 SCS Same-Spin Energy      =      -0.0769038990421875 [Eh]
	 SCS Opposite-Spin Energy  =      -0.9884643761702168 [Eh]
	 SCS Correlation Energy    =      -1.0653682752124043 [Eh]
	 SCS Total Energy          =    -233.2964736331676932 [Eh]
	-----------------------------------------------------------

  Dipole Moment: [D]
     X:     0.0183      Y:     1.1701      Z:     0.0000     Total:     1.1702

*** Psi4 exiting successfully. Buy a developer a beer!
