                               Psi4 1.3.2 release

  ==> Input File <==

--------------------------------------------------------------------------
#psi4
#
memory 32 gb

molecule  {
0 1
  O        0.0000150     0.2693590    -0.0000020
  C        1.3442430    -0.6369413    -0.0000054
  C       -1.1784630    -0.5251780    -0.0000060
  C        2.3664400     0.4132380     0.0000090
  C       -2.3664280     0.4132520     0.0000040
  H        1.1945630    -1.1779900     0.8871400
  H        1.1945690    -1.1779700    -0.8871650
  H       -1.1945520    -1.1779740    -0.8871710
  H       -1.1945470    -1.1779890     0.8871480
  H        3.3031730    -0.1515840     0.0000040
  H        2.3407260     1.0507680    -0.8862060
  H        2.3407210     1.0507470     0.8862380
  H       -3.3032220    -0.1514730    -0.0000030
  H       -2.3406640     1.0507570     0.8862330
  H       -2.3406620     1.0507780    -0.8862100
units angstrom
no_reorient  #important for SAPT in psi4, default
symmetry c1  #important for SAPT in psi4, default
}

set PROPERTIES_ORIGIN ["COM"]
properties('MP2/aug-cc-pvtz', properties = ['dipole'])
--------------------------------------------------------------------------

    Molecular point group: c1
  Charge       = 0
  Multiplicity = 1
  Basis Set: AUG-CC-PVTZ
    Blend: AUG-CC-PVTZ
  Basis Set: (AUG-CC-PVTZ AUX)
    Blend: AUG-CC-PVTZ-JKFIT

    Orbital Energies [Eh]
    ---------------------

    Doubly Occupied:

       1A    -20.530092     2A    -11.278614     3A    -11.259579
       4A    -11.218447     5A    -11.203403     6A     -1.310370
       7A     -1.046900     8A     -0.980631     9A     -0.846161
      10A     -0.814933    11A     -0.670052    12A     -0.631425
      13A     -0.612611    14A     -0.581062    15A     -0.552046
      16A     -0.525217    17A     -0.524108    18A     -0.496753
      19A     -0.489519    20A     -0.434490    21A     -0.410120

  @DF-RHF Final Energy:  -232.20246895751632

   => Energetics <=

    Nuclear Repulsion Energy =            187.5219982444400273
    One-Electron Energy =                -686.6158673655280609
    Two-Electron Energy =                 266.8914001635716886
    Total Energy =                       -232.2024689575163166
  Basis Set: (AUG-CC-PVTZ AUX)
    Blend: AUG-CC-PVTZ-RI
    Molecular point group: c1

    Geometry (in Angstrom), charge = 0, multiplicity = 1:

       Center              X                  Y                   Z               Mass
    ------------   -----------------  -----------------  -----------------  -----------------
         O           -0.026848301263     0.276614809467    -0.000001936182    15.994914619570
         C            1.317379698737    -0.629685490533    -0.000005336182    12.000000000000
         C           -1.205326301263    -0.517922190533    -0.000005936182    12.000000000000
         C            2.339576698737     0.420493809467     0.000009063818    12.000000000000
         C           -2.393291301263     0.420507809467     0.000004063818    12.000000000000
         H            1.167699698737    -1.170734190533     0.887140063818     1.007825032230
         H            1.167705698737    -1.170714190533    -0.887164936182     1.007825032230
         H           -1.221415301263    -1.170718190533    -0.887170936182     1.007825032230
         H           -1.221410301263    -1.170733190533     0.887148063818     1.007825032230
         H            3.276309698737    -0.144328190533     0.000004063818     1.007825032230
         H            2.313862698737     1.058023809467    -0.886205936182     1.007825032230
         H            2.313857698737     1.058002809467     0.886238063818     1.007825032230
         H           -3.330085301263    -0.144217190533    -0.000002936182     1.007825032230
         H           -2.367527301263     1.058012809467     0.886233063818     1.007825032230
         H           -2.367525301263     1.058033809467    -0.886209936182     1.007825032230

  Basis Set: AUG-CC-PVTZ
    Blend: AUG-CC-PVTZ
  Basis Set: (AUG-CC-PVTZ AUX)
    Blend: AUG-CC-PVTZ-JKFIT
	 Reference Energy          =    -232.2024689575163166 [Eh]
	 Singles Energy            =      -0.0000000000000000 [Eh]
	 Same-Spin Energy          =      -0.2320469512259251 [Eh]
	 Opposite-Spin Energy      =      -0.8285228614848340 [Eh]
	 Correlation Energy        =      -1.0605698127107590 [Eh]
	 Total Energy              =    -233.2630387702270696 [Eh]

	 ================> DF-SCS-MP2 Energies <==================
	-----------------------------------------------------------
	 SCS Same-Spin Scale       =       0.3333333333333333 [-]
	 SCS Opposite-Spin Scale   =       1.2000000000000000 [-]
	 SCS Same-Spin Energy      =      -0.0773489837419750 [Eh]
	 SCS Opposite-Spin Energy  =      -0.9942274337818008 [Eh]
	 SCS Correlation Energy    =      -1.0715764175237759 [Eh]
	 SCS Total Energy          =    -233.2740453750400889 [Eh]
	-----------------------------------------------------------

  Dipole Moment: [D]
     X:     0.6900      Y:    -1.3974      Z:    -0.0000     Total:     1.5585

*** Psi4 exiting successfully. Buy a developer a beer!
