                               Psi4 1.3.2 release

  ==> Input File <==

--------------------------------------------------------------------------
#psi4
#
memory 32 gb

molecule  {
0 1
  O        0.0000150     0.2693590    -0.0000020
  C        1.0889103    -0.6439598    -0.0000056
  C       -1.1784630    -0.5251780    -0.0000060
  C        2.3664400     0.4132380     0.0000090
  C       -2.3664280     0.4132520     0.0000040
  H        1.1945630    -1.1779900     0.8871400
  H        1.1945690    -1.1779700    -0.8871650
  H       -1.1945520    -1.1779740    -0.8871710
  H       -1.1945470    -1.1779890     0.8871480
  H        3.3031730    -0.1515840     0.0000040
  H        2.3407260     1.0507680    -0.8862060
  H        2.3407210     1.0507470     0.8862380
  H       -3.3032220    -0.1514730    -0.0000030
  H       -2.3406640     1.0507570     0.8862330
  H       -2.3406620     1.0507780    -0.8862100
units angstrom
no_reorient  #important for SAPT in psi4, default
symmetry c1  #important for SAPT in psi4, default
}

set PROPERTIES_ORIGIN ["COM"]
properties('MP2/aug-cc-pvtz', properties = ['dipole'])
--------------------------------------------------------------------------

    Molecular point group: c1
  Charge       = 0
  Multiplicity = 1
  Basis Set: AUG-CC-PVTZ
    Blend: AUG-CC-PVTZ
  Basis Set: (AUG-CC-PVTZ AUX)
    Blend: AUG-CC-PVTZ-JKFIT

    Orbital Energies [Eh]
    ---------------------

    Doubly Occupied:

       1A    -20.555938     2A    -11.271202     3A    -11.268522
       4A    -11.212658     5A    -11.211147     6A     -1.372544
       7A     -1.028764     8A     -0.965725     9A     -0.846515
      10A     -0.832657    11A     -0.684755    12A     -0.659974
      13A     -0.607447    14A     -0.588310    15A     -0.543429
      16A     -0.527452    17A     -0.519733    18A     -0.499516
      19A     -0.484972    20A     -0.440313    21A     -0.429771

  @DF-RHF Final Energy:  -232.21283181843839

   => Energetics <=

    Nuclear Repulsion Energy =            189.4425349699645551
    One-Electron Energy =                -690.2080476255908934
    Two-Electron Energy =                 268.5526808371879497
    Total Energy =                       -232.2128318184384170
  Basis Set: (AUG-CC-PVTZ AUX)
    Blend: AUG-CC-PVTZ-RI
    Molecular point group: c1

    Geometry (in Angstrom), charge = 0, multiplicity = 1:

       Center              X                  Y                   Z               Mass
    ------------   -----------------  -----------------  -----------------  -----------------
         O            0.014516103814     0.277751820421    -0.000001903781    15.994914619570
         C            1.103411403814    -0.635566979579    -0.000005503781    12.000000000000
         C           -1.163961896186    -0.516785179579    -0.000005903781    12.000000000000
         C            2.380941103814     0.421630820421     0.000009096219    12.000000000000
         C           -2.351926896186     0.421644820421     0.000004096219    12.000000000000
         H            1.209064103814    -1.169597179579     0.887140096219     1.007825032230
         H            1.209070103814    -1.169577179579    -0.887164903781     1.007825032230
         H           -1.180050896186    -1.169581179579    -0.887170903781     1.007825032230
         H           -1.180045896186    -1.169596179579     0.887148096219     1.007825032230
         H            3.317674103814    -0.143191179579     0.000004096219     1.007825032230
         H            2.355227103814     1.059160820421    -0.886205903781     1.007825032230
         H            2.355222103814     1.059139820421     0.886238096219     1.007825032230
         H           -3.288720896186    -0.143080179579    -0.000002903781     1.007825032230
         H           -2.326162896186     1.059149820421     0.886233096219     1.007825032230
         H           -2.326160896186     1.059170820421    -0.886209903781     1.007825032230

  Basis Set: AUG-CC-PVTZ
    Blend: AUG-CC-PVTZ
  Basis Set: (AUG-CC-PVTZ AUX)
    Blend: AUG-CC-PVTZ-JKFIT
	 Reference Energy          =    -232.2128318184383886 [Eh]
	 Singles Energy            =      -0.0000000000000000 [Eh]
	 Same-Spin Energy          =      -0.2306038333361004 [Eh]
	 Opposite-Spin Energy      =      -0.8250583108225616 [Eh]
	 Correlation Energy        =      -1.0556621441586620 [Eh]
	 Total Energy              =    -233.2684939625970628 [Eh]

	 ================> DF-SCS-MP2 Energies <==================
	-----------------------------------------------------------
	 SCS Same-Spin Scale       =       0.3333333333333333 [-]
	 SCS Opposite-Spin Scale   =       1.2000000000000000 [-]
	 SCS Same-Spin Energy      =      -0.0768679444453668 [Eh]
	 SCS Opposite-Spin Energy  =      -0.9900699729870739 [Eh]
	 SCS Correlation Energy    =      -1.0669379174324407 [Eh]
	 SCS Total Energy          =    -233.2797697358708433 [Eh]
	-----------------------------------------------------------

  Dipole Moment: [D]
     X:    -0.1708      Y:    -1.3218      Z:    -0.0000     Total:     1.3328

*** Psi4 exiting successfully. Buy a developer a beer!
