                               Psi4 1.4a3.dev225

  ==> Input File <==

--------------------------------------------------------------------------
#psi4
#
memory 32 gb

molecule  {
0 1
  O        0.0000020    -0.2691450    -0.0000020
  C        1.1370660     0.4973334     0.0000048
  C       -1.1785320     0.5252840     0.0000070
  C        2.3664120    -0.4133680    -0.0000070
  C       -2.3664110    -0.4133700    -0.0000030
  H        1.1947970     1.1780560    -0.8871580
  H        1.1948000     1.1780360     0.8871820
  H       -1.1947990     1.1780360     0.8871840
  H       -1.1947990     1.1780550    -0.8871570
  H        3.3033530     0.1510230    -0.0000020
  H        2.3404690    -1.0510140     0.8861510
  H        2.3404660    -1.0509930    -0.8861810
  H       -3.3033580     0.1510100     0.0000040
  H       -2.3404590    -1.0509950    -0.8861760
  H       -2.3404580    -1.0510150     0.8861560
units angstrom
no_reorient  #important for SAPT in psi4, default
symmetry c1  #important for SAPT in psi4, default
}

set PROPERTIES_ORIGIN ["COM"]
properties('MP2/aug-cc-pvtz', properties = ['dipole'])
--------------------------------------------------------------------------

    Molecular point group: c1
  Charge       = 0
  Multiplicity = 1
  Basis Set: AUG-CC-PVTZ
    Blend: AUG-CC-PVTZ
  Basis Set: (AUG-CC-PVTZ AUX)
    Blend: AUG-CC-PVTZ-JKFIT

    Orbital Energies [Eh]
    ---------------------

    Doubly Occupied:

       1A    -20.555648     2A    -11.275117     3A    -11.272472
       4A    -11.213576     5A    -11.210311     6A     -1.386724
       7A     -1.041005     8A     -0.979402     9A     -0.841558
      10A     -0.824816    11A     -0.677244    12A     -0.669433
      13A     -0.601285    14A     -0.600463    15A     -0.548653
      16A     -0.529865    17A     -0.521246    18A     -0.492579
      19A     -0.482788    20A     -0.468626    21A     -0.416698

  @DF-RHF Final Energy:  -232.23269177871876

   => Energetics <=

    Nuclear Repulsion Energy =            190.5974763660124438
    One-Electron Energy =                -692.4413175939761231
    Two-Electron Energy =                 269.6111494492449197
    Total Energy =                       -232.2326917787187881
  Basis Set: (AUG-CC-PVTZ AUX)
    Blend: AUG-CC-PVTZ-RI
    Molecular point group: c1

    Geometry (in Angstrom), charge = 0, multiplicity = 1:

       Center              X                  Y                   Z               Mass
    ------------   -----------------  -----------------  -----------------  -----------------
         O            0.006718817307    -0.253783706030    -0.000001900553    15.994914619570
         C            1.143782817307     0.512694693970     0.000004899447    12.000000000000
         C           -1.171815182693     0.540645293970     0.000007099447    12.000000000000
         C            2.373128817307    -0.398006706030    -0.000006900553    12.000000000000
         C           -2.359694182693    -0.398008706030    -0.000002900553    12.000000000000
         H            1.201513817307     1.193417293970    -0.887157900553     1.007825032230
         H            1.201516817307     1.193397293970     0.887182099447     1.007825032230
         H           -1.188082182693     1.193397293970     0.887184099447     1.007825032230
         H           -1.188082182693     1.193416293970    -0.887156900553     1.007825032230
         H            3.310069817307     0.166384293970    -0.000001900553     1.007825032230
         H            2.347185817307    -1.035652706030     0.886151099447     1.007825032230
         H            2.347182817307    -1.035631706030    -0.886180900553     1.007825032230
         H           -3.296641182693     0.166371293970     0.000004099447     1.007825032230
         H           -2.333742182693    -1.035633706030    -0.886175900553     1.007825032230
         H           -2.333741182693    -1.035653706030     0.886156099447     1.007825032230

  Basis Set: AUG-CC-PVTZ
    Blend: AUG-CC-PVTZ
  Basis Set: (AUG-CC-PVTZ AUX)
    Blend: AUG-CC-PVTZ-JKFIT
	 Reference Energy          =    -232.2326917787187597 [Eh]
	 Singles Energy            =      -0.0000000000000000 [Eh]
	 Same-Spin Energy          =      -0.2302693742554848 [Eh]
	 Opposite-Spin Energy      =      -0.8226630141058562 [Eh]
	 Correlation Energy        =      -1.0529323883613411 [Eh]
	 Total Energy              =    -233.2856241670801012 [Eh]

	 ================> DF-SCS-MP2 Energies <==================
	-----------------------------------------------------------
	 SCS Same-Spin Scale       =       0.3333333333333333 [-]
	 SCS Opposite-Spin Scale   =       1.2000000000000000 [-]
	 SCS Same-Spin Energy      =      -0.0767564580851616 [Eh]
	 SCS Opposite-Spin Energy  =      -0.9871956169270274 [Eh]
	 SCS Correlation Energy    =      -1.0639520750121889 [Eh]
	 SCS Total Energy          =    -233.2966438537309557 [Eh]
	-----------------------------------------------------------

  Dipole Moment: [D]
     X:    -0.2107      Y:     1.0870      Z:     0.0000     Total:     1.1072

*** Psi4 exiting successfully. Buy a developer a beer!
