                               Psi4 1.3.2 release

  ==> Input File <==

--------------------------------------------------------------------------
#psi4
#
memory 32 gb

molecule  {
0 1
  O        0.0000150     0.2693590    -0.0000020
  C        1.1784130    -0.5251360    -0.0000050
  C       -1.1784630    -0.5251780    -0.0000060
  C        2.5233871     0.5372041     0.0000108
  C       -2.3664280     0.4132520     0.0000040
  H        1.1945630    -1.1779900     0.8871400
  H        1.1945690    -1.1779700    -0.8871650
  H       -1.1945520    -1.1779740    -0.8871710
  H       -1.1945470    -1.1779890     0.8871480
  H        3.3031730    -0.1515840     0.0000040
  H        2.3407260     1.0507680    -0.8862060
  H        2.3407210     1.0507470     0.8862380
  H       -3.3032220    -0.1514730    -0.0000030
  H       -2.3406640     1.0507570     0.8862330
  H       -2.3406620     1.0507780    -0.8862100
units angstrom
no_reorient  #important for SAPT in psi4, default
symmetry c1  #important for SAPT in psi4, default
}

set PROPERTIES_ORIGIN ["COM"]
properties('MP2/aug-cc-pvtz', properties = ['dipole'])
--------------------------------------------------------------------------

    Molecular point group: c1
  Charge       = 0
  Multiplicity = 1
  Basis Set: AUG-CC-PVTZ
    Blend: AUG-CC-PVTZ
  Basis Set: (AUG-CC-PVTZ AUX)
    Blend: AUG-CC-PVTZ-JKFIT

    Orbital Energies [Eh]
    ---------------------

    Doubly Occupied:

       1A    -20.551103     2A    -11.278332     3A    -11.271806
       4A    -11.211531     5A    -11.210510     6A     -1.365120
       7A     -1.027130     8A     -0.971082     9A     -0.846912
      10A     -0.826669    11A     -0.669729    12A     -0.656418
      13A     -0.605212    14A     -0.580699    15A     -0.571880
      16A     -0.549071    17A     -0.528275    18A     -0.494000
      19A     -0.479366    20A     -0.427632    21A     -0.418565

  @DF-RHF Final Energy:  -232.20603319666088

   => Energetics <=

    Nuclear Repulsion Energy =            187.4739992200194081
    One-Electron Energy =                -686.2779794561857898
    Two-Electron Energy =                 266.5979470395054705
    Total Energy =                       -232.2060331966608828
  Basis Set: (AUG-CC-PVTZ AUX)
    Blend: AUG-CC-PVTZ-RI
    Molecular point group: c1

    Geometry (in Angstrom), charge = 0, multiplicity = 1:

       Center              X                  Y                   Z               Mass
    ------------   -----------------  -----------------  -----------------  -----------------
         O           -0.025409253801     0.238419373883    -0.000002292586    15.994914619570
         C            1.152988746199    -0.556075626117    -0.000005292586    12.000000000000
         C           -1.203887253801    -0.556117626117    -0.000006292586    12.000000000000
         C            2.497962846199     0.506264473883     0.000010507414    12.000000000000
         C           -2.391852253801     0.382312373883     0.000003707414    12.000000000000
         H            1.169138746199    -1.208929626117     0.887139707414     1.007825032230
         H            1.169144746199    -1.208909626117    -0.887165292586     1.007825032230
         H           -1.219976253801    -1.208913626117    -0.887171292586     1.007825032230
         H           -1.219971253801    -1.208928626117     0.887147707414     1.007825032230
         H            3.277748746199    -0.182523626117     0.000003707414     1.007825032230
         H            2.315301746199     1.019828373883    -0.886206292586     1.007825032230
         H            2.315296746199     1.019807373883     0.886237707414     1.007825032230
         H           -3.328646253801    -0.182412626117    -0.000003292586     1.007825032230
         H           -2.366088253801     1.019817373883     0.886232707414     1.007825032230
         H           -2.366086253801     1.019838373883    -0.886210292586     1.007825032230

  Basis Set: AUG-CC-PVTZ
    Blend: AUG-CC-PVTZ
  Basis Set: (AUG-CC-PVTZ AUX)
    Blend: AUG-CC-PVTZ-JKFIT
	 Reference Energy          =    -232.2060331966608828 [Eh]
	 Singles Energy            =      -0.0000000000000000 [Eh]
	 Same-Spin Energy          =      -0.2304382467689861 [Eh]
	 Opposite-Spin Energy      =      -0.8248473767741658 [Eh]
	 Correlation Energy        =      -1.0552856235431518 [Eh]
	 Total Energy              =    -233.2613188202040249 [Eh]

	 ================> DF-SCS-MP2 Energies <==================
	-----------------------------------------------------------
	 SCS Same-Spin Scale       =       0.3333333333333333 [-]
	 SCS Opposite-Spin Scale   =       1.2000000000000000 [-]
	 SCS Same-Spin Energy      =      -0.0768127489229954 [Eh]
	 SCS Opposite-Spin Energy  =      -0.9898168521289988 [Eh]
	 SCS Correlation Energy    =      -1.0666296010519942 [Eh]
	 SCS Total Energy          =    -233.2726627977128828 [Eh]
	-----------------------------------------------------------

  Dipole Moment: [D]
     X:    -0.1181      Y:    -1.2138      Z:    -0.0000     Total:     1.2195

*** Psi4 exiting successfully. Buy a developer a beer!
