                               Psi4 1.4a3.dev225

  ==> Input File <==

--------------------------------------------------------------------------
#psi4
#
memory 32 gb

molecule  {
0 1
  O        0.1794750    -0.4898220     0.0000470
  O       -1.9464210    -0.9505350     0.0000920
  O       -1.3136110     1.2425340    -0.0001370
  C        1.2935389     0.5154758    -0.0000544
  C        2.5436140    -0.3088020     0.0000540
  C       -1.0432140     0.0552480    -0.0000110
  H        1.1579040     1.1158880    -0.8849190
  H        1.1578830     1.1160920     0.8846680
  H        3.3970060     0.3748880    -0.0000150
  H        2.6041570    -0.9424410     0.8870860
  H        2.6041770    -0.9426460    -0.8868290
  H       -2.8175810    -0.5097500     0.0000430
units angstrom
no_reorient  #important for SAPT in psi4, default
symmetry c1  #important for SAPT in psi4, default
}

set PROPERTIES_ORIGIN ["COM"]
properties('MP2/aug-cc-pvtz', properties = ['dipole'])
--------------------------------------------------------------------------

    Molecular point group: c1
  Charge       = 0
  Multiplicity = 1
  Basis Set: AUG-CC-PVTZ
    Blend: AUG-CC-PVTZ
  Basis Set: (AUG-CC-PVTZ AUX)
    Blend: AUG-CC-PVTZ-JKFIT

    Orbital Energies [Eh]
    ---------------------

    Doubly Occupied:

       1A    -20.621854     2A    -20.610630     3A    -20.550414
       4A    -11.437890     5A    -11.300844     6A    -11.232098
       7A     -1.500754     8A     -1.392896     9A     -1.361139
      10A     -1.053827    11A     -0.892134    12A     -0.820908
      13A     -0.737368    14A     -0.713528    15A     -0.700614
      16A     -0.633668    17A     -0.630164    18A     -0.587872
      19A     -0.549007    20A     -0.545357    21A     -0.532927
      22A     -0.500094    23A     -0.475039    24A     -0.474730

  @DF-RHF Final Energy:  -341.84682131790436

   => Energetics <=

    Nuclear Repulsion Energy =            245.3608476917668781
    One-Electron Energy =                -954.7038277757790183
    Two-Electron Energy =                 367.4961587661078397
    Total Energy =                       -341.8468213179043573
  Basis Set: (AUG-CC-PVTZ AUX)
    Blend: AUG-CC-PVTZ-RI
    Molecular point group: c1

    Geometry (in Angstrom), charge = 0, multiplicity = 1:

       Center              X                  Y                   Z               Mass
    ------------   -----------------  -----------------  -----------------  -----------------
         O            0.263656720303    -0.491961132854     0.000047783548    15.994914619570
         O           -1.862239279697    -0.952674132854     0.000092783548    15.994914619570
         O           -1.229429279697     1.240394867146    -0.000136216452    15.994914619570
         C            1.377720620303     0.513336667146    -0.000053616452    12.000000000000
         C            2.627795720303    -0.310941132854     0.000054783548    12.000000000000
         C           -0.959032279697     0.053108867146    -0.000010216452    12.000000000000
         H            1.242085720303     1.113748867146    -0.884918216452     1.007825032230
         H            1.242064720303     1.113952867146     0.884668783548     1.007825032230
         H            3.481187720303     0.372748867146    -0.000014216452     1.007825032230
         H            2.688338720303    -0.944580132854     0.887086783548     1.007825032230
         H            2.688358720303    -0.944785132854    -0.886828216452     1.007825032230
         H           -2.733399279697    -0.511889132854     0.000043783548     1.007825032230

  Basis Set: AUG-CC-PVTZ
    Blend: AUG-CC-PVTZ
  Basis Set: (AUG-CC-PVTZ AUX)
    Blend: AUG-CC-PVTZ-JKFIT
	 Reference Energy          =    -341.8468213179043573 [Eh]
	 Singles Energy            =      -0.0000000000000000 [Eh]
	 Same-Spin Energy          =      -0.3240182054871781 [Eh]
	 Opposite-Spin Energy      =      -1.0073785280189105 [Eh]
	 Correlation Energy        =      -1.3313967335060886 [Eh]
	 Total Energy              =    -343.1782180514104539 [Eh]

	 ================> DF-SCS-MP2 Energies <==================
	-----------------------------------------------------------
	 SCS Same-Spin Scale       =       0.3333333333333333 [-]
	 SCS Opposite-Spin Scale   =       1.2000000000000000 [-]
	 SCS Same-Spin Energy      =      -0.1080060684957260 [Eh]
	 SCS Opposite-Spin Energy  =      -1.2088542336226926 [Eh]
	 SCS Correlation Energy    =      -1.3168603021184186 [Eh]
	 SCS Total Energy          =    -343.1636816200227713 [Eh]
	-----------------------------------------------------------

  Dipole Moment: [D]
     X:     1.1653      Y:    -0.0861      Z:     0.0000     Total:     1.1685

*** Psi4 exiting successfully. Buy a developer a beer!
