                               Psi4 1.3.2 release

  ==> Input File <==

--------------------------------------------------------------------------
#psi4
#
memory 32 gb

molecule  {
0 1
  O        0.1794810    -0.4898030     0.0000350
  O       -1.9464530    -0.9505490     0.0000960
  O       -1.3135820     1.2425430    -0.0001270
  C        1.2564470     0.4820050    -0.0000540
  C        2.5435920    -0.3088610     0.0000600
  C       -1.0431930     0.0552410    -0.0000240
  H        1.1578850     1.1159710    -0.8848970
  H        1.1578520     1.1161750     0.8846380
  H        3.3970200     0.3747910    -0.0000030
  H        2.6040770    -0.9424360     0.8871280
  H        2.6041090    -0.9426420    -0.8868570
  H       -2.8175920    -0.5097070     0.0000630
units angstrom
no_reorient  #important for SAPT in psi4, default
symmetry c1  #important for SAPT in psi4, default
}

set PROPERTIES_ORIGIN ["COM"]
properties('MP2/aug-cc-pvtz', properties = ['dipole'])
--------------------------------------------------------------------------

    Molecular point group: c1
  Charge       = 0
  Multiplicity = 1
  Basis Set: AUG-CC-PVTZ
    Blend: AUG-CC-PVTZ
  Basis Set: (AUG-CC-PVTZ AUX)
    Blend: AUG-CC-PVTZ-JKFIT

    Orbital Energies [Eh]
    ---------------------

    Doubly Occupied:

       1A    -20.624886     2A    -20.617250     3A    -20.553974
       4A    -11.442049     5A    -11.298691     6A    -11.230233
       7A     -1.507807     8A     -1.403582     9A     -1.365856
      10A     -1.049463    11A     -0.897054    12A     -0.819194
      13A     -0.745178    14A     -0.717026    15A     -0.704693
      16A     -0.634883    17A     -0.630203    18A     -0.592799
      19A     -0.553198    20A     -0.547563    21A     -0.524186
      22A     -0.496846    23A     -0.478435    24A     -0.474652

  @DF-RHF Final Energy:  -341.84927500598462

   => Energetics <=

    Nuclear Repulsion Energy =            246.0680417627811210
    One-Electron Energy =                -956.0152332838373468
    Two-Electron Energy =                 368.0979165150715744
    Total Energy =                       -341.8492750059846230
  Basis Set: (AUG-CC-PVTZ AUX)
    Blend: AUG-CC-PVTZ-RI
    Molecular point group: c1

    Geometry (in Angstrom), charge = 0, multiplicity = 1:

       Center              X                  Y                   Z               Mass
    ------------   -----------------  -----------------  -----------------  -----------------
         O            0.268608349126    -0.487475975368     0.000035882544    15.994914619570
         O           -1.857325650874    -0.948221975368     0.000096882544    15.994914619570
         O           -1.224454650874     1.244870024632    -0.000126117456    15.994914619570
         C            1.345574349126     0.484332024632    -0.000053117456    12.000000000000
         C            2.632719349126    -0.306533975368     0.000060882544    12.000000000000
         C           -0.954065650874     0.057568024632    -0.000023117456    12.000000000000
         H            1.247012349126     1.118298024632    -0.884896117456     1.007825032230
         H            1.246979349126     1.118502024632     0.884638882544     1.007825032230
         H            3.486147349126     0.377118024632    -0.000002117456     1.007825032230
         H            2.693204349126    -0.940108975368     0.887128882544     1.007825032230
         H            2.693236349126    -0.940314975368    -0.886856117456     1.007825032230
         H           -2.728464650874    -0.507379975368     0.000063882544     1.007825032230

  Basis Set: AUG-CC-PVTZ
    Blend: AUG-CC-PVTZ
  Basis Set: (AUG-CC-PVTZ AUX)
    Blend: AUG-CC-PVTZ-JKFIT
	 Reference Energy          =    -341.8492750059846230 [Eh]
	 Singles Energy            =      -0.0000000000000000 [Eh]
	 Same-Spin Energy          =      -0.3239252934561458 [Eh]
	 Opposite-Spin Energy      =      -1.0068685645267570 [Eh]
	 Correlation Energy        =      -1.3307938579829028 [Eh]
	 Total Energy              =    -343.1800688639675059 [Eh]

	 ================> DF-SCS-MP2 Energies <==================
	-----------------------------------------------------------
	 SCS Same-Spin Scale       =       0.3333333333333333 [-]
	 SCS Opposite-Spin Scale   =       1.2000000000000000 [-]
	 SCS Same-Spin Energy      =      -0.1079750978187153 [Eh]
	 SCS Opposite-Spin Energy  =      -1.2082422774321084 [Eh]
	 SCS Correlation Energy    =      -1.3162173752508237 [Eh]
	 SCS Total Energy          =    -343.1654923812354241 [Eh]
	-----------------------------------------------------------

  Dipole Moment: [D]
     X:     0.9489      Y:    -0.1539      Z:     0.0000     Total:     0.9613

*** Psi4 exiting successfully. Buy a developer a beer!
