                               Psi4 1.3.2 release

  ==> Input File <==

--------------------------------------------------------------------------
#psi4
#
memory 32 gb

molecule  {
0 1
  O        0.1794810    -0.4898030     0.0000350
  O       -1.9464530    -0.9505490     0.0000960
  O       -1.3135820     1.2425430    -0.0001270
  C        1.2564470     0.4820050    -0.0000540
  C        2.5435920    -0.3088610     0.0000600
  C       -0.9752329    -0.0102173    -0.0000182
  H        1.1578850     1.1159710    -0.8848970
  H        1.1578520     1.1161750     0.8846380
  H        3.3970200     0.3747910    -0.0000030
  H        2.6040770    -0.9424360     0.8871280
  H        2.6041090    -0.9426420    -0.8868570
  H       -2.8175920    -0.5097070     0.0000630
units angstrom
no_reorient  #important for SAPT in psi4, default
symmetry c1  #important for SAPT in psi4, default
}

set PROPERTIES_ORIGIN ["COM"]
properties('MP2/aug-cc-pvtz', properties = ['dipole'])
--------------------------------------------------------------------------

    Molecular point group: c1
  Charge       = 0
  Multiplicity = 1
  Basis Set: AUG-CC-PVTZ
    Blend: AUG-CC-PVTZ
  Basis Set: (AUG-CC-PVTZ AUX)
    Blend: AUG-CC-PVTZ-JKFIT

    Orbital Energies [Eh]
    ---------------------

    Doubly Occupied:

       1A    -20.639076     2A    -20.619607     3A    -20.530669
       4A    -11.443427     5A    -11.311200     6A    -11.237937
       7A     -1.531618     8A     -1.419006     9A     -1.308982
      10A     -1.069021    11A     -0.914566    12A     -0.826316
      13A     -0.768267    14A     -0.722372    15A     -0.703073
      16A     -0.639567    17A     -0.629341    18A     -0.573440
      19A     -0.564229    20A     -0.555196    21A     -0.533330
      22A     -0.501206    23A     -0.454929    24A     -0.452787

  @DF-RHF Final Energy:  -341.83436588647675

   => Energetics <=

    Nuclear Repulsion Energy =            246.4552441215989518
    One-Electron Energy =                -956.6808971852543664
    Two-Electron Energy =                 368.3912871771786399
    Total Energy =                       -341.8343658864767463
  Basis Set: (AUG-CC-PVTZ AUX)
    Blend: AUG-CC-PVTZ-RI
    Molecular point group: c1

    Geometry (in Angstrom), charge = 0, multiplicity = 1:

       Center              X                  Y                   Z               Mass
    ------------   -----------------  -----------------  -----------------  -----------------
         O            0.259550192345    -0.478751274491     0.000035109483    15.994914619570
         O           -1.866383807655    -0.939497274491     0.000096109483    15.994914619570
         O           -1.233512807655     1.253594725509    -0.000126890517    15.994914619570
         C            1.336516192345     0.493056725509    -0.000053890517    12.000000000000
         C            2.623661192345    -0.297809274491     0.000060109483    12.000000000000
         C           -0.895163707655     0.000834425509    -0.000018090517    12.000000000000
         H            1.237954192345     1.127022725509    -0.884896890517     1.007825032230
         H            1.237921192345     1.127226725509     0.884638109483     1.007825032230
         H            3.477089192345     0.385842725509    -0.000002890517     1.007825032230
         H            2.684146192345    -0.931384274491     0.887128109483     1.007825032230
         H            2.684178192345    -0.931590274491    -0.886856890517     1.007825032230
         H           -2.737522807655    -0.498655274491     0.000063109483     1.007825032230

  Basis Set: AUG-CC-PVTZ
    Blend: AUG-CC-PVTZ
  Basis Set: (AUG-CC-PVTZ AUX)
    Blend: AUG-CC-PVTZ-JKFIT
	 Reference Energy          =    -341.8343658864767463 [Eh]
	 Singles Energy            =      -0.0000000000000000 [Eh]
	 Same-Spin Energy          =      -0.3242153146729717 [Eh]
	 Opposite-Spin Energy      =      -1.0069559090657230 [Eh]
	 Correlation Energy        =      -1.3311712237386946 [Eh]
	 Total Energy              =    -343.1655371102154390 [Eh]

	 ================> DF-SCS-MP2 Energies <==================
	-----------------------------------------------------------
	 SCS Same-Spin Scale       =       0.3333333333333333 [-]
	 SCS Opposite-Spin Scale   =       1.2000000000000000 [-]
	 SCS Same-Spin Energy      =      -0.1080717715576572 [Eh]
	 SCS Opposite-Spin Energy  =      -1.2083470908788676 [Eh]
	 SCS Correlation Energy    =      -1.3164188624365247 [Eh]
	 SCS Total Energy          =    -343.1507847489132814 [Eh]
	-----------------------------------------------------------

  Dipole Moment: [D]
     X:     1.7854      Y:    -0.6657      Z:     0.0001     Total:     1.9054

*** Psi4 exiting successfully. Buy a developer a beer!
