                               Psi4 1.3.2 release

  ==> Input File <==

--------------------------------------------------------------------------
#psi4
#
memory 32 gb

molecule  {
0 1
  O        0.1794810    -0.4898030     0.0000350
  O       -1.9464530    -0.9505490     0.0000960
  O       -1.3135820     1.2425430    -0.0001270
  C        1.2564470     0.4820050    -0.0000540
  C        2.5435920    -0.3088610     0.0000600
  C       -1.1532748     0.1441476    -0.0000317
  H        1.1578850     1.1159710    -0.8848970
  H        1.1578520     1.1161750     0.8846380
  H        3.3970200     0.3747910    -0.0000030
  H        2.6040770    -0.9424360     0.8871280
  H        2.6041090    -0.9426420    -0.8868570
  H       -2.8175920    -0.5097070     0.0000630
units angstrom
no_reorient  #important for SAPT in psi4, default
symmetry c1  #important for SAPT in psi4, default
}

set PROPERTIES_ORIGIN ["COM"]
properties('MP2/aug-cc-pvtz', properties = ['dipole'])
--------------------------------------------------------------------------

    Molecular point group: c1
  Charge       = 0
  Multiplicity = 1
  Basis Set: AUG-CC-PVTZ
    Blend: AUG-CC-PVTZ
  Basis Set: (AUG-CC-PVTZ AUX)
    Blend: AUG-CC-PVTZ-JKFIT

    Orbital Energies [Eh]
    ---------------------

    Doubly Occupied:

       1A    -20.635281     2A    -20.586571     3A    -20.580868
       4A    -11.438189     5A    -11.280251     6A    -11.218550
       7A     -1.535593     8A     -1.431595     9A     -1.353251
      10A     -1.023646    11A     -0.873059    12A     -0.809170
      13A     -0.747981    14A     -0.736414    15A     -0.699540
      16A     -0.645299    17A     -0.635717    18A     -0.587056
      19A     -0.540929    20A     -0.540383    21A     -0.524771
      22A     -0.518879    23A     -0.476072    24A     -0.455495

  @DF-RHF Final Energy:  -341.81953563846645

   => Energetics <=

    Nuclear Repulsion Energy =            245.7896179946222333
    One-Electron Energy =                -955.4691869226891185
    Two-Electron Energy =                 367.8600332896003806
    Total Energy =                       -341.8195356384664478
  Basis Set: (AUG-CC-PVTZ AUX)
    Blend: AUG-CC-PVTZ-RI
    Molecular point group: c1

    Geometry (in Angstrom), charge = 0, multiplicity = 1:

       Center              X                  Y                   Z               Mass
    ------------   -----------------  -----------------  -----------------  -----------------
         O            0.283280755482    -0.499326015637     0.000036908849    15.994914619570
         O           -1.842653244518    -0.960072015637     0.000097908849    15.994914619570
         O           -1.209782244518     1.233019984363    -0.000125091151    15.994914619570
         C            1.360246755482     0.472481984363    -0.000052091151    12.000000000000
         C            2.647391755482    -0.318384015637     0.000061908849    12.000000000000
         C           -1.049475044518     0.134624584363    -0.000029791151    12.000000000000
         H            1.261684755482     1.106447984363    -0.884895091151     1.007825032230
         H            1.261651755482     1.106651984363     0.884639908849     1.007825032230
         H            3.500819755482     0.365267984363    -0.000001091151     1.007825032230
         H            2.707876755482    -0.951959015637     0.887129908849     1.007825032230
         H            2.707908755482    -0.952165015637    -0.886855091151     1.007825032230
         H           -2.713792244518    -0.519230015637     0.000064908849     1.007825032230

  Basis Set: AUG-CC-PVTZ
    Blend: AUG-CC-PVTZ
  Basis Set: (AUG-CC-PVTZ AUX)
    Blend: AUG-CC-PVTZ-JKFIT
	 Reference Energy          =    -341.8195356384664478 [Eh]
	 Singles Energy            =      -0.0000000000000000 [Eh]
	 Same-Spin Energy          =      -0.3239185478330621 [Eh]
	 Opposite-Spin Energy      =      -1.0078082835916269 [Eh]
	 Correlation Energy        =      -1.3317268314246888 [Eh]
	 Total Energy              =    -343.1512624698911509 [Eh]

	 ================> DF-SCS-MP2 Energies <==================
	-----------------------------------------------------------
	 SCS Same-Spin Scale       =       0.3333333333333333 [-]
	 SCS Opposite-Spin Scale   =       1.2000000000000000 [-]
	 SCS Same-Spin Energy      =      -0.1079728492776874 [Eh]
	 SCS Opposite-Spin Energy  =      -1.2093699403099523 [Eh]
	 SCS Correlation Energy    =      -1.3173427895876397 [Eh]
	 SCS Total Energy          =    -343.1368784280541036 [Eh]
	-----------------------------------------------------------

  Dipole Moment: [D]
     X:    -0.3689      Y:     0.5667      Z:    -0.0000     Total:     0.6762

*** Psi4 exiting successfully. Buy a developer a beer!
