                               Psi4 1.3.2 release

  ==> Input File <==

--------------------------------------------------------------------------
#psi4
#
memory 32 gb

molecule  {
0 1
  O        0.1977282    -0.5087017     0.0433201
  O       -1.9464530    -0.9505490     0.0000960
  O       -1.3135820     1.2425430    -0.0001270
  C        1.2564470     0.4820050    -0.0000540
  C        2.5435920    -0.3088610     0.0000600
  C       -1.0431930     0.0552410    -0.0000240
  H        1.1578850     1.1159710    -0.8848970
  H        1.1578520     1.1161750     0.8846380
  H        3.3970200     0.3747910    -0.0000030
  H        2.6040770    -0.9424360     0.8871280
  H        2.6041090    -0.9426420    -0.8868570
  H       -2.8175920    -0.5097070     0.0000630
units angstrom
no_reorient  #important for SAPT in psi4, default
symmetry c1  #important for SAPT in psi4, default
}

set PROPERTIES_ORIGIN ["COM"]
properties('MP2/aug-cc-pvtz', properties = ['dipole'])
--------------------------------------------------------------------------

    Molecular point group: c1
  Charge       = 0
  Multiplicity = 1
  Basis Set: AUG-CC-PVTZ
    Blend: AUG-CC-PVTZ
  Basis Set: (AUG-CC-PVTZ AUX)
    Blend: AUG-CC-PVTZ-JKFIT

    Orbital Energies [Eh]
    ---------------------

    Doubly Occupied:

       1A    -20.626966     2A    -20.617149     3A    -20.558681
       4A    -11.445596     5A    -11.296709     6A    -11.228443
       7A     -1.503776     8A     -1.400523     9A     -1.368327
      10A     -1.045715    11A     -0.892996    12A     -0.821020
      13A     -0.741099    14A     -0.718974    15A     -0.701301
      16A     -0.635780    17A     -0.629599    18A     -0.593309
      19A     -0.549999    20A     -0.546010    21A     -0.523779
      22A     -0.497449    23A     -0.480694    24A     -0.475291

  @DF-RHF Final Energy:  -341.84612240312003

   => Energetics <=

    Nuclear Repulsion Energy =            245.5286010826806660
    One-Electron Energy =                -954.9510789378463187
    Two-Electron Energy =                 367.5763554520456182
    Total Energy =                       -341.8461224031200345
  Basis Set: (AUG-CC-PVTZ AUX)
    Blend: AUG-CC-PVTZ-RI
    Molecular point group: c1

    Geometry (in Angstrom), charge = 0, multiplicity = 1:

       Center              X                  Y                   Z               Mass
    ------------   -----------------  -----------------  -----------------  -----------------
         O            0.283613775114    -0.503017156706     0.035631007518    15.994914619570
         O           -1.860567424886    -0.944864456706    -0.007593092482    15.994914619570
         O           -1.227696424886     1.248227543294    -0.007816092482    15.994914619570
         C            1.342332575114     0.487689543294    -0.007743092482    12.000000000000
         C            2.629477575114    -0.303176456706    -0.007629092482    12.000000000000
         C           -0.957307424886     0.060925543294    -0.007713092482    12.000000000000
         H            1.243770575114     1.121655543294    -0.892586092482     1.007825032230
         H            1.243737575114     1.121859543294     0.876948907518     1.007825032230
         H            3.482905575114     0.380475543294    -0.007692092482     1.007825032230
         H            2.689962575114    -0.936751456706     0.879438907518     1.007825032230
         H            2.689994575114    -0.936957456706    -0.894546092482     1.007825032230
         H           -2.731706424886    -0.504022456706    -0.007626092482     1.007825032230

  Basis Set: AUG-CC-PVTZ
    Blend: AUG-CC-PVTZ
  Basis Set: (AUG-CC-PVTZ AUX)
    Blend: AUG-CC-PVTZ-JKFIT
	 Reference Energy          =    -341.8461224031200345 [Eh]
	 Singles Energy            =      -0.0000000000000000 [Eh]
	 Same-Spin Energy          =      -0.3243829879292476 [Eh]
	 Opposite-Spin Energy      =      -1.0081577908805530 [Eh]
	 Correlation Energy        =      -1.3325407788098005 [Eh]
	 Total Energy              =    -343.1786631819298350 [Eh]

	 ================> DF-SCS-MP2 Energies <==================
	-----------------------------------------------------------
	 SCS Same-Spin Scale       =       0.3333333333333333 [-]
	 SCS Opposite-Spin Scale   =       1.2000000000000000 [-]
	 SCS Same-Spin Energy      =      -0.1081276626430825 [Eh]
	 SCS Opposite-Spin Energy  =      -1.2097893490566636 [Eh]
	 SCS Correlation Energy    =      -1.3179170116997461 [Eh]
	 SCS Total Energy          =    -343.1640394148197970 [Eh]
	-----------------------------------------------------------

  Dipole Moment: [D]
     X:     0.7819      Y:    -0.0919      Z:    -0.0521     Total:     0.7890

*** Psi4 exiting successfully. Buy a developer a beer!
