                               Psi4 1.3.2 release

  ==> Input File <==

--------------------------------------------------------------------------
#psi4
#
memory 32 gb

molecule  {
0 1
  O        0.2140527    -0.5267966     0.0000398
  O       -1.9464530    -0.9505490     0.0000960
  O       -1.3135820     1.2425430    -0.0001270
  C        1.2564470     0.4820050    -0.0000540
  C        2.5435920    -0.3088610     0.0000600
  C       -1.0431930     0.0552410    -0.0000240
  H        1.1578850     1.1159710    -0.8848970
  H        1.1578520     1.1161750     0.8846380
  H        3.3970200     0.3747910    -0.0000030
  H        2.6040770    -0.9424360     0.8871280
  H        2.6041090    -0.9426420    -0.8868570
  H       -2.8175920    -0.5097070     0.0000630
units angstrom
no_reorient  #important for SAPT in psi4, default
symmetry c1  #important for SAPT in psi4, default
}

set PROPERTIES_ORIGIN ["COM"]
properties('MP2/aug-cc-pvtz', properties = ['dipole'])
--------------------------------------------------------------------------

    Molecular point group: c1
  Charge       = 0
  Multiplicity = 1
  Basis Set: AUG-CC-PVTZ
    Blend: AUG-CC-PVTZ
  Basis Set: (AUG-CC-PVTZ AUX)
    Blend: AUG-CC-PVTZ-JKFIT

    Orbital Energies [Eh]
    ---------------------

    Doubly Occupied:

       1A    -20.628623     2A    -20.617173     3A    -20.562613
       4A    -11.448484     5A    -11.295143     6A    -11.226937
       7A     -1.501003     8A     -1.397722     9A     -1.370263
      10A     -1.042633    11A     -0.889655    12A     -0.822614
      13A     -0.737642    14A     -0.720570    15A     -0.698764
      16A     -0.635306    17A     -0.630446    18A     -0.593684
      19A     -0.547032    20A     -0.544820    21A     -0.523169
      22A     -0.498334    23A     -0.482340    24A     -0.475884

  @DF-RHF Final Energy:  -341.84301159201624

   => Energetics <=

    Nuclear Repulsion Energy =            245.0792124904255900
    One-Electron Energy =                -954.0627392362957835
    Two-Electron Energy =                 367.1405151538539826
    Total Energy =                       -341.8430115920162393
  Basis Set: (AUG-CC-PVTZ AUX)
    Blend: AUG-CC-PVTZ-RI
    Molecular point group: c1

    Geometry (in Angstrom), charge = 0, multiplicity = 1:

       Center              X                  Y                   Z               Mass
    ------------   -----------------  -----------------  -----------------  -----------------
         O            0.297038085504    -0.517897340115     0.000039829782    15.994914619570
         O           -1.863467614496    -0.941649740115     0.000096029782    15.994914619570
         O           -1.230596614496     1.251442259885    -0.000126970218    15.994914619570
         C            1.339432385504     0.490904259885    -0.000053970218    12.000000000000
         C            2.626577385504    -0.299961740115     0.000060029782    12.000000000000
         C           -0.960207614496     0.064140259885    -0.000023970218    12.000000000000
         H            1.240870385504     1.124870259885    -0.884896970218     1.007825032230
         H            1.240837385504     1.125074259885     0.884638029782     1.007825032230
         H            3.480005385504     0.383690259885    -0.000002970218     1.007825032230
         H            2.687062385504    -0.933536740115     0.887128029782     1.007825032230
         H            2.687094385504    -0.933742740115    -0.886856970218     1.007825032230
         H           -2.734606614496    -0.500807740115     0.000063029782     1.007825032230

  Basis Set: AUG-CC-PVTZ
    Blend: AUG-CC-PVTZ
  Basis Set: (AUG-CC-PVTZ AUX)
    Blend: AUG-CC-PVTZ-JKFIT
	 Reference Energy          =    -341.8430115920162393 [Eh]
	 Singles Energy            =      -0.0000000000000000 [Eh]
	 Same-Spin Energy          =      -0.3247872477366031 [Eh]
	 Opposite-Spin Energy      =      -1.0092901427575232 [Eh]
	 Correlation Energy        =      -1.3340773904941261 [Eh]
	 Total Energy              =    -343.1770889825103836 [Eh]

	 ================> DF-SCS-MP2 Energies <==================
	-----------------------------------------------------------
	 SCS Same-Spin Scale       =       0.3333333333333333 [-]
	 SCS Opposite-Spin Scale   =       1.2000000000000000 [-]
	 SCS Same-Spin Energy      =      -0.1082624159122010 [Eh]
	 SCS Opposite-Spin Energy  =      -1.2111481713090277 [Eh]
	 SCS Correlation Energy    =      -1.3194105872212287 [Eh]
	 SCS Total Energy          =    -343.1624221792374669 [Eh]
	-----------------------------------------------------------

  Dipole Moment: [D]
     X:     0.6426      Y:    -0.0369      Z:     0.0000     Total:     0.6437

*** Psi4 exiting successfully. Buy a developer a beer!
