                               Psi4 1.3.2 release

  ==> Input File <==

--------------------------------------------------------------------------
#psi4
#
memory 32 gb

molecule  {
0 1
  O        0.1794810    -0.4898030     0.0000350
  O       -1.8740923    -1.0111072     0.0000996
  O       -1.3135820     1.2425430    -0.0001270
  C        1.2564470     0.4820050    -0.0000540
  C        2.5435920    -0.3088610     0.0000600
  C       -1.0431930     0.0552410    -0.0000240
  H        1.1578850     1.1159710    -0.8848970
  H        1.1578520     1.1161750     0.8846380
  H        3.3970200     0.3747910    -0.0000030
  H        2.6040770    -0.9424360     0.8871280
  H        2.6041090    -0.9426420    -0.8868570
  H       -2.8175920    -0.5097070     0.0000630
units angstrom
no_reorient  #important for SAPT in psi4, default
symmetry c1  #important for SAPT in psi4, default
}

set PROPERTIES_ORIGIN ["COM"]
properties('MP2/aug-cc-pvtz', properties = ['dipole'])
--------------------------------------------------------------------------

    Molecular point group: c1
  Charge       = 0
  Multiplicity = 1
  Basis Set: AUG-CC-PVTZ
    Blend: AUG-CC-PVTZ
  Basis Set: (AUG-CC-PVTZ AUX)
    Blend: AUG-CC-PVTZ-JKFIT

    Orbital Energies [Eh]
    ---------------------

    Doubly Occupied:

       1A    -20.633946     2A    -20.612279     3A    -20.558787
       4A    -11.441550     5A    -11.295926     6A    -11.228620
       7A     -1.505628     8A     -1.389853     9A     -1.369451
      10A     -1.046466    11A     -0.889008    12A     -0.809937
      13A     -0.731667    14A     -0.717012    15A     -0.703684
      16A     -0.628897    17A     -0.627187    18A     -0.592828
      19A     -0.549367    20A     -0.544431    21A     -0.522759
      22A     -0.497750    23A     -0.481226    24A     -0.474144

  @DF-RHF Final Energy:  -341.83358487192800

   => Energetics <=

    Nuclear Repulsion Energy =            246.0689335658129551
    One-Electron Energy =                -956.1002277224753243
    Two-Electron Energy =                 368.1977092847344011
    Total Energy =                       -341.8335848719279966
  Basis Set: (AUG-CC-PVTZ AUX)
    Blend: AUG-CC-PVTZ-RI
    Molecular point group: c1

    Geometry (in Angstrom), charge = 0, multiplicity = 1:

       Center              X                  Y                   Z               Mass
    ------------   -----------------  -----------------  -----------------  -----------------
         O            0.255752840514    -0.476717283679     0.000035242973    15.994914619570
         O           -1.797820459486    -0.998021483679     0.000099842973    15.994914619570
         O           -1.237310159486     1.255628716321    -0.000126757027    15.994914619570
         C            1.332718840514     0.495090716321    -0.000053757027    12.000000000000
         C            2.619863840514    -0.295775283679     0.000060242973    12.000000000000
         C           -0.966921159486     0.068326716321    -0.000023757027    12.000000000000
         H            1.234156840514     1.129056716321    -0.884896757027     1.007825032230
         H            1.234123840514     1.129260716321     0.884638242973     1.007825032230
         H            3.473291840514     0.387876716321    -0.000002757027     1.007825032230
         H            2.680348840514    -0.929350283679     0.887128242973     1.007825032230
         H            2.680380840514    -0.929556283679    -0.886856757027     1.007825032230
         H           -2.741320159486    -0.496621283679     0.000063242973     1.007825032230

  Basis Set: AUG-CC-PVTZ
    Blend: AUG-CC-PVTZ
  Basis Set: (AUG-CC-PVTZ AUX)
    Blend: AUG-CC-PVTZ-JKFIT
	 Reference Energy          =    -341.8335848719279966 [Eh]
	 Singles Energy            =      -0.0000000000000000 [Eh]
	 Same-Spin Energy          =      -0.3257760532916020 [Eh]
	 Opposite-Spin Energy      =      -1.0111194993861097 [Eh]
	 Correlation Energy        =      -1.3368955526777118 [Eh]
	 Total Energy              =    -343.1704804246057279 [Eh]

	 ================> DF-SCS-MP2 Energies <==================
	-----------------------------------------------------------
	 SCS Same-Spin Scale       =       0.3333333333333333 [-]
	 SCS Opposite-Spin Scale   =       1.2000000000000000 [-]
	 SCS Same-Spin Energy      =      -0.1085920177638673 [Eh]
	 SCS Opposite-Spin Energy  =      -1.2133433992633316 [Eh]
	 SCS Correlation Energy    =      -1.3219354170271989 [Eh]
	 SCS Total Energy          =    -343.1555202889551879 [Eh]
	-----------------------------------------------------------

  Dipole Moment: [D]
     X:     0.7701      Y:    -0.0997      Z:     0.0000     Total:     0.7765

*** Psi4 exiting successfully. Buy a developer a beer!
