                               Psi4 1.3.2 release

  ==> Input File <==

--------------------------------------------------------------------------
#psi4
#
memory 32 gb

molecule  {
0 1
  O        0.1794810    -0.4898030     0.0000350
  O       -1.9464530    -0.9505490     0.0000960
  O       -1.3135820     1.2425430    -0.0001270
  C        1.2564470     0.4820050    -0.0000540
  C        2.5435920    -0.3088610     0.0000600
  C       -0.9987833    -0.1397661    -0.0000071
  H        1.1578850     1.1159710    -0.8848970
  H        1.1578520     1.1161750     0.8846380
  H        3.3970200     0.3747910    -0.0000030
  H        2.6040770    -0.9424360     0.8871280
  H        2.6041090    -0.9426420    -0.8868570
  H       -2.8175920    -0.5097070     0.0000630
units angstrom
no_reorient  #important for SAPT in psi4, default
symmetry c1  #important for SAPT in psi4, default
}

set PROPERTIES_ORIGIN ["COM"]
properties('MP2/aug-cc-pvtz', properties = ['dipole'])
--------------------------------------------------------------------------

    Molecular point group: c1
  Charge       = 0
  Multiplicity = 1
  Basis Set: AUG-CC-PVTZ
    Blend: AUG-CC-PVTZ
  Basis Set: (AUG-CC-PVTZ AUX)
    Blend: AUG-CC-PVTZ-JKFIT

    Orbital Energies [Eh]
    ---------------------

    Doubly Occupied:

       1A    -20.647177     2A    -20.640335     3A    -20.498514
       4A    -11.443866     5A    -11.312268     6A    -11.237955
       7A     -1.554578     8A     -1.466719     9A     -1.231291
      10A     -1.075052    11A     -0.932486    12A     -0.849500
      13A     -0.791929    14A     -0.730937    15A     -0.718264
      16A     -0.647644    17A     -0.646539    18A     -0.568106
      19A     -0.566698    20A     -0.550163    21A     -0.504337
      22A     -0.502499    23A     -0.420240    24A     -0.411739

  @DF-RHF Final Energy:  -341.79229611440638

   => Energetics <=

    Nuclear Repulsion Energy =            246.4807220165703825
    One-Electron Energy =                -956.6483664875629529
    Two-Electron Energy =                 368.3753483565862439
    Total Energy =                       -341.7922961144063834
  Basis Set: (AUG-CC-PVTZ AUX)
    Blend: AUG-CC-PVTZ-RI
    Molecular point group: c1

    Geometry (in Angstrom), charge = 0, multiplicity = 1:

       Center              X                  Y                   Z               Mass
    ------------   -----------------  -----------------  -----------------  -----------------
         O            0.262689140279    -0.461484181871     0.000033630004    15.994914619570
         O           -1.863244859721    -0.922230181871     0.000094630004    15.994914619570
         O           -1.230373859721     1.270861818129    -0.000128369996    15.994914619570
         C            1.339655140279     0.510323818129    -0.000055369996    12.000000000000
         C            2.626800140279    -0.280542181871     0.000058630004    12.000000000000
         C           -0.915575159721    -0.111447281871    -0.000008469996    12.000000000000
         H            1.241093140279     1.144289818129    -0.884898369996     1.007825032230
         H            1.241060140279     1.144493818129     0.884636630004     1.007825032230
         H            3.480228140279     0.403109818129    -0.000004369996     1.007825032230
         H            2.687285140279    -0.914117181871     0.887126630004     1.007825032230
         H            2.687317140279    -0.914323181871    -0.886858369996     1.007825032230
         H           -2.734383859721    -0.481388181871     0.000061630004     1.007825032230

  Basis Set: AUG-CC-PVTZ
    Blend: AUG-CC-PVTZ
  Basis Set: (AUG-CC-PVTZ AUX)
    Blend: AUG-CC-PVTZ-JKFIT
	 Reference Energy          =    -341.7922961144063834 [Eh]
	 Singles Energy            =      -0.0000000000000000 [Eh]
	 Same-Spin Energy          =      -0.3243929045110460 [Eh]
	 Opposite-Spin Energy      =      -1.0067329083564041 [Eh]
	 Correlation Energy        =      -1.3311258128674499 [Eh]
	 Total Energy              =    -343.1234219272738528 [Eh]

	 ================> DF-SCS-MP2 Energies <==================
	-----------------------------------------------------------
	 SCS Same-Spin Scale       =       0.3333333333333333 [-]
	 SCS Opposite-Spin Scale   =       1.2000000000000000 [-]
	 SCS Same-Spin Energy      =      -0.1081309681703486 [Eh]
	 SCS Opposite-Spin Energy  =      -1.2080794900276848 [Eh]
	 SCS Correlation Energy    =      -1.3162104581980334 [Eh]
	 SCS Total Energy          =    -343.1085065726044263 [Eh]
	-----------------------------------------------------------

  Dipole Moment: [D]
     X:     1.6120      Y:    -1.8031      Z:     0.0002     Total:     2.4186

*** Psi4 exiting successfully. Buy a developer a beer!
