                               Psi4 1.4a3.dev225

  ==> Input File <==

--------------------------------------------------------------------------
#psi4
#
memory 32 gb

molecule  {
0 1
  O        0.1794750    -0.4898220     0.0000470
  O       -1.9464210    -0.9505350     0.0000920
  O       -1.3136110     1.2425340    -0.0001370
  C        1.2564180     0.4819790    -0.0000510
  C        2.5436140    -0.3088020     0.0000540
  C       -1.0565770     0.0403674    -0.0000095
  H        1.1579040     1.1158880    -0.8849190
  H        1.1578830     1.1160920     0.8846680
  H        3.3970060     0.3748880    -0.0000150
  H        2.6041570    -0.9424410     0.8870860
  H        2.6041770    -0.9426460    -0.8868290
  H       -2.8175810    -0.5097500     0.0000430
units angstrom
no_reorient  #important for SAPT in psi4, default
symmetry c1  #important for SAPT in psi4, default
}

set PROPERTIES_ORIGIN ["COM"]
properties('MP2/aug-cc-pvtz', properties = ['dipole'])
--------------------------------------------------------------------------

    Molecular point group: c1
  Charge       = 0
  Multiplicity = 1
  Basis Set: AUG-CC-PVTZ
    Blend: AUG-CC-PVTZ
  Basis Set: (AUG-CC-PVTZ AUX)
    Blend: AUG-CC-PVTZ-JKFIT

    Orbital Energies [Eh]
    ---------------------

    Doubly Occupied:

       1A    -20.631043     2A    -20.614980     3A    -20.551032
       4A    -11.442986     5A    -11.297365     6A    -11.229342
       7A     -1.510345     8A     -1.407363     9A     -1.358547
      10A     -1.048198    11A     -0.898684    12A     -0.821225
      13A     -0.746522    14A     -0.718834    15A     -0.703732
      16A     -0.634534    17A     -0.632633    18A     -0.591428
      19A     -0.552404    20A     -0.548195    21A     -0.521986
      22A     -0.494799    23A     -0.475868    24A     -0.471482

  @DF-RHF Final Energy:  -341.84842641643206

   => Energetics <=

    Nuclear Repulsion Energy =            245.9864624496646002
    One-Electron Energy =                -955.8627242236358370
    Two-Electron Energy =                 368.0278353575391748
    Total Energy =                       -341.8484264164320621
  Basis Set: (AUG-CC-PVTZ AUX)
    Blend: AUG-CC-PVTZ-RI
    Molecular point group: c1

    Geometry (in Angstrom), charge = 0, multiplicity = 1:

       Center              X                  Y                   Z               Mass
    ------------   -----------------  -----------------  -----------------  -----------------
         O            0.270385537375    -0.485513083574     0.000047130444    15.994914619570
         O           -1.855510462625    -0.946226083574     0.000092130444    15.994914619570
         O           -1.222700462625     1.246842916426    -0.000136869556    15.994914619570
         C            1.347328537375     0.486287916426    -0.000050869556    12.000000000000
         C            2.634524537375    -0.304493083574     0.000054130444    12.000000000000
         C           -0.965666462625     0.044676316426    -0.000009369556    12.000000000000
         H            1.248814537375     1.120196916426    -0.884918869556     1.007825032230
         H            1.248793537375     1.120400916426     0.884668130444     1.007825032230
         H            3.487916537375     0.379196916426    -0.000014869556     1.007825032230
         H            2.695067537375    -0.938132083574     0.887086130444     1.007825032230
         H            2.695087537375    -0.938337083574    -0.886828869556     1.007825032230
         H           -2.726670462625    -0.505441083574     0.000043130444     1.007825032230

  Basis Set: AUG-CC-PVTZ
    Blend: AUG-CC-PVTZ
  Basis Set: (AUG-CC-PVTZ AUX)
    Blend: AUG-CC-PVTZ-JKFIT
	 Reference Energy          =    -341.8484264164320621 [Eh]
	 Singles Energy            =      -0.0000000000000000 [Eh]
	 Same-Spin Energy          =      -0.3240114829032688 [Eh]
	 Opposite-Spin Energy      =      -1.0068748509011718 [Eh]
	 Correlation Energy        =      -1.3308863338044405 [Eh]
	 Total Energy              =    -343.1793127502364769 [Eh]

	 ================> DF-SCS-MP2 Energies <==================
	-----------------------------------------------------------
	 SCS Same-Spin Scale       =       0.3333333333333333 [-]
	 SCS Opposite-Spin Scale   =       1.2000000000000000 [-]
	 SCS Same-Spin Energy      =      -0.1080038276344229 [Eh]
	 SCS Opposite-Spin Energy  =      -1.2082498210814061 [Eh]
	 SCS Correlation Energy    =      -1.3162536487158289 [Eh]
	 SCS Total Energy          =    -343.1646800651478770 [Eh]
	-----------------------------------------------------------

  Dipole Moment: [D]
     X:     0.8061      Y:    -0.2939      Z:     0.0000     Total:     0.8580

*** Psi4 exiting successfully. Buy a developer a beer!
