                               Psi4 1.3.2 release

  ==> Input File <==

--------------------------------------------------------------------------
#psi4
#
memory 32 gb

molecule  {
0 1
  O        0.1794810    -0.4898030     0.0000350
  O       -1.9464530    -0.9505490     0.0000960
  O       -1.3135820     1.2425430    -0.0001270
  C        1.2564470     0.4820050    -0.0000540
  C        2.5435920    -0.3088610     0.0000600
  C       -1.0431930     0.0552410    -0.0000240
  H        1.1578850     1.1159710    -0.8848970
  H        1.1578520     1.1161750     0.8846380
  H        3.3970200     0.3747910    -0.0000030
  H        2.6040770    -0.9424360     0.8871280
  H        2.6041090    -0.9426420    -0.8868570
  H       -2.7283663    -0.5548599     0.0000664
units angstrom
no_reorient  #important for SAPT in psi4, default
symmetry c1  #important for SAPT in psi4, default
}

set PROPERTIES_ORIGIN ["COM"]
properties('MP2/aug-cc-pvtz', properties = ['dipole'])
--------------------------------------------------------------------------

    Molecular point group: c1
  Charge       = 0
  Multiplicity = 1
  Basis Set: AUG-CC-PVTZ
    Blend: AUG-CC-PVTZ
  Basis Set: (AUG-CC-PVTZ AUX)
    Blend: AUG-CC-PVTZ-JKFIT

    Orbital Energies [Eh]
    ---------------------

    Doubly Occupied:

       1A    -20.618290     2A    -20.617750     3A    -20.556211
       4A    -11.444316     5A    -11.299411     6A    -11.230789
       7A     -1.518121     8A     -1.419311     9A     -1.370039
      10A     -1.051656    11A     -0.907943    12A     -0.827988
      13A     -0.754027    14A     -0.723023    15A     -0.706347
      16A     -0.643252    17A     -0.632702    18A     -0.594443
      19A     -0.554466    20A     -0.549731    21A     -0.525002
      22A     -0.499473    23A     -0.480791    24A     -0.475708

  @DF-RHF Final Energy:  -341.84411149420720

   => Energetics <=

    Nuclear Repulsion Energy =            246.7214124748140591
    One-Electron Energy =                -957.1294670830712903
    Two-Electron Energy =                 368.5639431140500051
    Total Energy =                       -341.8441114942071977
  Basis Set: (AUG-CC-PVTZ AUX)
    Blend: AUG-CC-PVTZ-RI
    Molecular point group: c1

    Geometry (in Angstrom), charge = 0, multiplicity = 1:

       Center              X                  Y                   Z               Mass
    ------------   -----------------  -----------------  -----------------  -----------------
         O            0.267609546483    -0.486970528665     0.000035844484    15.994914619570
         O           -1.858324453517    -0.947716528665     0.000096844484    15.994914619570
         O           -1.225453453517     1.245375471335    -0.000126155516    15.994914619570
         C            1.344575546483     0.484837471335    -0.000053155516    12.000000000000
         C            2.631720546483    -0.306028528665     0.000060844484    12.000000000000
         C           -0.955064453517     0.058073471335    -0.000023155516    12.000000000000
         H            1.246013546483     1.118803471335    -0.884896155516     1.007825032230
         H            1.245980546483     1.119007471335     0.884638844484     1.007825032230
         H            3.485148546483     0.377623471335    -0.000002155516     1.007825032230
         H            2.692205546483    -0.939603528665     0.887128844484     1.007825032230
         H            2.692237546483    -0.939809528665    -0.886856155516     1.007825032230
         H           -2.640237753517    -0.552027428665     0.000067244484     1.007825032230

  Basis Set: AUG-CC-PVTZ
    Blend: AUG-CC-PVTZ
  Basis Set: (AUG-CC-PVTZ AUX)
    Blend: AUG-CC-PVTZ-JKFIT
	 Reference Energy          =    -341.8441114942071977 [Eh]
	 Singles Energy            =      -0.0000000000000000 [Eh]
	 Same-Spin Energy          =      -0.3227956168468680 [Eh]
	 Opposite-Spin Energy      =      -1.0042219163985786 [Eh]
	 Correlation Energy        =      -1.3270175332454466 [Eh]
	 Total Energy              =    -343.1711290274526505 [Eh]

	 ================> DF-SCS-MP2 Energies <==================
	-----------------------------------------------------------
	 SCS Same-Spin Scale       =       0.3333333333333333 [-]
	 SCS Opposite-Spin Scale   =       1.2000000000000000 [-]
	 SCS Same-Spin Energy      =      -0.1075985389489560 [Eh]
	 SCS Opposite-Spin Energy  =      -1.2050662996782944 [Eh]
	 SCS Correlation Energy    =      -1.3126648386272504 [Eh]
	 SCS Total Energy          =    -343.1567763328344540 [Eh]
	-----------------------------------------------------------

  Dipole Moment: [D]
     X:     1.0958      Y:    -0.1696      Z:     0.0000     Total:     1.1089

*** Psi4 exiting successfully. Buy a developer a beer!
