                               Psi4 1.3.2 release

  ==> Input File <==

--------------------------------------------------------------------------
#psi4
#
memory 32 gb

molecule  {
0 1
  O        0.1794810    -0.4898030     0.0000350
  O       -1.9464530    -0.9505490     0.0000960
  O       -1.3135820     1.2425430    -0.0001270
  C        1.1079623     0.3480188    -0.0000417
  C        2.5435920    -0.3088610     0.0000600
  C       -1.0431930     0.0552410    -0.0000240
  H        1.1578850     1.1159710    -0.8848970
  H        1.1578520     1.1161750     0.8846380
  H        3.3970200     0.3747910    -0.0000030
  H        2.6040770    -0.9424360     0.8871280
  H        2.6041090    -0.9426420    -0.8868570
  H       -2.8175920    -0.5097070     0.0000630
units angstrom
no_reorient  #important for SAPT in psi4, default
symmetry c1  #important for SAPT in psi4, default
}

set PROPERTIES_ORIGIN ["COM"]
properties('MP2/aug-cc-pvtz', properties = ['dipole'])
--------------------------------------------------------------------------

    Molecular point group: c1
  Charge       = 0
  Multiplicity = 1
  Basis Set: AUG-CC-PVTZ
    Blend: AUG-CC-PVTZ
  Basis Set: (AUG-CC-PVTZ AUX)
    Blend: AUG-CC-PVTZ-JKFIT

    Orbital Energies [Eh]
    ---------------------

    Doubly Occupied:

       1A    -20.640252     2A    -20.636868     3A    -20.569299
       4A    -11.458740     5A    -11.299925     6A    -11.225262
       7A     -1.556403     8A     -1.451567     9A     -1.381906
      10A     -1.041629    11A     -0.926153    12A     -0.809836
      13A     -0.777656    14A     -0.734859    15A     -0.730662
      16A     -0.660996    17A     -0.625900    18A     -0.624972
      19A     -0.557971    20A     -0.554740    21A     -0.502204
      22A     -0.493981    23A     -0.470337    24A     -0.437077

  @DF-RHF Final Energy:  -341.80695174022145

   => Energetics <=

    Nuclear Repulsion Energy =            249.2557283332306213
    One-Electron Energy =                -961.7869670303226712
    Two-Electron Energy =                 370.7242869568705714
    Total Energy =                       -341.8069517402214501
  Basis Set: (AUG-CC-PVTZ AUX)
    Blend: AUG-CC-PVTZ-RI
    Molecular point group: c1

    Geometry (in Angstrom), charge = 0, multiplicity = 1:

       Center              X                  Y                   Z               Mass
    ------------   -----------------  -----------------  -----------------  -----------------
         O            0.288399339608    -0.469617437695     0.000034243121    15.994914619570
         O           -1.837534660392    -0.930363437695     0.000095243121    15.994914619570
         O           -1.204663660392     1.262728562305    -0.000127756879    15.994914619570
         C            1.216880639608     0.368204362305    -0.000042456879    12.000000000000
         C            2.652510339608    -0.288675437695     0.000059243121    12.000000000000
         C           -0.934274660392     0.075426562305    -0.000024756879    12.000000000000
         H            1.266803339608     1.136156562305    -0.884897756879     1.007825032230
         H            1.266770339608     1.136360562305     0.884637243121     1.007825032230
         H            3.505938339608     0.394976562305    -0.000003756879     1.007825032230
         H            2.712995339608    -0.922250437695     0.887127243121     1.007825032230
         H            2.713027339608    -0.922456437695    -0.886857756879     1.007825032230
         H           -2.708673660392    -0.489521437695     0.000062243121     1.007825032230

  Basis Set: AUG-CC-PVTZ
    Blend: AUG-CC-PVTZ
  Basis Set: (AUG-CC-PVTZ AUX)
    Blend: AUG-CC-PVTZ-JKFIT
	 Reference Energy          =    -341.8069517402214501 [Eh]
	 Singles Energy            =      -0.0000000000000000 [Eh]
	 Same-Spin Energy          =      -0.3250790704651682 [Eh]
	 Opposite-Spin Energy      =      -1.0074015820067923 [Eh]
	 Correlation Energy        =      -1.3324806524719606 [Eh]
	 Total Energy              =    -343.1394323926934362 [Eh]

	 ================> DF-SCS-MP2 Energies <==================
	-----------------------------------------------------------
	 SCS Same-Spin Scale       =       0.3333333333333333 [-]
	 SCS Opposite-Spin Scale   =       1.2000000000000000 [-]
	 SCS Same-Spin Energy      =      -0.1083596901550561 [Eh]
	 SCS Opposite-Spin Energy  =      -1.2088818984081506 [Eh]
	 SCS Correlation Energy    =      -1.3172415885632067 [Eh]
	 SCS Total Energy          =    -343.1241933287846564 [Eh]
	-----------------------------------------------------------

  Dipole Moment: [D]
     X:     0.0346      Y:    -0.4981      Z:     0.0001     Total:     0.4993

*** Psi4 exiting successfully. Buy a developer a beer!
