                               Psi4 1.3.2 release

  ==> Input File <==

--------------------------------------------------------------------------
#psi4
#
memory 32 gb

molecule  {
0 1
  O        0.1794810    -0.4898030     0.0000350
  O       -1.9464530    -0.9505490     0.0000960
  O       -1.3135820     1.2425430    -0.0001270
  C        1.1822047     0.4150119    -0.0000479
  C        2.5435920    -0.3088610     0.0000600
  C       -1.0431930     0.0552410    -0.0000240
  H        1.1578850     1.1159710    -0.8848970
  H        1.1578520     1.1161750     0.8846380
  H        3.3970200     0.3747910    -0.0000030
  H        2.6040770    -0.9424360     0.8871280
  H        2.6041090    -0.9426420    -0.8868570
  H       -2.8175920    -0.5097070     0.0000630
units angstrom
no_reorient  #important for SAPT in psi4, default
symmetry c1  #important for SAPT in psi4, default
}

set PROPERTIES_ORIGIN ["COM"]
properties('MP2/aug-cc-pvtz', properties = ['dipole'])
--------------------------------------------------------------------------

    Molecular point group: c1
  Charge       = 0
  Multiplicity = 1
  Basis Set: AUG-CC-PVTZ
    Blend: AUG-CC-PVTZ
  Basis Set: (AUG-CC-PVTZ AUX)
    Blend: AUG-CC-PVTZ-JKFIT

    Orbital Energies [Eh]
    ---------------------

    Doubly Occupied:

       1A    -20.630768     2A    -20.629129     3A    -20.561259
       4A    -11.450212     5A    -11.297314     6A    -11.227377
       7A     -1.526402     8A     -1.427385     9A     -1.374092
      10A     -1.042882    11A     -0.910573    12A     -0.814138
      13A     -0.761268    14A     -0.723929    15A     -0.716767
      16A     -0.646233    17A     -0.624995    18A     -0.609246
      19A     -0.557612    20A     -0.552120    21A     -0.499513
      22A     -0.496863    23A     -0.485666    24A     -0.461553

  @DF-RHF Final Energy:  -341.84074015926024

   => Energetics <=

    Nuclear Repulsion Energy =            247.5757742672723509
    One-Electron Energy =                -958.7784357145529839
    Two-Electron Energy =                 369.3619212880204259
    Total Energy =                       -341.8407401592602355
  Basis Set: (AUG-CC-PVTZ AUX)
    Blend: AUG-CC-PVTZ-RI
    Molecular point group: c1

    Geometry (in Angstrom), charge = 0, multiplicity = 1:

       Center              X                  Y                   Z               Mass
    ------------   -----------------  -----------------  -----------------  -----------------
         O            0.278503837703    -0.478546706531     0.000035069497    15.994914619570
         O           -1.847430162297    -0.939292706531     0.000096069497    15.994914619570
         O           -1.214559162297     1.253799293469    -0.000126930503    15.994914619570
         C            1.281227537703     0.426268193469    -0.000047830503    12.000000000000
         C            2.642614837703    -0.297604706531     0.000060069497    12.000000000000
         C           -0.944170162297     0.066497293469    -0.000023930503    12.000000000000
         H            1.256907837703     1.127227293469    -0.884896930503     1.007825032230
         H            1.256874837703     1.127431293469     0.884638069497     1.007825032230
         H            3.496042837703     0.386047293469    -0.000002930503     1.007825032230
         H            2.703099837703    -0.931179706531     0.887128069497     1.007825032230
         H            2.703131837703    -0.931385706531    -0.886856930503     1.007825032230
         H           -2.718569162297    -0.498450706531     0.000063069497     1.007825032230

  Basis Set: AUG-CC-PVTZ
    Blend: AUG-CC-PVTZ
  Basis Set: (AUG-CC-PVTZ AUX)
    Blend: AUG-CC-PVTZ-JKFIT
	 Reference Energy          =    -341.8407401592602355 [Eh]
	 Singles Energy            =      -0.0000000000000000 [Eh]
	 Same-Spin Energy          =      -0.3241556332930986 [Eh]
	 Opposite-Spin Energy      =      -1.0065173323156209 [Eh]
	 Correlation Energy        =      -1.3306729656087195 [Eh]
	 Total Energy              =    -343.1714131248689341 [Eh]

	 ================> DF-SCS-MP2 Energies <==================
	-----------------------------------------------------------
	 SCS Same-Spin Scale       =       0.3333333333333333 [-]
	 SCS Opposite-Spin Scale   =       1.2000000000000000 [-]
	 SCS Same-Spin Energy      =      -0.1080518777643662 [Eh]
	 SCS Opposite-Spin Energy  =      -1.2078207987787450 [Eh]
	 SCS Correlation Energy    =      -1.3158726765431112 [Eh]
	 SCS Total Energy          =    -343.1566128358033438 [Eh]
	-----------------------------------------------------------

  Dipole Moment: [D]
     X:     0.5084      Y:    -0.3070      Z:     0.0000     Total:     0.5939

*** Psi4 exiting successfully. Buy a developer a beer!
