                               Psi4 1.4a3.dev225

  ==> Input File <==

--------------------------------------------------------------------------
#psi4
#
memory 32 gb

molecule  {
0 1
  O        0.1794750    -0.4898220     0.0000470
  O       -1.9464210    -0.9505350     0.0000920
  O       -1.3136110     1.2425340    -0.0001370
  C        1.2564180     0.4819790    -0.0000510
  C        2.5436140    -0.3088020     0.0000540
  C       -1.0321111     0.0064963    -0.0000058
  H        1.1579040     1.1158880    -0.8849190
  H        1.1578830     1.1160920     0.8846680
  H        3.3970060     0.3748880    -0.0000150
  H        2.6041570    -0.9424410     0.8870860
  H        2.6041770    -0.9426460    -0.8868290
  H       -2.8175810    -0.5097500     0.0000430
units angstrom
no_reorient  #important for SAPT in psi4, default
symmetry c1  #important for SAPT in psi4, default
}

set PROPERTIES_ORIGIN ["COM"]
properties('MP2/aug-cc-pvtz', properties = ['dipole'])
--------------------------------------------------------------------------

    Molecular point group: c1
  Charge       = 0
  Multiplicity = 1
  Basis Set: AUG-CC-PVTZ
    Blend: AUG-CC-PVTZ
  Basis Set: (AUG-CC-PVTZ AUX)
    Blend: AUG-CC-PVTZ-JKFIT

    Orbital Energies [Eh]
    ---------------------

    Doubly Occupied:

       1A    -20.631162     2A    -20.623565     3A    -20.539957
       4A    -11.443985     5A    -11.302125     6A    -11.232241
       7A     -1.516374     8A     -1.419063     9A     -1.331771
      10A     -1.055751    11A     -0.906407    12A     -0.825018
      13A     -0.756722    14A     -0.713489    15A     -0.709665
      16A     -0.634951    17A     -0.632910    18A     -0.584639
      19A     -0.556761    20A     -0.552436    21A     -0.524891
      22A     -0.493716    23A     -0.465756    24A     -0.463076

  @DF-RHF Final Energy:  -341.84446813141165

   => Energetics <=

    Nuclear Repulsion Energy =            246.1048507240371066
    One-Electron Energy =                -956.0657803997443125
    Two-Electron Energy =                 368.1164615442955892
    Total Energy =                       -341.8444681314116451
  Basis Set: (AUG-CC-PVTZ AUX)
    Blend: AUG-CC-PVTZ-RI
    Molecular point group: c1

    Geometry (in Angstrom), charge = 0, multiplicity = 1:

       Center              X                  Y                   Z               Mass
    ------------   -----------------  -----------------  -----------------  -----------------
         O            0.267124565747    -0.480998526736     0.000046637285    15.994914619570
         O           -1.858771434253    -0.941711526736     0.000091637285    15.994914619570
         O           -1.225961434253     1.251357473264    -0.000137362715    15.994914619570
         C            1.344067565747     0.490802473264    -0.000051362715    12.000000000000
         C            2.631263565747    -0.299978526736     0.000053637285    12.000000000000
         C           -0.944461534253     0.015319773264    -0.000006162715    12.000000000000
         H            1.245553565747     1.124711473264    -0.884919362715     1.007825032230
         H            1.245532565747     1.124915473264     0.884667637285     1.007825032230
         H            3.484655565747     0.383711473264    -0.000015362715     1.007825032230
         H            2.691806565747    -0.933617526736     0.887085637285     1.007825032230
         H            2.691826565747    -0.933822526736    -0.886829362715     1.007825032230
         H           -2.729931434253    -0.500926526736     0.000042637285     1.007825032230

  Basis Set: AUG-CC-PVTZ
    Blend: AUG-CC-PVTZ
  Basis Set: (AUG-CC-PVTZ AUX)
    Blend: AUG-CC-PVTZ-JKFIT
	 Reference Energy          =    -341.8444681314116451 [Eh]
	 Singles Energy            =      -0.0000000000000000 [Eh]
	 Same-Spin Energy          =      -0.3241311137270558 [Eh]
	 Opposite-Spin Energy      =      -1.0068151331990087 [Eh]
	 Correlation Energy        =      -1.3309462469260644 [Eh]
	 Total Energy              =    -343.1754143783377344 [Eh]

	 ================> DF-SCS-MP2 Energies <==================
	-----------------------------------------------------------
	 SCS Same-Spin Scale       =       0.3333333333333333 [-]
	 SCS Opposite-Spin Scale   =       1.2000000000000000 [-]
	 SCS Same-Spin Energy      =      -0.1080437045756853 [Eh]
	 SCS Opposite-Spin Energy  =      -1.2081781598388104 [Eh]
	 SCS Correlation Energy    =      -1.3162218644144956 [Eh]
	 SCS Total Energy          =    -343.1606899958261465 [Eh]
	-----------------------------------------------------------

  Dipole Moment: [D]
     X:     1.1097      Y:    -0.5669      Z:     0.0001     Total:     1.2461

*** Psi4 exiting successfully. Buy a developer a beer!
