                               Psi4 1.3.2 release

  ==> Input File <==

--------------------------------------------------------------------------
#psi4
#
memory 32 gb

molecule  {
0 1
  O        0.1794810    -0.4898030     0.0000350
  O       -1.9108012    -0.9814596     0.0000979
  O       -1.3135820     1.2425430    -0.0001270
  C        1.2564470     0.4820050    -0.0000540
  C        2.5435920    -0.3088610     0.0000600
  C       -1.0431930     0.0552410    -0.0000240
  H        1.1578850     1.1159710    -0.8848970
  H        1.1578520     1.1161750     0.8846380
  H        3.3970200     0.3747910    -0.0000030
  H        2.6040770    -0.9424360     0.8871280
  H        2.6041090    -0.9426420    -0.8868570
  H       -2.8175920    -0.5097070     0.0000630
units angstrom
no_reorient  #important for SAPT in psi4, default
symmetry c1  #important for SAPT in psi4, default
}

set PROPERTIES_ORIGIN ["COM"]
properties('MP2/aug-cc-pvtz', properties = ['dipole'])
--------------------------------------------------------------------------

    Molecular point group: c1
  Charge       = 0
  Multiplicity = 1
  Basis Set: AUG-CC-PVTZ
    Blend: AUG-CC-PVTZ
  Basis Set: (AUG-CC-PVTZ AUX)
    Blend: AUG-CC-PVTZ-JKFIT

    Orbital Energies [Eh]
    ---------------------

    Doubly Occupied:

       1A    -20.629690     2A    -20.614741     3A    -20.556361
       4A    -11.441673     5A    -11.297306     6A    -11.229416
       7A     -1.506462     8A     -1.396543     9A     -1.367555
      10A     -1.047937    11A     -0.892630    12A     -0.814076
      13A     -0.737698    14A     -0.717617    15A     -0.704133
      16A     -0.631483    17A     -0.629530    18A     -0.593024
      19A     -0.551418    20A     -0.545986    21A     -0.523450
      22A     -0.497171    23A     -0.479909    24A     -0.474510

  @DF-RHF Final Energy:  -341.84335931238803

   => Energetics <=

    Nuclear Repulsion Energy =            246.0497196227551910
    One-Electron Energy =                -956.0255229116585269
    Two-Electron Energy =                 368.1324439765152761
    Total Energy =                       -341.8433593123880314
  Basis Set: (AUG-CC-PVTZ AUX)
    Blend: AUG-CC-PVTZ-RI
    Molecular point group: c1

    Geometry (in Angstrom), charge = 0, multiplicity = 1:

       Center              X                  Y                   Z               Mass
    ------------   -----------------  -----------------  -----------------  -----------------
         O            0.262274496331    -0.481984438048     0.000035544993    15.994914619570
         O           -1.828007703669    -0.973641038048     0.000098444993    15.994914619570
         O           -1.230788503669     1.250361561952    -0.000126455007    15.994914619570
         C            1.339240496331     0.489823561952    -0.000053455007    12.000000000000
         C            2.626385496331    -0.301042438048     0.000060544993    12.000000000000
         C           -0.960399503669     0.063059561952    -0.000023455007    12.000000000000
         H            1.240678496331     1.123789561952    -0.884896455007     1.007825032230
         H            1.240645496331     1.123993561952     0.884638544993     1.007825032230
         H            3.479813496331     0.382609561952    -0.000002455007     1.007825032230
         H            2.686870496331    -0.934617438048     0.887128544993     1.007825032230
         H            2.686902496331    -0.934823438048    -0.886856455007     1.007825032230
         H           -2.734798503669    -0.501888438048     0.000063544993     1.007825032230

  Basis Set: AUG-CC-PVTZ
    Blend: AUG-CC-PVTZ
  Basis Set: (AUG-CC-PVTZ AUX)
    Blend: AUG-CC-PVTZ-JKFIT
	 Reference Energy          =    -341.8433593123880314 [Eh]
	 Singles Energy            =      -0.0000000000000000 [Eh]
	 Same-Spin Energy          =      -0.3248187820109254 [Eh]
	 Opposite-Spin Energy      =      -1.0088941996404908 [Eh]
	 Correlation Energy        =      -1.3337129816514162 [Eh]
	 Total Energy              =    -343.1770722940394194 [Eh]

	 ================> DF-SCS-MP2 Energies <==================
	-----------------------------------------------------------
	 SCS Same-Spin Scale       =       0.3333333333333333 [-]
	 SCS Opposite-Spin Scale   =       1.2000000000000000 [-]
	 SCS Same-Spin Energy      =      -0.1082729273369751 [Eh]
	 SCS Opposite-Spin Energy  =      -1.2106730395685890 [Eh]
	 SCS Correlation Energy    =      -1.3189459669055641 [Eh]
	 SCS Total Energy          =    -343.1623052792936051 [Eh]
	-----------------------------------------------------------

  Dipole Moment: [D]
     X:     0.8561      Y:    -0.1265      Z:     0.0000     Total:     0.8654

*** Psi4 exiting successfully. Buy a developer a beer!
