                               Psi4 1.3.2 release

  ==> Input File <==

--------------------------------------------------------------------------
#psi4
#
memory 32 gb

molecule  {
0 1
  O        0.1794810    -0.4898030     0.0000350
  O       -1.9287620    -0.9661599     0.0000969
  O       -1.3135820     1.2425430    -0.0001270
  C        1.2564470     0.4820050    -0.0000540
  C        2.5435920    -0.3088610     0.0000600
  C       -1.0431930     0.0552410    -0.0000240
  H        1.1578850     1.1159710    -0.8848970
  H        1.1578520     1.1161750     0.8846380
  H        3.3970200     0.3747910    -0.0000030
  H        2.6040770    -0.9424360     0.8871280
  H        2.6041090    -0.9426420    -0.8868570
  H       -2.8175920    -0.5097070     0.0000630
units angstrom
no_reorient  #important for SAPT in psi4, default
symmetry c1  #important for SAPT in psi4, default
}

set PROPERTIES_ORIGIN ["COM"]
properties('MP2/aug-cc-pvtz', properties = ['dipole'])
--------------------------------------------------------------------------

    Molecular point group: c1
  Charge       = 0
  Multiplicity = 1
  Basis Set: AUG-CC-PVTZ
    Blend: AUG-CC-PVTZ
  Basis Set: (AUG-CC-PVTZ AUX)
    Blend: AUG-CC-PVTZ-JKFIT

    Orbital Energies [Eh]
    ---------------------

    Doubly Occupied:

       1A    -20.627358     2A    -20.615990     3A    -20.555163
       4A    -11.441828     5A    -11.297998     6A    -11.229822
       7A     -1.507067     8A     -1.400021     9A     -1.366678
      10A     -1.048693    11A     -0.894727    12A     -0.816509
      13A     -0.741337    14A     -0.717428    15A     -0.704400
      16A     -0.633300    17A     -0.629862    18A     -0.592956
      19A     -0.552336    20A     -0.546772    21A     -0.523812
      22A     -0.496976    23A     -0.479192    24A     -0.474610

  @DF-RHF Final Energy:  -341.84685568124024

   => Energetics <=

    Nuclear Repulsion Energy =            246.0541310323635855
    One-Electron Energy =                -956.0123046105286448
    Two-Electron Energy =                 368.1113178969248452
    Total Energy =                       -341.8468556812402426
  Basis Set: (AUG-CC-PVTZ AUX)
    Blend: AUG-CC-PVTZ-RI
    Molecular point group: c1

    Geometry (in Angstrom), charge = 0, multiplicity = 1:

       Center              X                  Y                   Z               Mass
    ------------   -----------------  -----------------  -----------------  -----------------
         O            0.265465388889    -0.484702563013     0.000035722651    15.994914619570
         O           -1.842777611111    -0.961059463013     0.000097622651    15.994914619570
         O           -1.227597611111     1.247643436987    -0.000126277349    15.994914619570
         C            1.342431388889     0.487105436987    -0.000053277349    12.000000000000
         C            2.629576388889    -0.303760563013     0.000060722651    12.000000000000
         C           -0.957208611111     0.060341436987    -0.000023277349    12.000000000000
         H            1.243869388889     1.121071436987    -0.884896277349     1.007825032230
         H            1.243836388889     1.121275436987     0.884638722651     1.007825032230
         H            3.483004388889     0.379891436987    -0.000002277349     1.007825032230
         H            2.690061388889    -0.937335563013     0.887128722651     1.007825032230
         H            2.690093388889    -0.937541563013    -0.886856277349     1.007825032230
         H           -2.731607611111    -0.504606563013     0.000063722651     1.007825032230

  Basis Set: AUG-CC-PVTZ
    Blend: AUG-CC-PVTZ
  Basis Set: (AUG-CC-PVTZ AUX)
    Blend: AUG-CC-PVTZ-JKFIT
	 Reference Energy          =    -341.8468556812402426 [Eh]
	 Singles Energy            =      -0.0000000000000000 [Eh]
	 Same-Spin Energy          =      -0.3243636598439043 [Eh]
	 Opposite-Spin Energy      =      -1.0078560741846332 [Eh]
	 Correlation Energy        =      -1.3322197340285375 [Eh]
	 Total Energy              =    -343.1790754152687555 [Eh]

	 ================> DF-SCS-MP2 Energies <==================
	-----------------------------------------------------------
	 SCS Same-Spin Scale       =       0.3333333333333333 [-]
	 SCS Opposite-Spin Scale   =       1.2000000000000000 [-]
	 SCS Same-Spin Energy      =      -0.1081212199479681 [Eh]
	 SCS Opposite-Spin Energy  =      -1.2094272890215598 [Eh]
	 SCS Correlation Energy    =      -1.3175485089695280 [Eh]
	 SCS Total Energy          =    -343.1644041902097797 [Eh]
	-----------------------------------------------------------

  Dipole Moment: [D]
     X:     0.9017      Y:    -0.1401      Z:     0.0000     Total:     0.9125

*** Psi4 exiting successfully. Buy a developer a beer!
