                               Psi4 1.3.2 release

  ==> Input File <==

--------------------------------------------------------------------------
#psi4
#
memory 32 gb

molecule  {
0 1
  O        0.1708481    -0.4799081    -0.0216109
  O       -1.9464530    -0.9505490     0.0000960
  O       -1.3135820     1.2425430    -0.0001270
  C        1.2564470     0.4820050    -0.0000540
  C        2.5435920    -0.3088610     0.0000600
  C       -1.0431930     0.0552410    -0.0000240
  H        1.1578850     1.1159710    -0.8848970
  H        1.1578520     1.1161750     0.8846380
  H        3.3970200     0.3747910    -0.0000030
  H        2.6040770    -0.9424360     0.8871280
  H        2.6041090    -0.9426420    -0.8868570
  H       -2.8175920    -0.5097070     0.0000630
units angstrom
no_reorient  #important for SAPT in psi4, default
symmetry c1  #important for SAPT in psi4, default
}

set PROPERTIES_ORIGIN ["COM"]
properties('MP2/aug-cc-pvtz', properties = ['dipole'])
--------------------------------------------------------------------------

    Molecular point group: c1
  Charge       = 0
  Multiplicity = 1
  Basis Set: AUG-CC-PVTZ
    Blend: AUG-CC-PVTZ
  Basis Set: (AUG-CC-PVTZ AUX)
    Blend: AUG-CC-PVTZ-JKFIT

    Orbital Energies [Eh]
    ---------------------

    Doubly Occupied:

       1A    -20.623925     2A    -20.617231     3A    -20.551653
       4A    -11.440312     5A    -11.299659     6A    -11.231104
       7A     -1.510023     8A     -1.404936     9A     -1.364550
      10A     -1.051258    11A     -0.899068    12A     -0.818320
      13A     -0.747188    14A     -0.716086    15A     -0.706319
      16A     -0.635029    17A     -0.630012    18A     -0.592460
      19A     -0.554898    20A     -0.548200    21A     -0.524304
      22A     -0.496692    23A     -0.477233    24A     -0.474016

  @DF-RHF Final Energy:  -341.85016137936753

   => Energetics <=

    Nuclear Repulsion Energy =            246.3258287850929662
    One-Electron Energy =                -956.5230231918649224
    Two-Electron Energy =                 368.3470330274043931
    Total Energy =                       -341.8501613793675347
  Basis Set: (AUG-CC-PVTZ AUX)
    Blend: AUG-CC-PVTZ-RI
    Molecular point group: c1

    Geometry (in Angstrom), charge = 0, multiplicity = 1:

       Center              X                  Y                   Z               Mass
    ------------   -----------------  -----------------  -----------------  -----------------
         O            0.261509159004    -0.479338990537    -0.017764434786    15.994914619570
         O           -1.855791940996    -0.949979890537     0.003942465214    15.994914619570
         O           -1.222920940996     1.243112109463     0.003719465214    15.994914619570
         C            1.347108059004     0.482574109463     0.003792465214    12.000000000000
         C            2.634253059004    -0.308291890537     0.003906465214    12.000000000000
         C           -0.952531940996     0.055810109463     0.003822465214    12.000000000000
         H            1.248546059004     1.116540109463    -0.881050534786     1.007825032230
         H            1.248513059004     1.116744109463     0.888484465214     1.007825032230
         H            3.487681059004     0.375360109463     0.003843465214     1.007825032230
         H            2.694738059004    -0.941866890537     0.890974465214     1.007825032230
         H            2.694770059004    -0.942072890537    -0.883010534786     1.007825032230
         H           -2.726930940996    -0.509137890537     0.003909465214     1.007825032230

  Basis Set: AUG-CC-PVTZ
    Blend: AUG-CC-PVTZ
  Basis Set: (AUG-CC-PVTZ AUX)
    Blend: AUG-CC-PVTZ-JKFIT
	 Reference Energy          =    -341.8501613793675347 [Eh]
	 Singles Energy            =      -0.0000000000000000 [Eh]
	 Same-Spin Energy          =      -0.3237200150477397 [Eh]
	 Opposite-Spin Energy      =      -1.0062865890101644 [Eh]
	 Correlation Energy        =      -1.3300066040579042 [Eh]
	 Total Energy              =    -343.1801679834254628 [Eh]

	 ================> DF-SCS-MP2 Energies <==================
	-----------------------------------------------------------
	 SCS Same-Spin Scale       =       0.3333333333333333 [-]
	 SCS Opposite-Spin Scale   =       1.2000000000000000 [-]
	 SCS Same-Spin Energy      =      -0.1079066716825799 [Eh]
	 SCS Opposite-Spin Energy  =      -1.2075439068121974 [Eh]
	 SCS Correlation Energy    =      -1.3154505784947772 [Eh]
	 SCS Total Energy          =    -343.1656119578623247 [Eh]
	-----------------------------------------------------------

  Dipole Moment: [D]
     X:     1.0283      Y:    -0.1853      Z:     0.0252     Total:     1.0452

*** Psi4 exiting successfully. Buy a developer a beer!
