                               Psi4 1.3.2 release

  ==> Input File <==

--------------------------------------------------------------------------
#psi4
#
memory 32 gb

molecule  {
0 1
  O        0.1625459    -0.4697203    -0.0432502
  O       -1.9464530    -0.9505490     0.0000960
  O       -1.3135820     1.2425430    -0.0001270
  C        1.2564470     0.4820050    -0.0000540
  C        2.5435920    -0.3088610     0.0000600
  C       -1.0431930     0.0552410    -0.0000240
  H        1.1578850     1.1159710    -0.8848970
  H        1.1578520     1.1161750     0.8846380
  H        3.3970200     0.3747910    -0.0000030
  H        2.6040770    -0.9424360     0.8871280
  H        2.6041090    -0.9426420    -0.8868570
  H       -2.8175920    -0.5097070     0.0000630
units angstrom
no_reorient  #important for SAPT in psi4, default
symmetry c1  #important for SAPT in psi4, default
}

set PROPERTIES_ORIGIN ["COM"]
properties('MP2/aug-cc-pvtz', properties = ['dipole'])
--------------------------------------------------------------------------

    Molecular point group: c1
  Charge       = 0
  Multiplicity = 1
  Basis Set: AUG-CC-PVTZ
    Blend: AUG-CC-PVTZ
  Basis Set: (AUG-CC-PVTZ AUX)
    Blend: AUG-CC-PVTZ-JKFIT

    Orbital Energies [Eh]
    ---------------------

    Doubly Occupied:

       1A    -20.623027     2A    -20.617161     3A    -20.549364
       4A    -11.438612     5A    -11.300604     6A    -11.231955
       7A     -1.512338     8A     -1.406165     9A     -1.363220
      10A     -1.052989    11A     -0.901056    12A     -0.817476
      13A     -0.749164    14A     -0.715194    15A     -0.707861
      16A     -0.635583    17A     -0.629479    18A     -0.592074
      19A     -0.556611    20A     -0.548772    21A     -0.524376
      22A     -0.496616    23A     -0.476013    24A     -0.473180

  @DF-RHF Final Energy:  -341.85059402986002

   => Energetics <=

    Nuclear Repulsion Energy =            246.5745578232670425
    One-Electron Energy =                -957.0125229561589322
    Two-Electron Energy =                 368.5873711030318987
    Total Energy =                       -341.8505940298600194
  Basis Set: (AUG-CC-PVTZ AUX)
    Blend: AUG-CC-PVTZ-RI
    Molecular point group: c1

    Geometry (in Angstrom), charge = 0, multiplicity = 1:

       Center              X                  Y                   Z               Mass
    ------------   -----------------  -----------------  -----------------  -----------------
         O            0.254681917145    -0.470961141942    -0.035559324664    15.994914619570
         O           -1.854316982855    -0.951789841942     0.007786875336    15.994914619570
         O           -1.221445982855     1.241302158058     0.007563875336    15.994914619570
         C            1.348583017145     0.480764158058     0.007636875336    12.000000000000
         C            2.635728017145    -0.310101841942     0.007750875336    12.000000000000
         C           -0.951056982855     0.054000158058     0.007666875336    12.000000000000
         H            1.250021017145     1.114730158058    -0.877206124664     1.007825032230
         H            1.249988017145     1.114934158058     0.892328875336     1.007825032230
         H            3.489156017145     0.373550158058     0.007687875336     1.007825032230
         H            2.696213017145    -0.943676841942     0.894818875336     1.007825032230
         H            2.696245017145    -0.943882841942    -0.879166124664     1.007825032230
         H           -2.725455982855    -0.510947841942     0.007753875336     1.007825032230

  Basis Set: AUG-CC-PVTZ
    Blend: AUG-CC-PVTZ
  Basis Set: (AUG-CC-PVTZ AUX)
    Blend: AUG-CC-PVTZ-JKFIT
	 Reference Energy          =    -341.8505940298600194 [Eh]
	 Singles Energy            =      -0.0000000000000000 [Eh]
	 Same-Spin Energy          =      -0.3235307918931210 [Eh]
	 Opposite-Spin Energy      =      -1.0057470443747945 [Eh]
	 Correlation Energy        =      -1.3292778362679154 [Eh]
	 Total Energy              =    -343.1798718661279395 [Eh]

	 ================> DF-SCS-MP2 Energies <==================
	-----------------------------------------------------------
	 SCS Same-Spin Scale       =       0.3333333333333333 [-]
	 SCS Opposite-Spin Scale   =       1.2000000000000000 [-]
	 SCS Same-Spin Energy      =      -0.1078435972977070 [Eh]
	 SCS Opposite-Spin Energy  =      -1.2068964532497533 [Eh]
	 SCS Correlation Energy    =      -1.3147400505474602 [Eh]
	 SCS Total Energy          =    -343.1653340804074901 [Eh]
	-----------------------------------------------------------

  Dipole Moment: [D]
     X:     1.1046      Y:    -0.2168      Z:     0.0497     Total:     1.1268

*** Psi4 exiting successfully. Buy a developer a beer!
