                               Psi4 1.3.2 release

  ==> Input File <==

--------------------------------------------------------------------------
#psi4
#
memory 32 gb

molecule  {
0 1
  O        0.1143145    -0.4123104     0.0000250
  O       -1.9464530    -0.9505490     0.0000960
  O       -1.3135820     1.2425430    -0.0001270
  C        1.2564470     0.4820050    -0.0000540
  C        2.5435920    -0.3088610     0.0000600
  C       -1.0431930     0.0552410    -0.0000240
  H        1.1578850     1.1159710    -0.8848970
  H        1.1578520     1.1161750     0.8846380
  H        3.3970200     0.3747910    -0.0000030
  H        2.6040770    -0.9424360     0.8871280
  H        2.6041090    -0.9426420    -0.8868570
  H       -2.8175920    -0.5097070     0.0000630
units angstrom
no_reorient  #important for SAPT in psi4, default
symmetry c1  #important for SAPT in psi4, default
}

set PROPERTIES_ORIGIN ["COM"]
properties('MP2/aug-cc-pvtz', properties = ['dipole'])
--------------------------------------------------------------------------

    Molecular point group: c1
  Charge       = 0
  Multiplicity = 1
  Basis Set: AUG-CC-PVTZ
    Blend: AUG-CC-PVTZ
  Basis Set: (AUG-CC-PVTZ AUX)
    Blend: AUG-CC-PVTZ-JKFIT

    Orbital Energies [Eh]
    ---------------------

    Doubly Occupied:

       1A    -20.617020     2A    -20.616961     3A    -20.534555
       4A    -11.427410     5A    -11.307089     6A    -11.237377
       7A     -1.531025     8A     -1.411497     9A     -1.354387
      10A     -1.064290    11A     -0.913979    12A     -0.812488
      13A     -0.761456    14A     -0.719405    15A     -0.709227
      16A     -0.635088    17A     -0.631530    18A     -0.589163
      19A     -0.566225    20A     -0.552003    21A     -0.523692
      22A     -0.498223    23A     -0.467154    24A     -0.467129

  @DF-RHF Final Energy:  -341.84831105129240

   => Energetics <=

    Nuclear Repulsion Energy =            248.1699046573340866
    One-Electron Energy =                -960.1396874543403328
    Two-Electron Energy =                 370.1214717457138477
    Total Energy =                       -341.8483110512923986
  Basis Set: (AUG-CC-PVTZ AUX)
    Blend: AUG-CC-PVTZ-RI
    Molecular point group: c1

    Geometry (in Angstrom), charge = 0, multiplicity = 1:

       Center              X                  Y                   Z               Mass
    ------------   -----------------  -----------------  -----------------  -----------------
         O            0.215019245448    -0.423750610714     0.000027659131    15.994914619570
         O           -1.845748254552    -0.961989210714     0.000098659131    15.994914619570
         O           -1.212877254552     1.231102789286    -0.000124340869    15.994914619570
         C            1.357151745448     0.470564789286    -0.000051340869    12.000000000000
         C            2.644296745448    -0.320301210714     0.000062659131    12.000000000000
         C           -0.942488254552     0.043800789286    -0.000021340869    12.000000000000
         H            1.258589745448     1.104530789286    -0.884894340869     1.007825032230
         H            1.258556745448     1.104734789286     0.884640659131     1.007825032230
         H            3.497724745448     0.363350789286    -0.000000340869     1.007825032230
         H            2.704781745448    -0.953876210714     0.887130659131     1.007825032230
         H            2.704813745448    -0.954082210714    -0.886854340869     1.007825032230
         H           -2.716887254552    -0.521147210714     0.000065659131     1.007825032230

  Basis Set: AUG-CC-PVTZ
    Blend: AUG-CC-PVTZ
  Basis Set: (AUG-CC-PVTZ AUX)
    Blend: AUG-CC-PVTZ-JKFIT
	 Reference Energy          =    -341.8483110512923986 [Eh]
	 Singles Energy            =      -0.0000000000000000 [Eh]
	 Same-Spin Energy          =      -0.3224463683817484 [Eh]
	 Opposite-Spin Energy      =      -1.0026162383876320 [Eh]
	 Correlation Energy        =      -1.3250626067693805 [Eh]
	 Total Energy              =    -343.1733736580617915 [Eh]

	 ================> DF-SCS-MP2 Energies <==================
	-----------------------------------------------------------
	 SCS Same-Spin Scale       =       0.3333333333333333 [-]
	 SCS Opposite-Spin Scale   =       1.2000000000000000 [-]
	 SCS Same-Spin Energy      =      -0.1074821227939161 [Eh]
	 SCS Opposite-Spin Energy  =      -1.2031394860651583 [Eh]
	 SCS Correlation Energy    =      -1.3106216088590745 [Eh]
	 SCS Total Energy          =    -343.1589326601514927 [Eh]
	-----------------------------------------------------------

  Dipole Moment: [D]
     X:     1.5945      Y:    -0.4099      Z:     0.0000     Total:     1.6464

*** Psi4 exiting successfully. Buy a developer a beer!
