                               Psi4 1.3.2 release

  ==> Input File <==

--------------------------------------------------------------------------
#psi4
#
memory 32 gb

molecule  {
0 1
  O        0.1794810    -0.4898030     0.0000350
  O       -1.9638689    -0.9346318     0.0000950
  O       -1.3135820     1.2425430    -0.0001270
  C        1.2564470     0.4820050    -0.0000540
  C        2.5435920    -0.3088610     0.0000600
  C       -1.0431930     0.0552410    -0.0000240
  H        1.1578850     1.1159710    -0.8848970
  H        1.1578520     1.1161750     0.8846380
  H        3.3970200     0.3747910    -0.0000030
  H        2.6040770    -0.9424360     0.8871280
  H        2.6041090    -0.9426420    -0.8868570
  H       -2.8175920    -0.5097070     0.0000630
units angstrom
no_reorient  #important for SAPT in psi4, default
symmetry c1  #important for SAPT in psi4, default
}

set PROPERTIES_ORIGIN ["COM"]
properties('MP2/aug-cc-pvtz', properties = ['dipole'])
--------------------------------------------------------------------------

    Molecular point group: c1
  Charge       = 0
  Multiplicity = 1
  Basis Set: AUG-CC-PVTZ
    Blend: AUG-CC-PVTZ
  Basis Set: (AUG-CC-PVTZ AUX)
    Blend: AUG-CC-PVTZ-JKFIT

    Orbital Energies [Eh]
    ---------------------

    Doubly Occupied:

       1A    -20.622270     2A    -20.618520     3A    -20.552795
       4A    -11.442338     5A    -11.299386     6A    -11.230649
       7A     -1.508691     8A     -1.407221     9A     -1.365091
      10A     -1.050250    11A     -0.899645    12A     -0.822124
      13A     -0.749092    14A     -0.716464    15A     -0.705012
      16A     -0.636240    17A     -0.630552    18A     -0.592566
      19A     -0.554013    20A     -0.548356    21A     -0.524569
      22A     -0.496778    23A     -0.477636    24A     -0.474636

  @DF-RHF Final Energy:  -341.85048919593834

   => Energetics <=

    Nuclear Repulsion Energy =            246.0915662461422926
    One-Electron Energy =                -956.0343237879245635
    Two-Electron Energy =                 368.0922683458439337
    Total Energy =                       -341.8504891959383372
  Basis Set: (AUG-CC-PVTZ AUX)
    Blend: AUG-CC-PVTZ-RI
    Molecular point group: c1

    Geometry (in Angstrom), charge = 0, multiplicity = 1:

       Center              X                  Y                   Z               Mass
    ------------   -----------------  -----------------  -----------------  -----------------
         O            0.271702435453    -0.490303804586     0.000036060203    15.994914619570
         O           -1.871647464547    -0.935132604586     0.000096060203    15.994914619570
         O           -1.221360564547     1.242042195414    -0.000125939797    15.994914619570
         C            1.348668435453     0.481504195414    -0.000052939797    12.000000000000
         C            2.635813435453    -0.309361804586     0.000061060203    12.000000000000
         C           -0.950971564547     0.054740195414    -0.000022939797    12.000000000000
         H            1.250106435453     1.115470195414    -0.884895939797     1.007825032230
         H            1.250073435453     1.115674195414     0.884639060203     1.007825032230
         H            3.489241435453     0.374290195414    -0.000001939797     1.007825032230
         H            2.696298435453    -0.942936804586     0.887129060203     1.007825032230
         H            2.696330435453    -0.943142804586    -0.886855939797     1.007825032230
         H           -2.725370564547    -0.510207804586     0.000064060203     1.007825032230

  Basis Set: AUG-CC-PVTZ
    Blend: AUG-CC-PVTZ
  Basis Set: (AUG-CC-PVTZ AUX)
    Blend: AUG-CC-PVTZ-JKFIT
	 Reference Energy          =    -341.8504891959383372 [Eh]
	 Singles Energy            =      -0.0000000000000000 [Eh]
	 Same-Spin Energy          =      -0.3235047755099404 [Eh]
	 Opposite-Spin Energy      =      -1.0059324609713631 [Eh]
	 Correlation Energy        =      -1.3294372364813034 [Eh]
	 Total Energy              =    -343.1799264324196201 [Eh]

	 ================> DF-SCS-MP2 Energies <==================
	-----------------------------------------------------------
	 SCS Same-Spin Scale       =       0.3333333333333333 [-]
	 SCS Opposite-Spin Scale   =       1.2000000000000000 [-]
	 SCS Same-Spin Energy      =      -0.1078349251699801 [Eh]
	 SCS Opposite-Spin Energy  =      -1.2071189531656357 [Eh]
	 SCS Correlation Energy    =      -1.3149538783356158 [Eh]
	 SCS Total Energy          =    -343.1654430742739805 [Eh]
	-----------------------------------------------------------

  Dipole Moment: [D]
     X:     0.9977      Y:    -0.1679      Z:     0.0000     Total:     1.0117

*** Psi4 exiting successfully. Buy a developer a beer!
