                               Psi4 1.4a3.dev225

  ==> Input File <==

--------------------------------------------------------------------------
#psi4
#
memory 32 gb

molecule  {
0 1
  O        0.1794750    -0.4898220     0.0000470
  O       -1.9464210    -0.9505350     0.0000920
  O       -1.3136110     1.2425340    -0.0001370
  C        1.2564180     0.4819790    -0.0000510
  C        2.5436140    -0.3088020     0.0000540
  C       -1.0888816     0.0756065    -0.0000132
  H        1.1579040     1.1158880    -0.8849190
  H        1.1578830     1.1160920     0.8846680
  H        3.3970060     0.3748880    -0.0000150
  H        2.6041570    -0.9424410     0.8870860
  H        2.6041770    -0.9426460    -0.8868290
  H       -2.8175810    -0.5097500     0.0000430
units angstrom
no_reorient  #important for SAPT in psi4, default
symmetry c1  #important for SAPT in psi4, default
}

set PROPERTIES_ORIGIN ["COM"]
properties('MP2/aug-cc-pvtz', properties = ['dipole'])
--------------------------------------------------------------------------

    Molecular point group: c1
  Charge       = 0
  Multiplicity = 1
  Basis Set: AUG-CC-PVTZ
    Blend: AUG-CC-PVTZ
  Basis Set: (AUG-CC-PVTZ AUX)
    Blend: AUG-CC-PVTZ-JKFIT

    Orbital Energies [Eh]
    ---------------------

    Doubly Occupied:

       1A    -20.632372     2A    -20.604052     3A    -20.563000
       4A    -11.441525     5A    -11.291570     6A    -11.225752
       7A     -1.510190     8A     -1.400640     9A     -1.378091
      10A     -1.039519    11A     -0.890067    12A     -0.817280
      13A     -0.738328    14A     -0.726896    15A     -0.698716
      16A     -0.637863    17A     -0.633697    18A     -0.592846
      19A     -0.547276    20A     -0.543466    21A     -0.519191
      22A     -0.505214    23A     -0.482713    24A     -0.469815

  @DF-RHF Final Energy:  -341.84616764172642

   => Energetics <=

    Nuclear Repulsion Energy =            245.8733894960583370
    One-Electron Energy =                -955.6589616299786485
    Two-Electron Energy =                 367.9394044921939440
    Total Energy =                       -341.8461676417264243
  Basis Set: (AUG-CC-PVTZ AUX)
    Blend: AUG-CC-PVTZ-RI
    Molecular point group: c1

    Geometry (in Angstrom), charge = 0, multiplicity = 1:

       Center              X                  Y                   Z               Mass
    ------------   -----------------  -----------------  -----------------  -----------------
         O            0.274691301074    -0.490209976201     0.000047623604    15.994914619570
         O           -1.851204698926    -0.950922976201     0.000092623604    15.994914619570
         O           -1.218394698926     1.242146023799    -0.000136376396    15.994914619570
         C            1.351634301074     0.481591023799    -0.000050376396    12.000000000000
         C            2.638830301074    -0.309189976201     0.000054623604    12.000000000000
         C           -0.993665298926     0.075218523799    -0.000012576396    12.000000000000
         H            1.253120301074     1.115500023799    -0.884918376396     1.007825032230
         H            1.253099301074     1.115704023799     0.884668623604     1.007825032230
         H            3.492222301074     0.374500023799    -0.000014376396     1.007825032230
         H            2.699373301074    -0.942828976201     0.887086623604     1.007825032230
         H            2.699393301074    -0.943033976201    -0.886828376396     1.007825032230
         H           -2.722364698926    -0.510137976201     0.000043623604     1.007825032230

  Basis Set: AUG-CC-PVTZ
    Blend: AUG-CC-PVTZ
  Basis Set: (AUG-CC-PVTZ AUX)
    Blend: AUG-CC-PVTZ-JKFIT
	 Reference Energy          =    -341.8461676417264243 [Eh]
	 Singles Energy            =      -0.0000000000000000 [Eh]
	 Same-Spin Energy          =      -0.3239169136578626 [Eh]
	 Opposite-Spin Energy      =      -1.0070439596692573 [Eh]
	 Correlation Energy        =      -1.3309608733271199 [Eh]
	 Total Energy              =    -343.1771285150535391 [Eh]

	 ================> DF-SCS-MP2 Energies <==================
	-----------------------------------------------------------
	 SCS Same-Spin Scale       =       0.3333333333333333 [-]
	 SCS Opposite-Spin Scale   =       1.2000000000000000 [-]
	 SCS Same-Spin Energy      =      -0.1079723045526209 [Eh]
	 SCS Opposite-Spin Energy  =      -1.2084527516031087 [Eh]
	 SCS Correlation Energy    =      -1.3164250561557296 [Eh]
	 SCS Total Energy          =    -343.1625926978821326 [Eh]
	-----------------------------------------------------------

  Dipole Moment: [D]
     X:     0.4147      Y:    -0.0093      Z:     0.0000     Total:     0.4148

*** Psi4 exiting successfully. Buy a developer a beer!
