                               Psi4 1.3.2 release

  ==> Input File <==

--------------------------------------------------------------------------
#psi4
#
memory 32 gb

molecule  {
0 1
  O        0.1626846    -0.4708593     0.0000325
  O       -1.9464530    -0.9505490     0.0000960
  O       -1.3135820     1.2425430    -0.0001270
  C        1.2564470     0.4820050    -0.0000540
  C        2.5435920    -0.3088610     0.0000600
  C       -1.0431930     0.0552410    -0.0000240
  H        1.1578850     1.1159710    -0.8848970
  H        1.1578520     1.1161750     0.8846380
  H        3.3970200     0.3747910    -0.0000030
  H        2.6040770    -0.9424360     0.8871280
  H        2.6041090    -0.9426420    -0.8868570
  H       -2.8175920    -0.5097070     0.0000630
units angstrom
no_reorient  #important for SAPT in psi4, default
symmetry c1  #important for SAPT in psi4, default
}

set PROPERTIES_ORIGIN ["COM"]
properties('MP2/aug-cc-pvtz', properties = ['dipole'])
--------------------------------------------------------------------------

    Molecular point group: c1
  Charge       = 0
  Multiplicity = 1
  Basis Set: AUG-CC-PVTZ
    Blend: AUG-CC-PVTZ
  Basis Set: (AUG-CC-PVTZ AUX)
    Blend: AUG-CC-PVTZ-JKFIT

    Orbital Energies [Eh]
    ---------------------

    Doubly Occupied:

       1A    -20.622962     2A    -20.617244     3A    -20.549382
       4A    -11.438594     5A    -11.300631     6A    -11.231954
       7A     -1.512372     8A     -1.406151     9A     -1.363262
      10A     -1.053030    11A     -0.901047    12A     -0.817486
      13A     -0.749131    14A     -0.715154    15A     -0.708005
      16A     -0.634760    17A     -0.630290    18A     -0.592113
      19A     -0.556478    20A     -0.548822    21A     -0.524357
      22A     -0.496660    23A     -0.476003    24A     -0.473402

  @DF-RHF Final Energy:  -341.85088306820103

   => Energetics <=

    Nuclear Repulsion Energy =            246.5785023663736126
    One-Electron Energy =                -957.0201924169278982
    Two-Electron Energy =                 368.5908069823532287
    Total Energy =                       -341.8508830682010284
  Basis Set: (AUG-CC-PVTZ AUX)
    Blend: AUG-CC-PVTZ-RI
    Molecular point group: c1

    Geometry (in Angstrom), charge = 0, multiplicity = 1:

       Center              X                  Y                   Z               Mass
    ------------   -----------------  -----------------  -----------------  -----------------
         O            0.254795975882    -0.471897788671     0.000033826691    15.994914619570
         O           -1.854341624118    -0.951587488671     0.000097326691    15.994914619570
         O           -1.221470624118     1.241504511329    -0.000125673309    15.994914619570
         C            1.348558375882     0.480966511329    -0.000052673309    12.000000000000
         C            2.635703375882    -0.309899488671     0.000061326691    12.000000000000
         C           -0.951081624118     0.054202511329    -0.000022673309    12.000000000000
         H            1.249996375882     1.114932511329    -0.884895673309     1.007825032230
         H            1.249963375882     1.115136511329     0.884639326691     1.007825032230
         H            3.489131375882     0.373752511329    -0.000001673309     1.007825032230
         H            2.696188375882    -0.943474488671     0.887129326691     1.007825032230
         H            2.696220375882    -0.943680488671    -0.886855673309     1.007825032230
         H           -2.725480624118    -0.510745488671     0.000064326691     1.007825032230

  Basis Set: AUG-CC-PVTZ
    Blend: AUG-CC-PVTZ
  Basis Set: (AUG-CC-PVTZ AUX)
    Blend: AUG-CC-PVTZ-JKFIT
	 Reference Energy          =    -341.8508830682010284 [Eh]
	 Singles Energy            =      -0.0000000000000000 [Eh]
	 Same-Spin Energy          =      -0.3235243618437234 [Eh]
	 Opposite-Spin Energy      =      -1.0057304634436655 [Eh]
	 Correlation Energy        =      -1.3292548252873888 [Eh]
	 Total Energy              =    -343.1801378934883928 [Eh]

	 ================> DF-SCS-MP2 Energies <==================
	-----------------------------------------------------------
	 SCS Same-Spin Scale       =       0.3333333333333333 [-]
	 SCS Opposite-Spin Scale   =       1.2000000000000000 [-]
	 SCS Same-Spin Energy      =      -0.1078414539479078 [Eh]
	 SCS Opposite-Spin Energy  =      -1.2068765561323984 [Eh]
	 SCS Correlation Energy    =      -1.3147180100803062 [Eh]
	 SCS Total Energy          =    -343.1656010782813269 [Eh]
	-----------------------------------------------------------

  Dipole Moment: [D]
     X:     1.1062      Y:    -0.2151      Z:     0.0000     Total:     1.1270

*** Psi4 exiting successfully. Buy a developer a beer!
