                               Psi4 1.4a3.dev225

  ==> Input File <==

--------------------------------------------------------------------------
#psi4
#
memory 32 gb

molecule  {
0 1
  O        0.1794750    -0.4898220     0.0000470
  O       -1.9464210    -0.9505350     0.0000920
  O       -1.3136110     1.2425340    -0.0001370
  C        1.2712664     0.4953777    -0.0000524
  C        2.5436140    -0.3088020     0.0000540
  C       -1.0432140     0.0552480    -0.0000110
  H        1.1579040     1.1158880    -0.8849190
  H        1.1578830     1.1160920     0.8846680
  H        3.3970060     0.3748880    -0.0000150
  H        2.6041570    -0.9424410     0.8870860
  H        2.6041770    -0.9426460    -0.8868290
  H       -2.8175810    -0.5097500     0.0000430
units angstrom
no_reorient  #important for SAPT in psi4, default
symmetry c1  #important for SAPT in psi4, default
}

set PROPERTIES_ORIGIN ["COM"]
properties('MP2/aug-cc-pvtz', properties = ['dipole'])
--------------------------------------------------------------------------

    Molecular point group: c1
  Charge       = 0
  Multiplicity = 1
  Basis Set: AUG-CC-PVTZ
    Blend: AUG-CC-PVTZ
  Basis Set: (AUG-CC-PVTZ AUX)
    Blend: AUG-CC-PVTZ-JKFIT

    Orbital Energies [Eh]
    ---------------------

    Doubly Occupied:

       1A    -20.623687     2A    -20.614663     3A    -20.552551
       4A    -11.440396     5A    -11.299430     6A    -11.230937
       7A     -1.504869     8A     -1.399183     9A     -1.364045
      10A     -1.051144    11A     -0.894916    12A     -0.819977
      13A     -0.742036    14A     -0.715637    15A     -0.702907
      16A     -0.632936    17A     -0.631580    18A     -0.590416
      19A     -0.551553    20A     -0.546626    21A     -0.528221
      22A     -0.497987    23A     -0.476965    24A     -0.475227

  @DF-RHF Final Energy:  -341.84874652259674

   => Energetics <=

    Nuclear Repulsion Energy =            245.7828339650609166
    One-Electron Energy =                -955.4873818786395532
    Two-Electron Energy =                 367.8558013909818669
    Total Energy =                       -341.8487465225967412
  Basis Set: (AUG-CC-PVTZ AUX)
    Blend: AUG-CC-PVTZ-RI
    Molecular point group: c1

    Geometry (in Angstrom), charge = 0, multiplicity = 1:

       Center              X                  Y                   Z               Mass
    ------------   -----------------  -----------------  -----------------  -----------------
         O            0.266625341551    -0.489282329544     0.000047516975    15.994914619570
         O           -1.859270658449    -0.949995329544     0.000092516975    15.994914619570
         O           -1.226460658449     1.243073670456    -0.000136483025    15.994914619570
         C            1.358416741551     0.495917370456    -0.000051883025    12.000000000000
         C            2.630764341551    -0.308262329544     0.000054516975    12.000000000000
         C           -0.956063658449     0.055787670456    -0.000010483025    12.000000000000
         H            1.245054341551     1.116427670456    -0.884918483025     1.007825032230
         H            1.245033341551     1.116631670456     0.884668516975     1.007825032230
         H            3.484156341551     0.375427670456    -0.000014483025     1.007825032230
         H            2.691307341551    -0.941901329544     0.887086516975     1.007825032230
         H            2.691327341551    -0.942106329544    -0.886828483025     1.007825032230
         H           -2.730430658449    -0.509210329544     0.000043516975     1.007825032230

  Basis Set: AUG-CC-PVTZ
    Blend: AUG-CC-PVTZ
  Basis Set: (AUG-CC-PVTZ AUX)
    Blend: AUG-CC-PVTZ-JKFIT
	 Reference Energy          =    -341.8487465225967412 [Eh]
	 Singles Energy            =      -0.0000000000000000 [Eh]
	 Same-Spin Energy          =      -0.3239476425975301 [Eh]
	 Opposite-Spin Energy      =      -1.0070496246605121 [Eh]
	 Correlation Energy        =      -1.3309972672580421 [Eh]
	 Total Energy              =    -343.1797437898547969 [Eh]

	 ================> DF-SCS-MP2 Energies <==================
	-----------------------------------------------------------
	 SCS Same-Spin Scale       =       0.3333333333333333 [-]
	 SCS Opposite-Spin Scale   =       1.2000000000000000 [-]
	 SCS Same-Spin Energy      =      -0.1079825475325100 [Eh]
	 SCS Opposite-Spin Energy  =      -1.2084595495926145 [Eh]
	 SCS Correlation Energy    =      -1.3164420971251245 [Eh]
	 SCS Total Energy          =    -343.1651886197218460 [Eh]
	-----------------------------------------------------------

  Dipole Moment: [D]
     X:     1.0353      Y:    -0.1263      Z:     0.0000     Total:     1.0429

*** Psi4 exiting successfully. Buy a developer a beer!
