                               Psi4 1.3.2 release

  ==> Input File <==

--------------------------------------------------------------------------
#psi4
#
memory 32 gb

molecule  {
0 1
  O        0.1794810    -0.4898030     0.0000350
  O       -1.9464530    -0.9505490     0.0000960
  O       -1.3135820     1.2425430    -0.0001270
  C        1.2564470     0.4820050    -0.0000540
  C        2.5435920    -0.3088610     0.0000600
  C       -0.9430075    -0.0446852    -0.0000150
  H        1.1578850     1.1159710    -0.8848970
  H        1.1578520     1.1161750     0.8846380
  H        3.3970200     0.3747910    -0.0000030
  H        2.6040770    -0.9424360     0.8871280
  H        2.6041090    -0.9426420    -0.8868570
  H       -2.8175920    -0.5097070     0.0000630
units angstrom
no_reorient  #important for SAPT in psi4, default
symmetry c1  #important for SAPT in psi4, default
}

set PROPERTIES_ORIGIN ["COM"]
properties('MP2/aug-cc-pvtz', properties = ['dipole'])
--------------------------------------------------------------------------

    Molecular point group: c1
  Charge       = 0
  Multiplicity = 1
  Basis Set: AUG-CC-PVTZ
    Blend: AUG-CC-PVTZ
  Basis Set: (AUG-CC-PVTZ AUX)
    Blend: AUG-CC-PVTZ-JKFIT

    Orbital Energies [Eh]
    ---------------------

    Doubly Occupied:

       1A    -20.649557     2A    -20.616949     3A    -20.518448
       4A    -11.442833     5A    -11.317579     6A    -11.241853
       7A     -1.553733     8A     -1.421243     9A     -1.279576
      10A     -1.079555    11A     -0.923572    12A     -0.830102
      13A     -0.781490    14A     -0.733939    15A     -0.699727
      16A     -0.644070    17A     -0.631197    18A     -0.569902
      19A     -0.560778    20A     -0.557826    21A     -0.533554
      22A     -0.507397    23A     -0.440941    24A     -0.437277

  @DF-RHF Final Energy:  -341.81637257879368

   => Energetics <=

    Nuclear Repulsion Energy =            246.7184817269734083
    One-Electron Energy =                -957.1235092832763485
    Two-Electron Energy =                 368.5886549775092362
    Total Energy =                       -341.8163725787936755
  Basis Set: (AUG-CC-PVTZ AUX)
    Blend: AUG-CC-PVTZ-RI
    Molecular point group: c1

    Geometry (in Angstrom), charge = 0, multiplicity = 1:

       Center              X                  Y                   Z               Mass
    ------------   -----------------  -----------------  -----------------  -----------------
         O            0.255254984929    -0.474157172333     0.000034682967    15.994914619570
         O           -1.870679015071    -0.934903172333     0.000095682967    15.994914619570
         O           -1.237808015071     1.258188827667    -0.000127317033    15.994914619570
         C            1.332220984929     0.497650827667    -0.000054317033    12.000000000000
         C            2.619365984929    -0.293215172333     0.000059682967    12.000000000000
         C           -0.867233515071    -0.029039372333    -0.000015317033    12.000000000000
         H            1.233658984929     1.131616827667    -0.884897317033     1.007825032230
         H            1.233625984929     1.131820827667     0.884637682967     1.007825032230
         H            3.472793984929     0.390436827667    -0.000003317033     1.007825032230
         H            2.679850984929    -0.926790172333     0.887127682967     1.007825032230
         H            2.679882984929    -0.926996172333    -0.886857317033     1.007825032230
         H           -2.741818015071    -0.494061172333     0.000062682967     1.007825032230

  Basis Set: AUG-CC-PVTZ
    Blend: AUG-CC-PVTZ
  Basis Set: (AUG-CC-PVTZ AUX)
    Blend: AUG-CC-PVTZ-JKFIT
	 Reference Energy          =    -341.8163725787936755 [Eh]
	 Singles Energy            =      -0.0000000000000000 [Eh]
	 Same-Spin Energy          =      -0.3242985184428499 [Eh]
	 Opposite-Spin Energy      =      -1.0070121773624798 [Eh]
	 Correlation Energy        =      -1.3313106958053298 [Eh]
	 Total Energy              =    -343.1476832745989896 [Eh]

	 ================> DF-SCS-MP2 Energies <==================
	-----------------------------------------------------------
	 SCS Same-Spin Scale       =       0.3333333333333333 [-]
	 SCS Opposite-Spin Scale   =       1.2000000000000000 [-]
	 SCS Same-Spin Energy      =      -0.1080995061476166 [Eh]
	 SCS Opposite-Spin Energy  =      -1.2084146128349758 [Eh]
	 SCS Correlation Energy    =      -1.3165141189825924 [Eh]
	 SCS Total Energy          =    -343.1328866977762573 [Eh]
	-----------------------------------------------------------

  Dipole Moment: [D]
     X:     2.2010      Y:    -0.9378      Z:     0.0001     Total:     2.3925

*** Psi4 exiting successfully. Buy a developer a beer!
