                               Psi4 1.3.2 release

  ==> Input File <==

--------------------------------------------------------------------------
#psi4
#
memory 32 gb

molecule  {
0 1
  O        0.1794810    -0.4898030     0.0000350
  O       -1.9464530    -0.9505490     0.0000960
  O       -1.3135820     1.2425430    -0.0001270
  C        1.2564470     0.4820050    -0.0000540
  C        2.5435920    -0.3088610     0.0000600
  C       -1.1345288     0.0959567    -0.0000284
  H        1.1578850     1.1159710    -0.8848970
  H        1.1578520     1.1161750     0.8846380
  H        3.3970200     0.3747910    -0.0000030
  H        2.6040770    -0.9424360     0.8871280
  H        2.6041090    -0.9426420    -0.8868570
  H       -2.8175920    -0.5097070     0.0000630
units angstrom
no_reorient  #important for SAPT in psi4, default
symmetry c1  #important for SAPT in psi4, default
}

set PROPERTIES_ORIGIN ["COM"]
properties('MP2/aug-cc-pvtz', properties = ['dipole'])
--------------------------------------------------------------------------

    Molecular point group: c1
  Charge       = 0
  Multiplicity = 1
  Basis Set: AUG-CC-PVTZ
    Blend: AUG-CC-PVTZ
  Basis Set: (AUG-CC-PVTZ AUX)
    Blend: AUG-CC-PVTZ-JKFIT

    Orbital Energies [Eh]
    ---------------------

    Doubly Occupied:

       1A    -20.639901     2A    -20.590462     3A    -20.572157
       4A    -11.441456     5A    -11.284617     6A    -11.221321
       7A     -1.519046     8A     -1.418623     9A     -1.365112
      10A     -1.030209    11A     -0.884071    12A     -0.815391
      13A     -0.739566    14A     -0.732557    15A     -0.696789
      16A     -0.641954    17A     -0.636010    18A     -0.589521
      19A     -0.541900    20A     -0.540081    21A     -0.517458
      22A     -0.515100    23A     -0.479842    24A     -0.461420

  @DF-RHF Final Energy:  -341.83665171653070

   => Energetics <=

    Nuclear Repulsion Energy =            245.7096509421216979
    One-Electron Energy =                -955.3434774105735414
    Two-Electron Energy =                 367.7971747519211476
    Total Energy =                       -341.8366517165306959
  Basis Set: (AUG-CC-PVTZ AUX)
    Blend: AUG-CC-PVTZ-RI
    Molecular point group: c1

    Geometry (in Angstrom), charge = 0, multiplicity = 1:

       Center              X                  Y                   Z               Mass
    ------------   -----------------  -----------------  -----------------  -----------------
         O            0.280782168708    -0.492902824270     0.000036469004    15.994914619570
         O           -1.845151831292    -0.953648824270     0.000097469004    15.994914619570
         O           -1.212280831292     1.239443175730    -0.000125530996    15.994914619570
         C            1.357748168708     0.478905175730    -0.000052530996    12.000000000000
         C            2.644893168708    -0.311960824270     0.000061469004    12.000000000000
         C           -1.033227631292     0.092856875730    -0.000026930996    12.000000000000
         H            1.259186168708     1.112871175730    -0.884895530996     1.007825032230
         H            1.259153168708     1.113075175730     0.884639469004     1.007825032230
         H            3.498321168708     0.371691175730    -0.000001530996     1.007825032230
         H            2.705378168708    -0.945535824270     0.887129469004     1.007825032230
         H            2.705410168708    -0.945741824270    -0.886855530996     1.007825032230
         H           -2.716290831292    -0.512806824270     0.000064469004     1.007825032230

  Basis Set: AUG-CC-PVTZ
    Blend: AUG-CC-PVTZ
  Basis Set: (AUG-CC-PVTZ AUX)
    Blend: AUG-CC-PVTZ-JKFIT
	 Reference Energy          =    -341.8366517165306959 [Eh]
	 Singles Energy            =      -0.0000000000000000 [Eh]
	 Same-Spin Energy          =      -0.3240688713741471 [Eh]
	 Opposite-Spin Energy      =      -1.0075561073295689 [Eh]
	 Correlation Energy        =      -1.3316249787037160 [Eh]
	 Total Energy              =    -343.1682766952343968 [Eh]

	 ================> DF-SCS-MP2 Energies <==================
	-----------------------------------------------------------
	 SCS Same-Spin Scale       =       0.3333333333333333 [-]
	 SCS Opposite-Spin Scale   =       1.2000000000000000 [-]
	 SCS Same-Spin Energy      =      -0.1080229571247157 [Eh]
	 SCS Opposite-Spin Energy  =      -1.2090673287954827 [Eh]
	 SCS Correlation Energy    =      -1.3170902859201985 [Eh]
	 SCS Total Energy          =    -343.1537420024508833 [Eh]
	-----------------------------------------------------------

  Dipole Moment: [D]
     X:    -0.1169      Y:     0.1406      Z:    -0.0000     Total:     0.1829

*** Psi4 exiting successfully. Buy a developer a beer!
