                               Psi4 1.4a3.dev225

  ==> Input File <==

--------------------------------------------------------------------------
#psi4
#
memory 32 gb

molecule  {
0 1
  O        0.1794750    -0.4898220     0.0000470
  O       -1.9464210    -0.9505350     0.0000920
  O       -1.3136110     1.2425340    -0.0001370
  C        1.2192971     0.4484822    -0.0000476
  C        2.5436140    -0.3088020     0.0000540
  C       -1.0432140     0.0552480    -0.0000110
  H        1.1579040     1.1158880    -0.8849190
  H        1.1578830     1.1160920     0.8846680
  H        3.3970060     0.3748880    -0.0000150
  H        2.6041570    -0.9424410     0.8870860
  H        2.6041770    -0.9426460    -0.8868290
  H       -2.8175810    -0.5097500     0.0000430
units angstrom
no_reorient  #important for SAPT in psi4, default
symmetry c1  #important for SAPT in psi4, default
}

set PROPERTIES_ORIGIN ["COM"]
properties('MP2/aug-cc-pvtz', properties = ['dipole'])
--------------------------------------------------------------------------

    Molecular point group: c1
  Charge       = 0
  Multiplicity = 1
  Basis Set: AUG-CC-PVTZ
    Blend: AUG-CC-PVTZ
  Basis Set: (AUG-CC-PVTZ AUX)
    Blend: AUG-CC-PVTZ-JKFIT

    Orbital Energies [Eh]
    ---------------------

    Doubly Occupied:

       1A    -20.627841     2A    -20.623373     3A    -20.557570
       4A    -11.446130     5A    -11.297499     6A    -11.228673
       7A     -1.516147     8A     -1.415202     9A     -1.370121
      10A     -1.045718    11A     -0.903308    12A     -0.816829
      13A     -0.753156    14A     -0.720495    15A     -0.710076
      16A     -0.640179    17A     -0.627143    18A     -0.600488
      19A     -0.556156    20A     -0.549936    21A     -0.512472
      22A     -0.495724    23A     -0.482086    24A     -0.470111

  @DF-RHF Final Energy:  -341.84757293577292

   => Energetics <=

    Nuclear Repulsion Energy =            246.8054521424741949
    One-Electron Energy =                -957.3731908065407197
    Two-Electron Energy =                 368.7201657282935798
    Total Energy =                       -341.8475729357729165
  Basis Set: (AUG-CC-PVTZ AUX)
    Blend: AUG-CC-PVTZ-RI
    Molecular point group: c1

    Geometry (in Angstrom), charge = 0, multiplicity = 1:

       Center              X                  Y                   Z               Mass
    ------------   -----------------  -----------------  -----------------  -----------------
         O            0.273552142236    -0.483031797374     0.000046877200    15.994914619570
         O           -1.852343857764    -0.943744797374     0.000091877200    15.994914619570
         O           -1.219533857764     1.249324202626    -0.000137122800    15.994914619570
         C            1.313374242236     0.455272402626    -0.000047722800    12.000000000000
         C            2.637691142236    -0.302011797374     0.000053877200    12.000000000000
         C           -0.949136857764     0.062038202626    -0.000011122800    12.000000000000
         H            1.251981142236     1.122678202626    -0.884919122800     1.007825032230
         H            1.251960142236     1.122882202626     0.884667877200     1.007825032230
         H            3.491083142236     0.381678202626    -0.000015122800     1.007825032230
         H            2.698234142236    -0.935650797374     0.887085877200     1.007825032230
         H            2.698254142236    -0.935855797374    -0.886829122800     1.007825032230
         H           -2.723503857764    -0.502959797374     0.000042877200     1.007825032230

  Basis Set: AUG-CC-PVTZ
    Blend: AUG-CC-PVTZ
  Basis Set: (AUG-CC-PVTZ AUX)
    Blend: AUG-CC-PVTZ-JKFIT
	 Reference Energy          =    -341.8475729357729165 [Eh]
	 Singles Energy            =      -0.0000000000000000 [Eh]
	 Same-Spin Energy          =      -0.3239625763732573 [Eh]
	 Opposite-Spin Energy      =      -1.0065612237213395 [Eh]
	 Correlation Energy        =      -1.3305238000945967 [Eh]
	 Total Energy              =    -343.1780967358675412 [Eh]

	 ================> DF-SCS-MP2 Energies <==================
	-----------------------------------------------------------
	 SCS Same-Spin Scale       =       0.3333333333333333 [-]
	 SCS Opposite-Spin Scale   =       1.2000000000000000 [-]
	 SCS Same-Spin Energy      =      -0.1079875254577524 [Eh]
	 SCS Opposite-Spin Energy  =      -1.2078734684656074 [Eh]
	 SCS Correlation Energy    =      -1.3158609939233599 [Eh]
	 SCS Total Energy          =    -343.1634339296962821 [Eh]
	-----------------------------------------------------------

  Dipole Moment: [D]
     X:     0.7303      Y:    -0.2271      Z:     0.0000     Total:     0.7648

*** Psi4 exiting successfully. Buy a developer a beer!
