                               Psi4 1.4a3.dev225

  ==> Input File <==

--------------------------------------------------------------------------
#psi4
#
memory 32 gb

molecule  {
0 1
  O        0.1794750    -0.4898220     0.0000470
  O       -1.9464210    -0.9505350     0.0000920
  O       -1.3136110     1.2425340    -0.0001370
  C        1.2564180     0.4819790    -0.0000510
  C        2.5436140    -0.3088020     0.0000540
  C       -1.0098066     0.0924494    -0.0000148
  H        1.1579040     1.1158880    -0.8849190
  H        1.1578830     1.1160920     0.8846680
  H        3.3970060     0.3748880    -0.0000150
  H        2.6041570    -0.9424410     0.8870860
  H        2.6041770    -0.9426460    -0.8868290
  H       -2.8175810    -0.5097500     0.0000430
units angstrom
no_reorient  #important for SAPT in psi4, default
symmetry c1  #important for SAPT in psi4, default
}

set PROPERTIES_ORIGIN ["COM"]
properties('MP2/aug-cc-pvtz', properties = ['dipole'])
--------------------------------------------------------------------------

    Molecular point group: c1
  Charge       = 0
  Multiplicity = 1
  Basis Set: AUG-CC-PVTZ
    Blend: AUG-CC-PVTZ
  Basis Set: (AUG-CC-PVTZ AUX)
    Blend: AUG-CC-PVTZ-JKFIT

    Orbital Energies [Eh]
    ---------------------

    Doubly Occupied:

       1A    -20.622883     2A    -20.609336     3A    -20.561400
       4A    -11.440006     5A    -11.302012     6A    -11.232450
       7A     -1.508390     8A     -1.401279     9A     -1.371944
      10A     -1.052555    11A     -0.894586    12A     -0.816482
      13A     -0.740237    14A     -0.716172    15A     -0.708787
      16A     -0.633186    17A     -0.626434    18A     -0.595530
      19A     -0.554950    20A     -0.545138    21A     -0.529344
      22A     -0.500623    23A     -0.482661    24A     -0.481926

  @DF-RHF Final Energy:  -341.84659315677163

   => Energetics <=

    Nuclear Repulsion Energy =            246.3010923224296391
    One-Electron Energy =                -956.4387516035162662
    Two-Electron Energy =                 368.2910661243149661
    Total Energy =                       -341.8465931567716325
  Basis Set: (AUG-CC-PVTZ AUX)
    Blend: AUG-CC-PVTZ-RI
    Molecular point group: c1

    Geometry (in Angstrom), charge = 0, multiplicity = 1:

       Center              X                  Y                   Z               Mass
    ------------   -----------------  -----------------  -----------------  -----------------
         O            0.264151679333    -0.492454905635     0.000047836862    15.994914619570
         O           -1.861744320667    -0.953167905635     0.000092836862    15.994914619570
         O           -1.228934320667     1.239901094365    -0.000136163138    15.994914619570
         C            1.341094679333     0.479346094365    -0.000050163138    12.000000000000
         C            2.628290679333    -0.311434905635     0.000054836862    12.000000000000
         C           -0.925129920667     0.089816494365    -0.000013963138    12.000000000000
         H            1.242580679333     1.113255094365    -0.884918163138     1.007825032230
         H            1.242559679333     1.113459094365     0.884668836862     1.007825032230
         H            3.481682679333     0.372255094365    -0.000014163138     1.007825032230
         H            2.688833679333    -0.945073905635     0.887086836862     1.007825032230
         H            2.688853679333    -0.945278905635    -0.886828163138     1.007825032230
         H           -2.732904320667    -0.512382905635     0.000043836862     1.007825032230

  Basis Set: AUG-CC-PVTZ
    Blend: AUG-CC-PVTZ
  Basis Set: (AUG-CC-PVTZ AUX)
    Blend: AUG-CC-PVTZ-JKFIT
	 Reference Energy          =    -341.8465931567716325 [Eh]
	 Singles Energy            =      -0.0000000000000000 [Eh]
	 Same-Spin Energy          =      -0.3238133200946830 [Eh]
	 Opposite-Spin Energy      =      -1.0070645107074156 [Eh]
	 Correlation Energy        =      -1.3308778308020988 [Eh]
	 Total Energy              =    -343.1774709875737130 [Eh]

	 ================> DF-SCS-MP2 Energies <==================
	-----------------------------------------------------------
	 SCS Same-Spin Scale       =       0.3333333333333333 [-]
	 SCS Opposite-Spin Scale   =       1.2000000000000000 [-]
	 SCS Same-Spin Energy      =      -0.1079377733648943 [Eh]
	 SCS Opposite-Spin Energy  =      -1.2084774128488986 [Eh]
	 SCS Correlation Energy    =      -1.3164151862137929 [Eh]
	 SCS Total Energy          =    -343.1630083429854494 [Eh]
	-----------------------------------------------------------

  Dipole Moment: [D]
     X:     1.3063      Y:     0.1982      Z:    -0.0000     Total:     1.3212

*** Psi4 exiting successfully. Buy a developer a beer!
