                               Psi4 1.4a3.dev225

  ==> Input File <==

--------------------------------------------------------------------------
#psi4
#
memory 32 gb

molecule  {
0 1
  O        0.1794750    -0.4898220     0.0000470
  O       -1.9464210    -0.9505350     0.0000920
  O       -1.3136110     1.2425340    -0.0001370
  C        1.2564180     0.4819790    -0.0000510
  C        2.5436140    -0.3088020     0.0000540
  C       -1.0387728     0.0357473    -0.0000089
  H        1.1579040     1.1158880    -0.8849190
  H        1.1578830     1.1160920     0.8846680
  H        3.3970060     0.3748880    -0.0000150
  H        2.6041570    -0.9424410     0.8870860
  H        2.6041770    -0.9426460    -0.8868290
  H       -2.8175810    -0.5097500     0.0000430
units angstrom
no_reorient  #important for SAPT in psi4, default
symmetry c1  #important for SAPT in psi4, default
}

set PROPERTIES_ORIGIN ["COM"]
properties('MP2/aug-cc-pvtz', properties = ['dipole'])
--------------------------------------------------------------------------

    Molecular point group: c1
  Charge       = 0
  Multiplicity = 1
  Basis Set: AUG-CC-PVTZ
    Blend: AUG-CC-PVTZ
  Basis Set: (AUG-CC-PVTZ AUX)
    Blend: AUG-CC-PVTZ-JKFIT

    Orbital Energies [Eh]
    ---------------------

    Doubly Occupied:

       1A    -20.627451     2A    -20.619812     3A    -20.548382
       4A    -11.442944     5A    -11.300057     6A    -11.231038
       7A     -1.510568     8A     -1.409724     9A     -1.352603
      10A     -1.051956    11A     -0.900814    12A     -0.821459
      13A     -0.749525    14A     -0.715175    15A     -0.706496
      16A     -0.634552    17A     -0.631054    18A     -0.590267
      19A     -0.554648    20A     -0.549508    21A     -0.524524
      22A     -0.494415    23A     -0.473724    24A     -0.471322

  @DF-RHF Final Energy:  -341.84827704930314

   => Energetics <=

    Nuclear Repulsion Energy =            246.0762449814754120
    One-Electron Energy =                -956.0250111767979888
    Two-Electron Energy =                 368.1004891460194699
    Total Energy =                       -341.8482770493031353
  Basis Set: (AUG-CC-PVTZ AUX)
    Blend: AUG-CC-PVTZ-RI
    Molecular point group: c1

    Geometry (in Angstrom), charge = 0, multiplicity = 1:

       Center              X                  Y                   Z               Mass
    ------------   -----------------  -----------------  -----------------  -----------------
         O            0.268012479729    -0.484897287097     0.000047050472    15.994914619570
         O           -1.857883520271    -0.945610287097     0.000092050472    15.994914619570
         O           -1.225073520271     1.247458712903    -0.000136949528    15.994914619570
         C            1.344955479729     0.486903712903    -0.000050949528    12.000000000000
         C            2.632151479729    -0.303877287097     0.000054050472    12.000000000000
         C           -0.950235320271     0.040672012903    -0.000008849528    12.000000000000
         H            1.246441479729     1.120812712903    -0.884918949528     1.007825032230
         H            1.246420479729     1.121016712903     0.884668050472     1.007825032230
         H            3.485543479729     0.379812712903    -0.000014949528     1.007825032230
         H            2.692694479729    -0.937516287097     0.887086050472     1.007825032230
         H            2.692714479729    -0.937721287097    -0.886828949528     1.007825032230
         H           -2.729043520271    -0.504825287097     0.000043050472     1.007825032230

  Basis Set: AUG-CC-PVTZ
    Blend: AUG-CC-PVTZ
  Basis Set: (AUG-CC-PVTZ AUX)
    Blend: AUG-CC-PVTZ-JKFIT
	 Reference Energy          =    -341.8482770493031353 [Eh]
	 Singles Energy            =      -0.0000000000000000 [Eh]
	 Same-Spin Energy          =      -0.3240120567423017 [Eh]
	 Opposite-Spin Energy      =      -1.0068456359443823 [Eh]
	 Correlation Energy        =      -1.3308576926866840 [Eh]
	 Total Energy              =    -343.1791347419897988 [Eh]

	 ================> DF-SCS-MP2 Energies <==================
	-----------------------------------------------------------
	 SCS Same-Spin Scale       =       0.3333333333333333 [-]
	 SCS Opposite-Spin Scale   =       1.2000000000000000 [-]
	 SCS Same-Spin Energy      =      -0.1080040189141006 [Eh]
	 SCS Opposite-Spin Energy  =      -1.2082147631332587 [Eh]
	 SCS Correlation Energy    =      -1.3162187820473592 [Eh]
	 SCS Total Energy          =    -343.1644958313505072 [Eh]
	-----------------------------------------------------------

  Dipole Moment: [D]
     X:     1.0128      Y:    -0.3201      Z:     0.0000     Total:     1.0622

*** Psi4 exiting successfully. Buy a developer a beer!
