                               Psi4 1.3.2 release

  ==> Input File <==

--------------------------------------------------------------------------
#psi4
#
memory 32 gb

molecule  {
0 1
  O        0.1794810    -0.4898030     0.0000350
  O       -1.9464530    -0.9505490     0.0000960
  O       -1.3135820     1.2425430    -0.0001270
  C        1.2564470     0.4820050    -0.0000540
  C        2.5435920    -0.3088610     0.0000600
  C       -1.0788448     0.0861516    -0.0000267
  H        1.1578850     1.1159710    -0.8848970
  H        1.1578520     1.1161750     0.8846380
  H        3.3970200     0.3747910    -0.0000030
  H        2.6040770    -0.9424360     0.8871280
  H        2.6041090    -0.9426420    -0.8868570
  H       -2.8175920    -0.5097070     0.0000630
units angstrom
no_reorient  #important for SAPT in psi4, default
symmetry c1  #important for SAPT in psi4, default
}

set PROPERTIES_ORIGIN ["COM"]
properties('MP2/aug-cc-pvtz', properties = ['dipole'])
--------------------------------------------------------------------------

    Molecular point group: c1
  Charge       = 0
  Multiplicity = 1
  Basis Set: AUG-CC-PVTZ
    Blend: AUG-CC-PVTZ
  Basis Set: (AUG-CC-PVTZ AUX)
    Blend: AUG-CC-PVTZ-JKFIT

    Orbital Energies [Eh]
    ---------------------

    Doubly Occupied:

       1A    -20.627815     2A    -20.605773     3A    -20.565011
       4A    -11.440620     5A    -11.292559     6A    -11.226411
       7A     -1.508728     8A     -1.397734     9A     -1.383188
      10A     -1.040449    11A     -0.888691    12A     -0.815771
      13A     -0.737787    14A     -0.726108    15A     -0.699249
      16A     -0.638023    17A     -0.632379    18A     -0.593586
      19A     -0.547924    20A     -0.543154    21A     -0.520574
      22A     -0.507121    23A     -0.484536    24A     -0.471463

  @DF-RHF Final Energy:  -341.84633071626132

   => Energetics <=

    Nuclear Repulsion Energy =            245.9397797162847326
    One-Electron Energy =                -955.7829094008199036
    Two-Electron Energy =                 367.9967989682738221
    Total Energy =                       -341.8463307162613205
  Basis Set: (AUG-CC-PVTZ AUX)
    Blend: AUG-CC-PVTZ-RI
    Molecular point group: c1

    Geometry (in Angstrom), charge = 0, multiplicity = 1:

       Center              X                  Y                   Z               Mass
    ------------   -----------------  -----------------  -----------------  -----------------
         O            0.273360249049    -0.491595937831     0.000036242417    15.994914619570
         O           -1.852573750951    -0.952341937831     0.000097242417    15.994914619570
         O           -1.219702750951     1.240750062169    -0.000125757583    15.994914619570
         C            1.350326249049     0.480212062169    -0.000052757583    12.000000000000
         C            2.637471249049    -0.310653937831     0.000061242417    12.000000000000
         C           -0.984965550951     0.084358662169    -0.000025457583    12.000000000000
         H            1.251764249049     1.114178062169    -0.884895757583     1.007825032230
         H            1.251731249049     1.114382062169     0.884639242417     1.007825032230
         H            3.490899249049     0.372998062169    -0.000001757583     1.007825032230
         H            2.697956249049    -0.944228937831     0.887129242417     1.007825032230
         H            2.697988249049    -0.944434937831    -0.886855757583     1.007825032230
         H           -2.723712750951    -0.511499937831     0.000064242417     1.007825032230

  Basis Set: AUG-CC-PVTZ
    Blend: AUG-CC-PVTZ
  Basis Set: (AUG-CC-PVTZ AUX)
    Blend: AUG-CC-PVTZ-JKFIT
	 Reference Energy          =    -341.8463307162613205 [Eh]
	 Singles Energy            =      -0.0000000000000000 [Eh]
	 Same-Spin Energy          =      -0.3238241300285393 [Eh]
	 Opposite-Spin Energy      =      -1.0069833203981156 [Eh]
	 Correlation Energy        =      -1.3308074504266547 [Eh]
	 Total Energy              =    -343.1771381666879961 [Eh]

	 ================> DF-SCS-MP2 Energies <==================
	-----------------------------------------------------------
	 SCS Same-Spin Scale       =       0.3333333333333333 [-]
	 SCS Opposite-Spin Scale   =       1.2000000000000000 [-]
	 SCS Same-Spin Energy      =      -0.1079413766761798 [Eh]
	 SCS Opposite-Spin Energy  =      -1.2083799844777385 [Eh]
	 SCS Correlation Energy    =      -1.3163213611539182 [Eh]
	 SCS Total Energy          =    -343.1626520774152596 [Eh]
	-----------------------------------------------------------

  Dipole Moment: [D]
     X:     0.5214      Y:     0.0916      Z:    -0.0000     Total:     0.5294

*** Psi4 exiting successfully. Buy a developer a beer!
