                               Psi4 1.4a3.dev225

  ==> Input File <==

--------------------------------------------------------------------------
#psi4
#
memory 32 gb

molecule  {
0 1
  O        0.1794750    -0.4898220     0.0000470
  O       -1.9464210    -0.9505350     0.0000920
  O       -1.3136110     1.2425340    -0.0001370
  C        1.2564180     0.4819790    -0.0000510
  C        2.5436140    -0.3088020     0.0000540
  C       -1.0476552     0.0747487    -0.0000131
  H        1.1579040     1.1158880    -0.8849190
  H        1.1578830     1.1160920     0.8846680
  H        3.3970060     0.3748880    -0.0000150
  H        2.6041570    -0.9424410     0.8870860
  H        2.6041770    -0.9426460    -0.8868290
  H       -2.8175810    -0.5097500     0.0000430
units angstrom
no_reorient  #important for SAPT in psi4, default
symmetry c1  #important for SAPT in psi4, default
}

set PROPERTIES_ORIGIN ["COM"]
properties('MP2/aug-cc-pvtz', properties = ['dipole'])
--------------------------------------------------------------------------

    Molecular point group: c1
  Charge       = 0
  Multiplicity = 1
  Basis Set: AUG-CC-PVTZ
    Blend: AUG-CC-PVTZ
  Basis Set: (AUG-CC-PVTZ AUX)
    Blend: AUG-CC-PVTZ-JKFIT

    Orbital Energies [Eh]
    ---------------------

    Doubly Occupied:

       1A    -20.622254     2A    -20.614632     3A    -20.559546
       4A    -11.440993     5A    -11.297314     6A    -11.229417
       7A     -1.506452     8A     -1.397568     9A     -1.378102
      10A     -1.046996    11A     -0.893294    12A     -0.817000
      13A     -0.741369    14A     -0.719520    15A     -0.703211
      16A     -0.635583    17A     -0.629778    18A     -0.594352
      19A     -0.551771    20A     -0.545599    21A     -0.523854
      22A     -0.501000    23A     -0.482498    24A     -0.475960

  @DF-RHF Final Energy:  -341.84892521649044

   => Energetics <=

    Nuclear Repulsion Energy =            246.0725702470021190
    One-Electron Energy =                -956.0268629052245615
    Two-Electron Energy =                 368.1053674417320281
    Total Energy =                       -341.8489252164904428
  Basis Set: (AUG-CC-PVTZ AUX)
    Blend: AUG-CC-PVTZ-RI
    Molecular point group: c1

    Geometry (in Angstrom), charge = 0, multiplicity = 1:

       Center              X                  Y                   Z               Mass
    ------------   -----------------  -----------------  -----------------  -----------------
         O            0.269196382810    -0.490095643131     0.000047610275    15.994914619570
         O           -1.856699617190    -0.950808643131     0.000092610275    15.994914619570
         O           -1.223889617190     1.242260356869    -0.000136389725    15.994914619570
         C            1.346139382810     0.481705356869    -0.000050389725    12.000000000000
         C            2.633335382810    -0.309075643131     0.000054610275    12.000000000000
         C           -0.957933817190     0.074475056869    -0.000012489725    12.000000000000
         H            1.247625382810     1.115614356869    -0.884918389725     1.007825032230
         H            1.247604382810     1.115818356869     0.884668610275     1.007825032230
         H            3.486727382810     0.374614356869    -0.000014389725     1.007825032230
         H            2.693878382810    -0.942714643131     0.887086610275     1.007825032230
         H            2.693898382810    -0.942919643131    -0.886828389725     1.007825032230
         H           -2.727859617190    -0.510023643131     0.000043610275     1.007825032230

  Basis Set: AUG-CC-PVTZ
    Blend: AUG-CC-PVTZ
  Basis Set: (AUG-CC-PVTZ AUX)
    Blend: AUG-CC-PVTZ-JKFIT
	 Reference Energy          =    -341.8489252164904428 [Eh]
	 Singles Energy            =      -0.0000000000000000 [Eh]
	 Same-Spin Energy          =      -0.3238329093179694 [Eh]
	 Opposite-Spin Energy      =      -1.0068898073755594 [Eh]
	 Correlation Energy        =      -1.3307227166935287 [Eh]
	 Total Energy              =    -343.1796479331839578 [Eh]

	 ================> DF-SCS-MP2 Energies <==================
	-----------------------------------------------------------
	 SCS Same-Spin Scale       =       0.3333333333333333 [-]
	 SCS Opposite-Spin Scale   =       1.2000000000000000 [-]
	 SCS Same-Spin Energy      =      -0.1079443031059898 [Eh]
	 SCS Opposite-Spin Energy  =      -1.2082677688506713 [Eh]
	 SCS Correlation Energy    =      -1.3162120719566610 [Eh]
	 SCS Total Energy          =    -343.1651372884471130 [Eh]
	-----------------------------------------------------------

  Dipole Moment: [D]
     X:     0.8843      Y:     0.0136      Z:     0.0000     Total:     0.8844

*** Psi4 exiting successfully. Buy a developer a beer!
