                               Psi4 1.3.2 release

  ==> Input File <==

--------------------------------------------------------------------------
#psi4
#
memory 32 gb

molecule  {
0 1
  O        0.1794810    -0.4898030     0.0000350
  O       -1.9464530    -0.9505490     0.0000960
  O       -1.3135820     1.2425430    -0.0001270
  C        1.2564470     0.4820050    -0.0000540
  C        2.5435920    -0.3088610     0.0000600
  C       -1.0431930     0.0552410    -0.0000240
  H        1.1578850     1.1159710    -0.8848970
  H        1.1578520     1.1161750     0.8846380
  H        3.3970200     0.3747910    -0.0000030
  H        2.6040770    -0.9424360     0.8871280
  H        2.6041090    -0.9426420    -0.8868570
  H       -2.9960433    -0.4194013     0.0000562
units angstrom
no_reorient  #important for SAPT in psi4, default
symmetry c1  #important for SAPT in psi4, default
}

set PROPERTIES_ORIGIN ["COM"]
properties('MP2/aug-cc-pvtz', properties = ['dipole'])
--------------------------------------------------------------------------

    Molecular point group: c1
  Charge       = 0
  Multiplicity = 1
  Basis Set: AUG-CC-PVTZ
    Blend: AUG-CC-PVTZ
  Basis Set: (AUG-CC-PVTZ AUX)
    Blend: AUG-CC-PVTZ-JKFIT

    Orbital Energies [Eh]
    ---------------------

    Doubly Occupied:

       1A    -20.632896     2A    -20.615377     3A    -20.549782
       4A    -11.437734     5A    -11.297343     6A    -11.229181
       7A     -1.497077     8A     -1.384450     9A     -1.354467
      10A     -1.046281    11A     -0.884874    12A     -0.806063
      13A     -0.730613    14A     -0.701919    15A     -0.701766
      16A     -0.625836    17A     -0.611475    18A     -0.589485
      19A     -0.549688    20A     -0.543860    21A     -0.522603
      22A     -0.491978    23A     -0.473553    24A     -0.472562

  @DF-RHF Final Energy:  -341.81427536257337

   => Energetics <=

    Nuclear Repulsion Energy =            245.0218761898614730
    One-Electron Energy =                -954.1705810324257300
    Two-Electron Energy =                 367.3344294799908880
    Total Energy =                       -341.8142753625733690
  Basis Set: (AUG-CC-PVTZ AUX)
    Blend: AUG-CC-PVTZ-RI
    Molecular point group: c1

    Geometry (in Angstrom), charge = 0, multiplicity = 1:

       Center              X                  Y                   Z               Mass
    ------------   -----------------  -----------------  -----------------  -----------------
         O            0.270605953293    -0.488486867654     0.000035958664    15.994914619570
         O           -1.855328046707    -0.949232867654     0.000096958664    15.994914619570
         O           -1.222457046707     1.243859132346    -0.000126041336    15.994914619570
         C            1.347571953293     0.483321132346    -0.000053041336    12.000000000000
         C            2.634716953293    -0.307544867654     0.000060958664    12.000000000000
         C           -0.952068046707     0.056557132346    -0.000023041336    12.000000000000
         H            1.249009953293     1.117287132346    -0.884896041336     1.007825032230
         H            1.248976953293     1.117491132346     0.884638958664     1.007825032230
         H            3.488144953293     0.376107132346    -0.000002041336     1.007825032230
         H            2.695201953293    -0.941119867654     0.887128958664     1.007825032230
         H            2.695233953293    -0.941325867654    -0.886856041336     1.007825032230
         H           -2.904918346707    -0.418085167654     0.000057158664     1.007825032230

  Basis Set: AUG-CC-PVTZ
    Blend: AUG-CC-PVTZ
  Basis Set: (AUG-CC-PVTZ AUX)
    Blend: AUG-CC-PVTZ-JKFIT
	 Reference Energy          =    -341.8142753625733690 [Eh]
	 Singles Energy            =      -0.0000000000000000 [Eh]
	 Same-Spin Energy          =      -0.3261425655300514 [Eh]
	 Opposite-Spin Energy      =      -1.0130301187772270 [Eh]
	 Correlation Energy        =      -1.3391726843072784 [Eh]
	 Total Energy              =    -343.1534480468806692 [Eh]

	 ================> DF-SCS-MP2 Energies <==================
	-----------------------------------------------------------
	 SCS Same-Spin Scale       =       0.3333333333333333 [-]
	 SCS Opposite-Spin Scale   =       1.2000000000000000 [-]
	 SCS Same-Spin Energy      =      -0.1087141885100171 [Eh]
	 SCS Opposite-Spin Energy  =      -1.2156361425326725 [Eh]
	 SCS Correlation Energy    =      -1.3243503310426896 [Eh]
	 SCS Total Energy          =    -343.1386256936160635 [Eh]
	-----------------------------------------------------------

  Dipole Moment: [D]
     X:     0.6669      Y:    -0.0988      Z:     0.0000     Total:     0.6741

*** Psi4 exiting successfully. Buy a developer a beer!
