                               Psi4 1.3.2 release

  ==> Input File <==

--------------------------------------------------------------------------
#psi4
#
memory 32 gb

molecule  {
0 1
  O        0.1794810    -0.4898030     0.0000350
  O       -1.9464530    -0.9505490     0.0000960
  O       -1.3135820     1.2425430    -0.0001270
  C        1.3216135     0.4045124    -0.0000462
  C        2.5435920    -0.3088610     0.0000600
  C       -1.0431930     0.0552410    -0.0000240
  H        1.1578850     1.1159710    -0.8848970
  H        1.1578520     1.1161750     0.8846380
  H        3.3970200     0.3747910    -0.0000030
  H        2.6040770    -0.9424360     0.8871280
  H        2.6041090    -0.9426420    -0.8868570
  H       -2.8175920    -0.5097070     0.0000630
units angstrom
no_reorient  #important for SAPT in psi4, default
symmetry c1  #important for SAPT in psi4, default
}

set PROPERTIES_ORIGIN ["COM"]
properties('MP2/aug-cc-pvtz', properties = ['dipole'])
--------------------------------------------------------------------------

    Molecular point group: c1
  Charge       = 0
  Multiplicity = 1
  Basis Set: AUG-CC-PVTZ
    Blend: AUG-CC-PVTZ
  Basis Set: (AUG-CC-PVTZ AUX)
    Blend: AUG-CC-PVTZ-JKFIT

    Orbital Energies [Eh]
    ---------------------

    Doubly Occupied:

       1A    -20.624739     2A    -20.613983     3A    -20.553048
       4A    -11.442705     5A    -11.304436     6A    -11.228553
       7A     -1.505840     8A     -1.401912     9A     -1.364821
      10A     -1.072206    11A     -0.899975    12A     -0.807629
      13A     -0.746838    14A     -0.715504    15A     -0.700079
      16A     -0.635089    17A     -0.629969    18A     -0.602168
      19A     -0.572199    20A     -0.547817    21A     -0.524559
      22A     -0.489860    23A     -0.477104    24A     -0.457044

  @DF-RHF Final Energy:  -341.83642667645870

   => Energetics <=

    Nuclear Repulsion Energy =            246.2912648754511622
    One-Electron Energy =                -956.4192306820002614
    Two-Electron Energy =                 368.2915391300904275
    Total Energy =                       -341.8364266764587001
  Basis Set: (AUG-CC-PVTZ AUX)
    Blend: AUG-CC-PVTZ-RI
    Molecular point group: c1

    Geometry (in Angstrom), charge = 0, multiplicity = 1:

       Center              X                  Y                   Z               Mass
    ------------   -----------------  -----------------  -----------------  -----------------
         O            0.259922541220    -0.477147266019     0.000034842910    15.994914619570
         O           -1.866011458780    -0.937893266019     0.000095842910    15.994914619570
         O           -1.233140458780     1.255198733981    -0.000127157090    15.994914619570
         C            1.402055041220     0.417168133981    -0.000046357090    12.000000000000
         C            2.624033541220    -0.296205266019     0.000059842910    12.000000000000
         C           -0.962751458780     0.067896733981    -0.000024157090    12.000000000000
         H            1.238326541220     1.128626733981    -0.884897157090     1.007825032230
         H            1.238293541220     1.128830733981     0.884637842910     1.007825032230
         H            3.477461541220     0.387446733981    -0.000003157090     1.007825032230
         H            2.684518541220    -0.929780266019     0.887127842910     1.007825032230
         H            2.684550541220    -0.929986266019    -0.886857157090     1.007825032230
         H           -2.737150458780    -0.497051266019     0.000062842910     1.007825032230

  Basis Set: AUG-CC-PVTZ
    Blend: AUG-CC-PVTZ
  Basis Set: (AUG-CC-PVTZ AUX)
    Blend: AUG-CC-PVTZ-JKFIT
	 Reference Energy          =    -341.8364266764587001 [Eh]
	 Singles Energy            =      -0.0000000000000000 [Eh]
	 Same-Spin Energy          =      -0.3248108563640857 [Eh]
	 Opposite-Spin Energy      =      -1.0076829525429323 [Eh]
	 Correlation Energy        =      -1.3324938089070180 [Eh]
	 Total Energy              =    -343.1689204853657316 [Eh]

	 ================> DF-SCS-MP2 Energies <==================
	-----------------------------------------------------------
	 SCS Same-Spin Scale       =       0.3333333333333333 [-]
	 SCS Opposite-Spin Scale   =       1.2000000000000000 [-]
	 SCS Same-Spin Energy      =      -0.1082702854546952 [Eh]
	 SCS Opposite-Spin Energy  =      -1.2092195430515187 [Eh]
	 SCS Correlation Energy    =      -1.3174898285062140 [Eh]
	 SCS Total Energy          =    -343.1539165049649114 [Eh]
	-----------------------------------------------------------

  Dipole Moment: [D]
     X:     1.1296      Y:    -0.2632      Z:     0.0000     Total:     1.1599

*** Psi4 exiting successfully. Buy a developer a beer!
