                               Psi4 1.3.2 release

  ==> Input File <==

--------------------------------------------------------------------------
#psi4
#
memory 32 gb

molecule  {
0 1
  O        0.2145230    -0.4031859     0.0000248
  O       -1.9464530    -0.9505490     0.0000960
  O       -1.3135820     1.2425430    -0.0001270
  C        1.2564470     0.4820050    -0.0000540
  C        2.5435920    -0.3088610     0.0000600
  C       -1.0431930     0.0552410    -0.0000240
  H        1.1578850     1.1159710    -0.8848970
  H        1.1578520     1.1161750     0.8846380
  H        3.3970200     0.3747910    -0.0000030
  H        2.6040770    -0.9424360     0.8871280
  H        2.6041090    -0.9426420    -0.8868570
  H       -2.8175920    -0.5097070     0.0000630
units angstrom
no_reorient  #important for SAPT in psi4, default
symmetry c1  #important for SAPT in psi4, default
}

set PROPERTIES_ORIGIN ["COM"]
properties('MP2/aug-cc-pvtz', properties = ['dipole'])
--------------------------------------------------------------------------

    Molecular point group: c1
  Charge       = 0
  Multiplicity = 1
  Basis Set: AUG-CC-PVTZ
    Blend: AUG-CC-PVTZ
  Basis Set: (AUG-CC-PVTZ AUX)
    Blend: AUG-CC-PVTZ-JKFIT

    Orbital Energies [Eh]
    ---------------------

    Doubly Occupied:

       1A    -20.633041     2A    -20.614930     3A    -20.552907
       4A    -11.446817     5A    -11.290020     6A    -11.227287
       7A     -1.516376     8A     -1.422703     9A     -1.366431
      10A     -1.051852    11A     -0.910293    12A     -0.814859
      13A     -0.761128    14A     -0.718758    15A     -0.715401
      16A     -0.642946    17A     -0.631943    18A     -0.601127
      19A     -0.554892    20A     -0.551808    21A     -0.512723
      22A     -0.496756    23A     -0.476949    24A     -0.464540

  @DF-RHF Final Energy:  -341.84636263043222

   => Energetics <=

    Nuclear Repulsion Energy =            247.4091081840130357
    One-Electron Energy =                -958.5579696600982516
    Two-Electron Energy =                 369.3024988456530195
    Total Energy =                       -341.8463626304322247
  Basis Set: (AUG-CC-PVTZ AUX)
    Blend: AUG-CC-PVTZ-RI
    Molecular point group: c1

    Geometry (in Angstrom), charge = 0, multiplicity = 1:

       Center              X                  Y                   Z               Mass
    ------------   -----------------  -----------------  -----------------  -----------------
         O            0.297424832613    -0.416247157613     0.000027494663    15.994914619570
         O           -1.863551167387    -0.963610257613     0.000098694663    15.994914619570
         O           -1.230680167387     1.229481742387    -0.000124305337    15.994914619570
         C            1.339348832613     0.468943742387    -0.000051305337    12.000000000000
         C            2.626493832613    -0.321922257613     0.000062694663    12.000000000000
         C           -0.960291167387     0.042179742387    -0.000021305337    12.000000000000
         H            1.240786832613     1.102909742387    -0.884894305337     1.007825032230
         H            1.240753832613     1.103113742387     0.884640694663     1.007825032230
         H            3.479921832613     0.361729742387    -0.000000305337     1.007825032230
         H            2.686978832613    -0.955497257613     0.887130694663     1.007825032230
         H            2.687010832613    -0.955703257613    -0.886854305337     1.007825032230
         H           -2.734690167387    -0.522768257613     0.000065694663     1.007825032230

  Basis Set: AUG-CC-PVTZ
    Blend: AUG-CC-PVTZ
  Basis Set: (AUG-CC-PVTZ AUX)
    Blend: AUG-CC-PVTZ-JKFIT
	 Reference Energy          =    -341.8463626304322247 [Eh]
	 Singles Energy            =      -0.0000000000000000 [Eh]
	 Same-Spin Energy          =      -0.3235055516075451 [Eh]
	 Opposite-Spin Energy      =      -1.0048146800644489 [Eh]
	 Correlation Energy        =      -1.3283202316719940 [Eh]
	 Total Energy              =    -343.1746828621041914 [Eh]

	 ================> DF-SCS-MP2 Energies <==================
	-----------------------------------------------------------
	 SCS Same-Spin Scale       =       0.3333333333333333 [-]
	 SCS Opposite-Spin Scale   =       1.2000000000000000 [-]
	 SCS Same-Spin Energy      =      -0.1078351838691817 [Eh]
	 SCS Opposite-Spin Energy  =      -1.2057776160773386 [Eh]
	 SCS Correlation Energy    =      -1.3136127999465204 [Eh]
	 SCS Total Energy          =    -343.1599754303787222 [Eh]
	-----------------------------------------------------------

  Dipole Moment: [D]
     X:     0.6740      Y:    -0.3945      Z:     0.0000     Total:     0.7809

*** Psi4 exiting successfully. Buy a developer a beer!
