                               Psi4 1.3.2 release

  ==> Input File <==

--------------------------------------------------------------------------
#psi4
#
memory 32 gb

molecule  {
0 1
  O        0.1794810    -0.4898030     0.0000350
  O       -1.9464530    -0.9505490     0.0000960
  O       -1.3135820     1.2425430    -0.0001270
  C        1.2564470     0.4820050    -0.0000540
  C        2.5435920    -0.3088610     0.0000600
  C       -1.0431930     0.0552410    -0.0000240
  H        1.1578850     1.1159710    -0.8848970
  H        1.1578520     1.1161750     0.8846380
  H        3.3970200     0.3747910    -0.0000030
  H        2.6040770    -0.9424360     0.8871280
  H        2.6041090    -0.9426420    -0.8868570
  H       -2.9068177    -0.4645541     0.0000596
units angstrom
no_reorient  #important for SAPT in psi4, default
symmetry c1  #important for SAPT in psi4, default
}

set PROPERTIES_ORIGIN ["COM"]
properties('MP2/aug-cc-pvtz', properties = ['dipole'])
--------------------------------------------------------------------------

    Molecular point group: c1
  Charge       = 0
  Multiplicity = 1
  Basis Set: AUG-CC-PVTZ
    Blend: AUG-CC-PVTZ
  Basis Set: (AUG-CC-PVTZ AUX)
    Blend: AUG-CC-PVTZ-JKFIT

    Orbital Energies [Eh]
    ---------------------

    Doubly Occupied:

       1A    -20.629824     2A    -20.616283     3A    -20.551830
       4A    -11.439854     5A    -11.298004     6A    -11.229698
       7A     -1.501437     8A     -1.392048     9A     -1.360555
      10A     -1.047714    11A     -0.889768    12A     -0.811759
      13A     -0.737018    14A     -0.709723    15A     -0.703171
      16A     -0.627918    17A     -0.624228    18A     -0.591179
      19A     -0.551675    20A     -0.545611    21A     -0.523390
      22A     -0.494337    23A     -0.476032    24A     -0.473605

  @DF-RHF Final Energy:  -341.83623281839499

   => Energetics <=

    Nuclear Repulsion Energy =            245.5092245866734117
    One-Electron Energy =                -955.0375924219304125
    Two-Electron Energy =                 367.6921350168619824
    Total Energy =                       -341.8362328183949899
  Basis Set: (AUG-CC-PVTZ AUX)
    Blend: AUG-CC-PVTZ-RI
    Molecular point group: c1

    Geometry (in Angstrom), charge = 0, multiplicity = 1:

       Center              X                  Y                   Z               Mass
    ------------   -----------------  -----------------  -----------------  -----------------
         O            0.269607151770    -0.487981422070     0.000035920604    15.994914619570
         O           -1.856326848230    -0.948727422070     0.000096920604    15.994914619570
         O           -1.223455848230     1.244364577930    -0.000126079396    15.994914619570
         C            1.346573151770     0.483826577930    -0.000053079396    12.000000000000
         C            2.633718151770    -0.307039422070     0.000060920604    12.000000000000
         C           -0.953066848230     0.057062577930    -0.000023079396    12.000000000000
         H            1.248011151770     1.117792577930    -0.884896079396     1.007825032230
         H            1.247978151770     1.117996577930     0.884638920604     1.007825032230
         H            3.487146151770     0.376612577930    -0.000002079396     1.007825032230
         H            2.694203151770    -0.940614422070     0.887128920604     1.007825032230
         H            2.694235151770    -0.940820422070    -0.886856079396     1.007825032230
         H           -2.816691548230    -0.462732522070     0.000060520604     1.007825032230

  Basis Set: AUG-CC-PVTZ
    Blend: AUG-CC-PVTZ
  Basis Set: (AUG-CC-PVTZ AUX)
    Blend: AUG-CC-PVTZ-JKFIT
	 Reference Energy          =    -341.8362328183949899 [Eh]
	 Singles Energy            =      -0.0000000000000000 [Eh]
	 Same-Spin Energy          =      -0.3250513066822648 [Eh]
	 Opposite-Spin Energy      =      -1.0098151537984679 [Eh]
	 Correlation Energy        =      -1.3348664604807325 [Eh]
	 Total Energy              =    -343.1710992788757153 [Eh]

	 ================> DF-SCS-MP2 Energies <==================
	-----------------------------------------------------------
	 SCS Same-Spin Scale       =       0.3333333333333333 [-]
	 SCS Opposite-Spin Scale   =       1.2000000000000000 [-]
	 SCS Same-Spin Energy      =      -0.1083504355607549 [Eh]
	 SCS Opposite-Spin Energy  =      -1.2117781845581614 [Eh]
	 SCS Correlation Energy    =      -1.3201286201189164 [Eh]
	 SCS Total Energy          =    -343.1563614385138976 [Eh]
	-----------------------------------------------------------

  Dipole Moment: [D]
     X:     0.8049      Y:    -0.1297      Z:     0.0000     Total:     0.8153

*** Psi4 exiting successfully. Buy a developer a beer!
