                               Psi4 1.3.2 release

  ==> Input File <==

--------------------------------------------------------------------------
#psi4
#
memory 32 gb

molecule  {
0 1
  O        0.1794810    -0.4898030     0.0000350
  O       -1.9464530    -0.9505490     0.0000960
  O       -1.3135820     1.2425430    -0.0001270
  C        1.2564470     0.4820050    -0.0000540
  C        2.5435920    -0.3088610     0.0000600
  C       -1.0608840     0.0708519    -0.0000254
  H        1.1578850     1.1159710    -0.8848970
  H        1.1578520     1.1161750     0.8846380
  H        3.3970200     0.3747910    -0.0000030
  H        2.6040770    -0.9424360     0.8871280
  H        2.6041090    -0.9426420    -0.8868570
  H       -2.8175920    -0.5097070     0.0000630
units angstrom
no_reorient  #important for SAPT in psi4, default
symmetry c1  #important for SAPT in psi4, default
}

set PROPERTIES_ORIGIN ["COM"]
properties('MP2/aug-cc-pvtz', properties = ['dipole'])
--------------------------------------------------------------------------

    Molecular point group: c1
  Charge       = 0
  Multiplicity = 1
  Basis Set: AUG-CC-PVTZ
    Blend: AUG-CC-PVTZ
  Basis Set: (AUG-CC-PVTZ AUX)
    Blend: AUG-CC-PVTZ-JKFIT

    Orbital Energies [Eh]
    ---------------------

    Doubly Occupied:

       1A    -20.626306     2A    -20.611572     3A    -20.559535
       4A    -11.441359     5A    -11.295619     6A    -11.228324
       7A     -1.507164     8A     -1.398215     9A     -1.377789
      10A     -1.044897    11A     -0.892834    12A     -0.817473
      13A     -0.740973    14A     -0.721451    15A     -0.701624
      16A     -0.636111    17A     -0.631208    18A     -0.593864
      19A     -0.550508    20A     -0.545359    21A     -0.522090
      22A     -0.501294    23A     -0.482238    24A     -0.473964

  @DF-RHF Final Energy:  -341.84867177798276

   => Energetics <=

    Nuclear Repulsion Energy =            245.9988515614955702
    One-Electron Energy =                -955.8915058805960143
    Two-Electron Energy =                 368.0439825411176571
    Total Energy =                       -341.8486717779827586
  Basis Set: (AUG-CC-PVTZ AUX)
    Blend: AUG-CC-PVTZ-RI
    Molecular point group: c1

    Geometry (in Angstrom), charge = 0, multiplicity = 1:

       Center              X                  Y                   Z               Mass
    ------------   -----------------  -----------------  -----------------  -----------------
         O            0.270966318753    -0.489556695963     0.000036069145    15.994914619570
         O           -1.854967681247    -0.950302695963     0.000097069145    15.994914619570
         O           -1.222096681247     1.242789304037    -0.000125930855    15.994914619570
         C            1.347932318753     0.482251304037    -0.000052930855    12.000000000000
         C            2.635077318753    -0.308614695963     0.000061069145    12.000000000000
         C           -0.969398681247     0.071098204037    -0.000024330855    12.000000000000
         H            1.249370318753     1.116217304037    -0.884895930855     1.007825032230
         H            1.249337318753     1.116421304037     0.884639069145     1.007825032230
         H            3.488505318753     0.375037304037    -0.000001930855     1.007825032230
         H            2.695562318753    -0.942189695963     0.887129069145     1.007825032230
         H            2.695594318753    -0.942395695963    -0.886855930855     1.007825032230
         H           -2.726106681247    -0.509460695963     0.000064069145     1.007825032230

  Basis Set: AUG-CC-PVTZ
    Blend: AUG-CC-PVTZ
  Basis Set: (AUG-CC-PVTZ AUX)
    Blend: AUG-CC-PVTZ-JKFIT
	 Reference Energy          =    -341.8486717779827586 [Eh]
	 Singles Energy            =      -0.0000000000000000 [Eh]
	 Same-Spin Energy          =      -0.3238656902841374 [Eh]
	 Opposite-Spin Energy      =      -1.0069051619805971 [Eh]
	 Correlation Energy        =      -1.3307708522647346 [Eh]
	 Total Energy              =    -343.1794426302474790 [Eh]

	 ================> DF-SCS-MP2 Energies <==================
	-----------------------------------------------------------
	 SCS Same-Spin Scale       =       0.3333333333333333 [-]
	 SCS Opposite-Spin Scale   =       1.2000000000000000 [-]
	 SCS Same-Spin Energy      =      -0.1079552300947124 [Eh]
	 SCS Opposite-Spin Energy  =      -1.2082861943767165 [Eh]
	 SCS Correlation Energy    =      -1.3162414244714289 [Eh]
	 SCS Total Energy          =    -343.1649132024542155 [Eh]
	-----------------------------------------------------------

  Dipole Moment: [D]
     X:     0.7363      Y:    -0.0305      Z:     0.0000     Total:     0.7369

*** Psi4 exiting successfully. Buy a developer a beer!
