                               Psi4 1.4a3.dev225

  ==> Input File <==

--------------------------------------------------------------------------
#psi4
#
memory 32 gb

molecule  {
0 1
  O        0.1794750    -0.4898220     0.0000470
  O       -1.9464210    -0.9505350     0.0000920
  O       -1.3136110     1.2425340    -0.0001370
  C        1.2564180     0.4819790    -0.0000510
  C        2.5436140    -0.3088020     0.0000540
  C       -1.0432140     0.0552480    -0.0000110
  H        1.1579040     1.1158880    -0.8849190
  H        1.1578830     1.1160920     0.8846680
  H        3.3970060     0.3748880    -0.0000150
  H        2.6041570    -0.9424410     0.8870860
  H        2.6041770    -0.9426460    -0.8868290
  H       -2.7997353    -0.5187795     0.0000440
units angstrom
no_reorient  #important for SAPT in psi4, default
symmetry c1  #important for SAPT in psi4, default
}

set PROPERTIES_ORIGIN ["COM"]
properties('MP2/aug-cc-pvtz', properties = ['dipole'])
--------------------------------------------------------------------------

    Molecular point group: c1
  Charge       = 0
  Multiplicity = 1
  Basis Set: AUG-CC-PVTZ
    Blend: AUG-CC-PVTZ
  Basis Set: (AUG-CC-PVTZ AUX)
    Blend: AUG-CC-PVTZ-JKFIT

    Orbital Energies [Eh]
    ---------------------

    Doubly Occupied:

       1A    -20.623643     2A    -20.617448     3A    -20.554417
       4A    -11.442495     5A    -11.298823     6A    -11.230339
       7A     -1.509474     8A     -1.406422     9A     -1.366791
      10A     -1.049858    11A     -0.898908    12A     -0.820879
      13A     -0.746952    14A     -0.718342    15A     -0.705019
      16A     -0.636731    17A     -0.630693    18A     -0.593135
      19A     -0.553471    20A     -0.547969    21A     -0.524336
      22A     -0.497364    23A     -0.478912    24A     -0.474864

  @DF-RHF Final Energy:  -341.85010884726427

   => Energetics <=

    Nuclear Repulsion Energy =            246.1913433043620785
    One-Electron Energy =                -956.2283413248852639
    Two-Electron Energy =                 368.1868891732589759
    Total Energy =                       -341.8501088472642664
  Basis Set: (AUG-CC-PVTZ AUX)
    Blend: AUG-CC-PVTZ-RI
    Molecular point group: c1

    Geometry (in Angstrom), charge = 0, multiplicity = 1:

       Center              X                  Y                   Z               Mass
    ------------   -----------------  -----------------  -----------------  -----------------
         O            0.268404664472    -0.487395387863     0.000047319180    15.994914619570
         O           -1.857491335528    -0.948108387863     0.000092319180    15.994914619570
         O           -1.224681335528     1.244960612137    -0.000136680820    15.994914619570
         C            1.345347664472     0.484405612137    -0.000050680820    12.000000000000
         C            2.632543664472    -0.306375387863     0.000054319180    12.000000000000
         C           -0.954284335528     0.057674612137    -0.000010680820    12.000000000000
         H            1.246833664472     1.118314612137    -0.884918680820     1.007825032230
         H            1.246812664472     1.118518612137     0.884668319180     1.007825032230
         H            3.485935664472     0.377314612137    -0.000014680820     1.007825032230
         H            2.693086664472    -0.940014387863     0.887086319180     1.007825032230
         H            2.693106664472    -0.940219387863    -0.886828680820     1.007825032230
         H           -2.710805635528    -0.516352887863     0.000044319180     1.007825032230

  Basis Set: AUG-CC-PVTZ
    Blend: AUG-CC-PVTZ
  Basis Set: (AUG-CC-PVTZ AUX)
    Blend: AUG-CC-PVTZ-JKFIT
	 Reference Energy          =    -341.8501088472642664 [Eh]
	 Singles Energy            =      -0.0000000000000000 [Eh]
	 Same-Spin Energy          =      -0.3236969525432628 [Eh]
	 Opposite-Spin Energy      =      -1.0063119648255421 [Eh]
	 Correlation Energy        =      -1.3300089173688048 [Eh]
	 Total Energy              =    -343.1801177646330530 [Eh]

	 ================> DF-SCS-MP2 Energies <==================
	-----------------------------------------------------------
	 SCS Same-Spin Scale       =       0.3333333333333333 [-]
	 SCS Opposite-Spin Scale   =       1.2000000000000000 [-]
	 SCS Same-Spin Energy      =      -0.1078989841810876 [Eh]
	 SCS Opposite-Spin Energy  =      -1.2075743577906504 [Eh]
	 SCS Correlation Energy    =      -1.3154733419717379 [Eh]
	 SCS Total Energy          =    -343.1655821892359768 [Eh]
	-----------------------------------------------------------

  Dipole Moment: [D]
     X:     0.9777      Y:    -0.1579      Z:     0.0000     Total:     0.9904

*** Psi4 exiting successfully. Buy a developer a beer!
