                               Psi4 1.3.2 release

  ==> Input File <==

--------------------------------------------------------------------------
#psi4
#
memory 32 gb

molecule  {
0 1
  O        0.2869623    -0.5970529     0.0000492
  O       -1.9464530    -0.9505490     0.0000960
  O       -1.3135820     1.2425430    -0.0001270
  C        1.2564470     0.4820050    -0.0000540
  C        2.5435920    -0.3088610     0.0000600
  C       -1.0431930     0.0552410    -0.0000240
  H        1.1578850     1.1159710    -0.8848970
  H        1.1578520     1.1161750     0.8846380
  H        3.3970200     0.3747910    -0.0000030
  H        2.6040770    -0.9424360     0.8871280
  H        2.6041090    -0.9426420    -0.8868570
  H       -2.8175920    -0.5097070     0.0000630
units angstrom
no_reorient  #important for SAPT in psi4, default
symmetry c1  #important for SAPT in psi4, default
}

set PROPERTIES_ORIGIN ["COM"]
properties('MP2/aug-cc-pvtz', properties = ['dipole'])
--------------------------------------------------------------------------

    Molecular point group: c1
  Charge       = 0
  Multiplicity = 1
  Basis Set: AUG-CC-PVTZ
    Blend: AUG-CC-PVTZ
  Basis Set: (AUG-CC-PVTZ AUX)
    Blend: AUG-CC-PVTZ-JKFIT

    Orbital Energies [Eh]
    ---------------------

    Doubly Occupied:

       1A    -20.635578     2A    -20.616873     3A    -20.577710
       4A    -11.459315     5A    -11.289358     6A    -11.220986
       7A     -1.494581     8A     -1.389451     9A     -1.371880
      10A     -1.030211    11A     -0.877524    12A     -0.829203
      13A     -0.727973    14A     -0.723438    15A     -0.689449
      16A     -0.636010    17A     -0.632198    18A     -0.593913
      19A     -0.538857    20A     -0.538553    21A     -0.518284
      22A     -0.503872    23A     -0.484715    24A     -0.475333

  @DF-RHF Final Energy:  -341.82088474581838

   => Energetics <=

    Nuclear Repulsion Energy =            243.2365144386077134
    One-Electron Energy =                -950.4042690079733120
    Two-Electron Energy =                 365.3468698235471948
    Total Energy =                       -341.8208847458183754
  Basis Set: (AUG-CC-PVTZ AUX)
    Blend: AUG-CC-PVTZ-RI
    Molecular point group: c1

    Geometry (in Angstrom), charge = 0, multiplicity = 1:

       Center              X                  Y                   Z               Mass
    ------------   -----------------  -----------------  -----------------  -----------------
         O            0.356994660025    -0.575671996492     0.000047559790    15.994914619570
         O           -1.876420639975    -0.929168096492     0.000094359790    15.994914619570
         O           -1.243549639975     1.263923903508    -0.000128640210    15.994914619570
         C            1.326479360025     0.503385903508    -0.000055640210    12.000000000000
         C            2.613624360025    -0.287480096492     0.000058359790    12.000000000000
         C           -0.973160639975     0.076621903508    -0.000025640210    12.000000000000
         H            1.227917360025     1.137351903508    -0.884898640210     1.007825032230
         H            1.227884360025     1.137555903508     0.884636359790     1.007825032230
         H            3.467052360025     0.396171903508    -0.000004640210     1.007825032230
         H            2.674109360025    -0.921055096492     0.887126359790     1.007825032230
         H            2.674141360025    -0.921261096492    -0.886858640210     1.007825032230
         H           -2.747559639975    -0.488326096492     0.000061359790     1.007825032230

  Basis Set: AUG-CC-PVTZ
    Blend: AUG-CC-PVTZ
  Basis Set: (AUG-CC-PVTZ AUX)
    Blend: AUG-CC-PVTZ-JKFIT
	 Reference Energy          =    -341.8208847458183754 [Eh]
	 Singles Energy            =      -0.0000000000000000 [Eh]
	 Same-Spin Energy          =      -0.3267425522188220 [Eh]
	 Opposite-Spin Energy      =      -1.0147025339068108 [Eh]
	 Correlation Energy        =      -1.3414450861256328 [Eh]
	 Total Energy              =    -343.1623298319440210 [Eh]

	 ================> DF-SCS-MP2 Energies <==================
	-----------------------------------------------------------
	 SCS Same-Spin Scale       =       0.3333333333333333 [-]
	 SCS Opposite-Spin Scale   =       1.2000000000000000 [-]
	 SCS Same-Spin Energy      =      -0.1089141840729407 [Eh]
	 SCS Opposite-Spin Energy  =      -1.2176430406881729 [Eh]
	 SCS Correlation Energy    =      -1.3265572247611135 [Eh]
	 SCS Total Energy          =    -343.1474419705795071 [Eh]
	-----------------------------------------------------------

  Dipole Moment: [D]
     X:     0.0644      Y:     0.1769      Z:    -0.0000     Total:     0.1882

*** Psi4 exiting successfully. Buy a developer a beer!
