                               Psi4 1.3.2 release

  ==> Input File <==

--------------------------------------------------------------------------
#psi4
#
memory 32 gb

molecule  {
0 1
  O        0.1697825    -0.5110586     0.0000375
  O       -1.9464530    -0.9505490     0.0000960
  O       -1.3135820     1.2425430    -0.0001270
  C        1.2564470     0.4820050    -0.0000540
  C        2.5435920    -0.3088610     0.0000600
  C       -1.0431930     0.0552410    -0.0000240
  H        1.1578850     1.1159710    -0.8848970
  H        1.1578520     1.1161750     0.8846380
  H        3.3970200     0.3747910    -0.0000030
  H        2.6040770    -0.9424360     0.8871280
  H        2.6041090    -0.9426420    -0.8868570
  H       -2.8175920    -0.5097070     0.0000630
units angstrom
no_reorient  #important for SAPT in psi4, default
symmetry c1  #important for SAPT in psi4, default
}

set PROPERTIES_ORIGIN ["COM"]
properties('MP2/aug-cc-pvtz', properties = ['dipole'])
--------------------------------------------------------------------------

    Molecular point group: c1
  Charge       = 0
  Multiplicity = 1
  Basis Set: AUG-CC-PVTZ
    Blend: AUG-CC-PVTZ
  Basis Set: (AUG-CC-PVTZ AUX)
    Blend: AUG-CC-PVTZ-JKFIT

    Orbital Energies [Eh]
    ---------------------

    Doubly Occupied:

       1A    -20.622822     2A    -20.617533     3A    -20.554248
       4A    -11.441008     5A    -11.300982     6A    -11.230988
       7A     -1.506070     8A     -1.398857     9A     -1.365843
      10A     -1.049171    11A     -0.894004    12A     -0.820238
      13A     -0.741254    14A     -0.716622    15A     -0.702362
      16A     -0.632915    17A     -0.630068    18A     -0.591248
      19A     -0.552020    20A     -0.546337    21A     -0.526825
      22A     -0.497062    23A     -0.478489    24A     -0.476621

  @DF-RHF Final Energy:  -341.84783687685149

   => Energetics <=

    Nuclear Repulsion Energy =            245.7495174529807116
    One-Electron Energy =                -955.4075373927393002
    Two-Electron Energy =                 367.8101830629070719
    Total Energy =                       -341.8478368768514883
  Basis Set: (AUG-CC-PVTZ AUX)
    Blend: AUG-CC-PVTZ-RI
    Molecular point group: c1

    Geometry (in Angstrom), charge = 0, multiplicity = 1:

       Center              X                  Y                   Z               Mass
    ------------   -----------------  -----------------  -----------------  -----------------
         O            0.260632872125    -0.504955332893     0.000037938397    15.994914619570
         O           -1.855602627875    -0.944445732893     0.000096438397    15.994914619570
         O           -1.222731627875     1.248646267107    -0.000126561603    15.994914619570
         C            1.347297372125     0.488108267107    -0.000053561603    12.000000000000
         C            2.634442372125    -0.302757732893     0.000060438397    12.000000000000
         C           -0.952342627875     0.061344267107    -0.000023561603    12.000000000000
         H            1.248735372125     1.122074267107    -0.884896561603     1.007825032230
         H            1.248702372125     1.122278267107     0.884638438397     1.007825032230
         H            3.487870372125     0.380894267107    -0.000002561603     1.007825032230
         H            2.694927372125    -0.936332732893     0.887128438397     1.007825032230
         H            2.694959372125    -0.936538732893    -0.886856561603     1.007825032230
         H           -2.726741627875    -0.503603732893     0.000063438397     1.007825032230

  Basis Set: AUG-CC-PVTZ
    Blend: AUG-CC-PVTZ
  Basis Set: (AUG-CC-PVTZ AUX)
    Blend: AUG-CC-PVTZ-JKFIT
	 Reference Energy          =    -341.8478368768514883 [Eh]
	 Singles Energy            =      -0.0000000000000000 [Eh]
	 Same-Spin Energy          =      -0.3241034816632794 [Eh]
	 Opposite-Spin Energy      =      -1.0075254990652480 [Eh]
	 Correlation Energy        =      -1.3316289807285275 [Eh]
	 Total Energy              =    -343.1794658575799986 [Eh]

	 ================> DF-SCS-MP2 Energies <==================
	-----------------------------------------------------------
	 SCS Same-Spin Scale       =       0.3333333333333333 [-]
	 SCS Opposite-Spin Scale   =       1.2000000000000000 [-]
	 SCS Same-Spin Energy      =      -0.1080344938877598 [Eh]
	 SCS Opposite-Spin Energy  =      -1.2090305988782977 [Eh]
	 SCS Correlation Energy    =      -1.3170650927660574 [Eh]
	 SCS Total Energy          =    -343.1649019696175174 [Eh]
	-----------------------------------------------------------

  Dipole Moment: [D]
     X:     1.0159      Y:    -0.0980      Z:     0.0000     Total:     1.0206

*** Psi4 exiting successfully. Buy a developer a beer!
