                               Psi4 1.3.2 release

  ==> Input File <==

--------------------------------------------------------------------------
#psi4
#
memory 32 gb

molecule  {
0 1
  O        0.1794810    -0.4898030     0.0000350
  O       -1.9464530    -0.9505490     0.0000960
  O       -1.3135820     1.2425430    -0.0001270
  C        1.2564470     0.4820050    -0.0000540
  C        2.5435920    -0.3088610     0.0000600
  C       -0.8605214    -0.0261904    -0.0000152
  H        1.1578850     1.1159710    -0.8848970
  H        1.1578520     1.1161750     0.8846380
  H        3.3970200     0.3747910    -0.0000030
  H        2.6040770    -0.9424360     0.8871280
  H        2.6041090    -0.9426420    -0.8868570
  H       -2.8175920    -0.5097070     0.0000630
units angstrom
no_reorient  #important for SAPT in psi4, default
symmetry c1  #important for SAPT in psi4, default
}

set PROPERTIES_ORIGIN ["COM"]
properties('MP2/aug-cc-pvtz', properties = ['dipole'])
--------------------------------------------------------------------------

    Molecular point group: c1
  Charge       = 0
  Multiplicity = 1
  Basis Set: AUG-CC-PVTZ
    Blend: AUG-CC-PVTZ
  Basis Set: (AUG-CC-PVTZ AUX)
    Blend: AUG-CC-PVTZ-JKFIT

    Orbital Energies [Eh]
    ---------------------

    Doubly Occupied:

       1A    -20.669598     2A    -20.591623     3A    -20.515599
       4A    -11.440883     5A    -11.330391     6A    -11.250067
       7A     -1.602997     8A     -1.384599     9A     -1.271415
      10A     -1.097319    11A     -0.934743    12A     -0.842302
      13A     -0.775663    14A     -0.759650    15A     -0.698570
      16A     -0.634654    17A     -0.633236    18A     -0.579272
      19A     -0.559840    20A     -0.548036    21A     -0.536023
      22A     -0.514619    23A     -0.433809    24A     -0.431860

  @DF-RHF Final Energy:  -341.77969976375073

   => Energetics <=

    Nuclear Repulsion Energy =            247.4148727183003871
    One-Electron Energy =                -958.3156076988070708
    Two-Electron Energy =                 369.1210352167560131
    Total Energy =                       -341.7796997637507275
  Basis Set: (AUG-CC-PVTZ AUX)
    Blend: AUG-CC-PVTZ-RI
    Molecular point group: c1

    Geometry (in Angstrom), charge = 0, multiplicity = 1:

       Center              X                  Y                   Z               Mass
    ------------   -----------------  -----------------  -----------------  -----------------
         O            0.244260709964    -0.476622277564     0.000034709624    15.994914619570
         O           -1.881673290036    -0.937368277564     0.000095709624    15.994914619570
         O           -1.248802290036     1.255723722436    -0.000127290376    15.994914619570
         C            1.321226709964     0.495185722436    -0.000054290376    12.000000000000
         C            2.608371709964    -0.295680277564     0.000059709624    12.000000000000
         C           -0.795741690036    -0.013009677564    -0.000015490376    12.000000000000
         H            1.222664709964     1.129151722436    -0.884897290376     1.007825032230
         H            1.222631709964     1.129355722436     0.884637709624     1.007825032230
         H            3.461799709964     0.387971722436    -0.000003290376     1.007825032230
         H            2.668856709964    -0.929255277564     0.887127709624     1.007825032230
         H            2.668888709964    -0.929461277564    -0.886857290376     1.007825032230
         H           -2.752812290036    -0.496526277564     0.000062709624     1.007825032230

  Basis Set: AUG-CC-PVTZ
    Blend: AUG-CC-PVTZ
  Basis Set: (AUG-CC-PVTZ AUX)
    Blend: AUG-CC-PVTZ-JKFIT
	 Reference Energy          =    -341.7796997637507275 [Eh]
	 Singles Energy            =      -0.0000000000000000 [Eh]
	 Same-Spin Energy          =      -0.3245811560463466 [Eh]
	 Opposite-Spin Energy      =      -1.0079684771300323 [Eh]
	 Correlation Energy        =      -1.3325496331763791 [Eh]
	 Total Energy              =    -343.1122493969270977 [Eh]

	 ================> DF-SCS-MP2 Energies <==================
	-----------------------------------------------------------
	 SCS Same-Spin Scale       =       0.3333333333333333 [-]
	 SCS Opposite-Spin Scale   =       1.2000000000000000 [-]
	 SCS Same-Spin Energy      =      -0.1081937186821155 [Eh]
	 SCS Opposite-Spin Energy  =      -1.2095621725560388 [Eh]
	 SCS Correlation Energy    =      -1.3177558912381544 [Eh]
	 SCS Total Energy          =    -343.0974556549888916 [Eh]
	-----------------------------------------------------------

  Dipole Moment: [D]
     X:     3.1979      Y:    -0.7334      Z:     0.0001     Total:     3.2809

*** Psi4 exiting successfully. Buy a developer a beer!
