                               Psi4 1.3.2 release

  ==> Input File <==

--------------------------------------------------------------------------
#psi4
#
memory 32 gb

molecule  {
0 1
  O        0.1794810    -0.4898030     0.0000350
  O       -1.9464530    -0.9505490     0.0000960
  O       -1.3135820     1.2425430    -0.0001270
  C        1.2564470     0.4820050    -0.0000540
  C        2.5435920    -0.3088610     0.0000600
  C       -1.1768264    -0.0935613    -0.0000062
  H        1.1578850     1.1159710    -0.8848970
  H        1.1578520     1.1161750     0.8846380
  H        3.3970200     0.3747910    -0.0000030
  H        2.6040770    -0.9424360     0.8871280
  H        2.6041090    -0.9426420    -0.8868570
  H       -2.8175920    -0.5097070     0.0000630
units angstrom
no_reorient  #important for SAPT in psi4, default
symmetry c1  #important for SAPT in psi4, default
}

set PROPERTIES_ORIGIN ["COM"]
properties('MP2/aug-cc-pvtz', properties = ['dipole'])
--------------------------------------------------------------------------

    Molecular point group: c1
  Charge       = 0
  Multiplicity = 1
  Basis Set: AUG-CC-PVTZ
    Blend: AUG-CC-PVTZ
  Basis Set: (AUG-CC-PVTZ AUX)
    Blend: AUG-CC-PVTZ-JKFIT

    Orbital Energies [Eh]
    ---------------------

    Doubly Occupied:

       1A    -20.687460     2A    -20.592570     3A    -20.523570
       4A    -11.450655     5A    -11.285012     6A    -11.220770
       7A     -1.612511     8A     -1.395599     9A     -1.281825
      10A     -1.037122    11A     -0.942248    12A     -0.841123
      13A     -0.777757    14A     -0.736340    15A     -0.731549
      16A     -0.649216    17A     -0.611118    18A     -0.571373
      19A     -0.541730    20A     -0.541204    21A     -0.496370
      22A     -0.472669    23A     -0.440311    24A     -0.438368

  @DF-RHF Final Energy:  -341.77866829731460

   => Energetics <=

    Nuclear Repulsion Energy =            245.6422651289759642
    One-Electron Energy =                -955.0849314529378944
    Two-Electron Energy =                 367.6639980266473344
    Total Energy =                       -341.7786682973145957
  Basis Set: (AUG-CC-PVTZ AUX)
    Blend: AUG-CC-PVTZ-RI
    Molecular point group: c1

    Geometry (in Angstrom), charge = 0, multiplicity = 1:

       Center              X                  Y                   Z               Mass
    ------------   -----------------  -----------------  -----------------  -----------------
         O            0.286419863359    -0.467642653127     0.000033510046    15.994914619570
         O           -1.839514136641    -0.928388653127     0.000094510046    15.994914619570
         O           -1.206643136641     1.264703346873    -0.000128489954    15.994914619570
         C            1.363385863359     0.504165346873    -0.000055489954    12.000000000000
         C            2.650530863359    -0.286700653127     0.000058510046    12.000000000000
         C           -1.069887536641    -0.071400953127    -0.000007689954    12.000000000000
         H            1.264823863359     1.138131346873    -0.884898489954     1.007825032230
         H            1.264790863359     1.138335346873     0.884636510046     1.007825032230
         H            3.503958863359     0.396951346873    -0.000004489954     1.007825032230
         H            2.711015863359    -0.920275653127     0.887126510046     1.007825032230
         H            2.711047863359    -0.920481653127    -0.886858489954     1.007825032230
         H           -2.710653136641    -0.487546653127     0.000061510046     1.007825032230

  Basis Set: AUG-CC-PVTZ
    Blend: AUG-CC-PVTZ
  Basis Set: (AUG-CC-PVTZ AUX)
    Blend: AUG-CC-PVTZ-JKFIT
	 Reference Energy          =    -341.7786682973145957 [Eh]
	 Singles Energy            =      -0.0000000000000000 [Eh]
	 Same-Spin Energy          =      -0.3252891858897398 [Eh]
	 Opposite-Spin Energy      =      -1.0083790301541051 [Eh]
	 Correlation Energy        =      -1.3336682160438449 [Eh]
	 Total Energy              =    -343.1123365133584571 [Eh]

	 ================> DF-SCS-MP2 Energies <==================
	-----------------------------------------------------------
	 SCS Same-Spin Scale       =       0.3333333333333333 [-]
	 SCS Opposite-Spin Scale   =       1.2000000000000000 [-]
	 SCS Same-Spin Energy      =      -0.1084297286299133 [Eh]
	 SCS Opposite-Spin Energy  =      -1.2100548361849262 [Eh]
	 SCS Correlation Energy    =      -1.3184845648148393 [Eh]
	 SCS Total Energy          =    -343.0971528621294624 [Eh]
	-----------------------------------------------------------

  Dipole Moment: [D]
     X:    -0.4906      Y:    -1.5894      Z:     0.0002     Total:     1.6634

*** Psi4 exiting successfully. Buy a developer a beer!
