                               Psi4 1.4a3.dev225

  ==> Input File <==

--------------------------------------------------------------------------
#psi4
#
memory 32 gb

molecule  {
0 1
  O        0.1794750    -0.4898220     0.0000470
  O       -1.9464210    -0.9505350     0.0000920
  O       -1.3136110     1.2425340    -0.0001370
  C        1.2564180     0.4819790    -0.0000510
  C        2.5436140    -0.3088020     0.0000540
  C       -0.9975464     0.0348895    -0.0000088
  H        1.1579040     1.1158880    -0.8849190
  H        1.1578830     1.1160920     0.8846680
  H        3.3970060     0.3748880    -0.0000150
  H        2.6041570    -0.9424410     0.8870860
  H        2.6041770    -0.9426460    -0.8868290
  H       -2.8175810    -0.5097500     0.0000430
units angstrom
no_reorient  #important for SAPT in psi4, default
symmetry c1  #important for SAPT in psi4, default
}

set PROPERTIES_ORIGIN ["COM"]
properties('MP2/aug-cc-pvtz', properties = ['dipole'])
--------------------------------------------------------------------------

    Molecular point group: c1
  Charge       = 0
  Multiplicity = 1
  Basis Set: AUG-CC-PVTZ
    Blend: AUG-CC-PVTZ
  Basis Set: (AUG-CC-PVTZ AUX)
    Blend: AUG-CC-PVTZ-JKFIT

    Orbital Energies [Eh]
    ---------------------

    Doubly Occupied:

       1A    -20.630274     2A    -20.617245     3A    -20.544828
       4A    -11.442598     5A    -11.306054     6A    -11.234843
       7A     -1.516089     8A     -1.408930     9A     -1.343180
      10A     -1.060151    11A     -0.905066    12A     -0.821785
      13A     -0.753872    14A     -0.713984    15A     -0.707917
      16A     -0.635207    17A     -0.627339    18A     -0.586860
      19A     -0.559396    20A     -0.550658    21A     -0.531062
      22A     -0.496945    23A     -0.470098    24A     -0.469471

  @DF-RHF Final Energy:  -341.84528319612173

   => Energetics <=

    Nuclear Repulsion Energy =            246.3093408877228114
    One-Electron Energy =                -956.4415440737061544
    Two-Electron Energy =                 368.2869199898616444
    Total Energy =                       -341.8452831961217271
  Basis Set: (AUG-CC-PVTZ AUX)
    Blend: AUG-CC-PVTZ-RI
    Molecular point group: c1

    Geometry (in Angstrom), charge = 0, multiplicity = 1:

       Center              X                  Y                   Z               Mass
    ------------   -----------------  -----------------  -----------------  -----------------
         O            0.262517561465    -0.484782954027     0.000047037144    15.994914619570
         O           -1.863378438535    -0.945495954027     0.000092037144    15.994914619570
         O           -1.230568438535     1.247573045973    -0.000136962856    15.994914619570
         C            1.339460561465     0.487018045973    -0.000050962856    12.000000000000
         C            2.626656561465    -0.303762954027     0.000054037144    12.000000000000
         C           -0.914503838535     0.039928545973    -0.000008762856    12.000000000000
         H            1.240946561465     1.120927045973    -0.884918962856     1.007825032230
         H            1.240925561465     1.121131045973     0.884668037144     1.007825032230
         H            3.480048561465     0.379927045973    -0.000014962856     1.007825032230
         H            2.687199561465    -0.937401954027     0.887086037144     1.007825032230
         H            2.687219561465    -0.937606954027    -0.886828962856     1.007825032230
         H           -2.734538438535    -0.504710954027     0.000043037144     1.007825032230

  Basis Set: AUG-CC-PVTZ
    Blend: AUG-CC-PVTZ
  Basis Set: (AUG-CC-PVTZ AUX)
    Blend: AUG-CC-PVTZ-JKFIT
	 Reference Energy          =    -341.8452831961217271 [Eh]
	 Singles Energy            =      -0.0000000000000000 [Eh]
	 Same-Spin Energy          =      -0.3240533026109404 [Eh]
	 Opposite-Spin Energy      =      -1.0069680332769524 [Eh]
	 Correlation Energy        =      -1.3310213358878928 [Eh]
	 Total Energy              =    -343.1763045320096239 [Eh]

	 ================> DF-SCS-MP2 Energies <==================
	-----------------------------------------------------------
	 SCS Same-Spin Scale       =       0.3333333333333333 [-]
	 SCS Opposite-Spin Scale   =       1.2000000000000000 [-]
	 SCS Same-Spin Energy      =      -0.1080177675369801 [Eh]
	 SCS Opposite-Spin Energy  =      -1.2083616399323429 [Eh]
	 SCS Correlation Energy    =      -1.3163794074693231 [Eh]
	 SCS Total Energy          =    -343.1616626035910258 [Eh]
	-----------------------------------------------------------

  Dipole Moment: [D]
     X:     1.4889      Y:    -0.2957      Z:     0.0000     Total:     1.5180

*** Psi4 exiting successfully. Buy a developer a beer!
