                               Psi4 1.3.2 release

  ==> Input File <==

--------------------------------------------------------------------------
#psi4
#
memory 32 gb

molecule  {
0 1
  O        0.1794810    -0.4898030     0.0000350
  O       -1.9464530    -0.9505490     0.0000960
  O       -1.3135820     1.2425430    -0.0001270
  C        1.2897066     0.4438274    -0.0000501
  C        2.5435920    -0.3088610     0.0000600
  C       -1.0431930     0.0552410    -0.0000240
  H        1.1578850     1.1159710    -0.8848970
  H        1.1578520     1.1161750     0.8846380
  H        3.3970200     0.3747910    -0.0000030
  H        2.6040770    -0.9424360     0.8871280
  H        2.6041090    -0.9426420    -0.8868570
  H       -2.8175920    -0.5097070     0.0000630
units angstrom
no_reorient  #important for SAPT in psi4, default
symmetry c1  #important for SAPT in psi4, default
}

set PROPERTIES_ORIGIN ["COM"]
properties('MP2/aug-cc-pvtz', properties = ['dipole'])
--------------------------------------------------------------------------

    Molecular point group: c1
  Charge       = 0
  Multiplicity = 1
  Basis Set: AUG-CC-PVTZ
    Blend: AUG-CC-PVTZ
  Basis Set: (AUG-CC-PVTZ AUX)
    Blend: AUG-CC-PVTZ-JKFIT

    Orbital Energies [Eh]
    ---------------------

    Doubly Occupied:

       1A    -20.624780     2A    -20.615519     3A    -20.553455
       4A    -11.442294     5A    -11.301278     6A    -11.229461
       7A     -1.506748     8A     -1.402687     9A     -1.365276
      10A     -1.060086    11A     -0.898438    12A     -0.813589
      13A     -0.745977    14A     -0.716206    15A     -0.702064
      16A     -0.634810    17A     -0.629530    18A     -0.595974
      19A     -0.562199    20A     -0.547739    21A     -0.527088
      22A     -0.492645    23A     -0.477708    24A     -0.467161

  @DF-RHF Final Energy:  -341.84608393136801

   => Energetics <=

    Nuclear Repulsion Energy =            246.1634336462246608
    One-Electron Energy =                -956.1936125651075145
    Two-Electron Energy =                 368.1840949875148112
    Total Energy =                       -341.8460839313680140
  Basis Set: (AUG-CC-PVTZ AUX)
    Blend: AUG-CC-PVTZ-RI
    Molecular point group: c1

    Geometry (in Angstrom), charge = 0, multiplicity = 1:

       Center              X                  Y                   Z               Mass
    ------------   -----------------  -----------------  -----------------  -----------------
         O            0.264175296920    -0.482387420667     0.000035362727    15.994914619570
         O           -1.861758703080    -0.943133420667     0.000096362727    15.994914619570
         O           -1.228887703080     1.249958579333    -0.000126637273    15.994914619570
         C            1.374400896920     0.451242979333    -0.000049737273    12.000000000000
         C            2.628286296920    -0.301445420667     0.000060362727    12.000000000000
         C           -0.958498703080     0.062656579333    -0.000023637273    12.000000000000
         H            1.242579296920     1.123386579333    -0.884896637273     1.007825032230
         H            1.242546296920     1.123590579333     0.884638362727     1.007825032230
         H            3.481714296920     0.382206579333    -0.000002637273     1.007825032230
         H            2.688771296920    -0.935020420667     0.887128362727     1.007825032230
         H            2.688803296920    -0.935226420667    -0.886856637273     1.007825032230
         H           -2.732897703080    -0.502291420667     0.000063362727     1.007825032230

  Basis Set: AUG-CC-PVTZ
    Blend: AUG-CC-PVTZ
  Basis Set: (AUG-CC-PVTZ AUX)
    Blend: AUG-CC-PVTZ-JKFIT
	 Reference Energy          =    -341.8460839313680140 [Eh]
	 Singles Energy            =      -0.0000000000000000 [Eh]
	 Same-Spin Energy          =      -0.3242617748165567 [Eh]
	 Opposite-Spin Energy      =      -1.0070767869741464 [Eh]
	 Correlation Energy        =      -1.3313385617907030 [Eh]
	 Total Energy              =    -343.1774224931587014 [Eh]

	 ================> DF-SCS-MP2 Energies <==================
	-----------------------------------------------------------
	 SCS Same-Spin Scale       =       0.3333333333333333 [-]
	 SCS Opposite-Spin Scale   =       1.2000000000000000 [-]
	 SCS Same-Spin Energy      =      -0.1080872582721856 [Eh]
	 SCS Opposite-Spin Energy  =      -1.2084921443689756 [Eh]
	 SCS Correlation Energy    =      -1.3165794026411612 [Eh]
	 SCS Total Energy          =    -343.1626633340091530 [Eh]
	-----------------------------------------------------------

  Dipole Moment: [D]
     X:     1.0399      Y:    -0.2049      Z:     0.0000     Total:     1.0599

*** Psi4 exiting successfully. Buy a developer a beer!
