                               Psi4 1.3.2 release

  ==> Input File <==

--------------------------------------------------------------------------
#psi4
#
memory 32 gb

molecule  {
0 1
  O        0.1794810    -0.4898030     0.0000350
  O       -1.9810043    -0.9184130     0.0000940
  O       -1.3135820     1.2425430    -0.0001270
  C        1.2564470     0.4820050    -0.0000540
  C        2.5435920    -0.3088610     0.0000600
  C       -1.0431930     0.0552410    -0.0000240
  H        1.1578850     1.1159710    -0.8848970
  H        1.1578520     1.1161750     0.8846380
  H        3.3970200     0.3747910    -0.0000030
  H        2.6040770    -0.9424360     0.8871280
  H        2.6041090    -0.9426420    -0.8868570
  H       -2.8175920    -0.5097070     0.0000630
units angstrom
no_reorient  #important for SAPT in psi4, default
symmetry c1  #important for SAPT in psi4, default
}

set PROPERTIES_ORIGIN ["COM"]
properties('MP2/aug-cc-pvtz', properties = ['dipole'])
--------------------------------------------------------------------------

    Molecular point group: c1
  Charge       = 0
  Multiplicity = 1
  Basis Set: AUG-CC-PVTZ
    Blend: AUG-CC-PVTZ
  Basis Set: (AUG-CC-PVTZ AUX)
    Blend: AUG-CC-PVTZ-JKFIT

    Orbital Energies [Eh]
    ---------------------

    Doubly Occupied:

       1A    -20.619801     2A    -20.619511     3A    -20.551625
       4A    -11.442699     5A    -11.300082     6A    -11.231070
       7A     -1.509729     8A     -1.410934     9A     -1.364387
      10A     -1.051053    11A     -0.902535    12A     -0.825280
      13A     -0.752974    14A     -0.715775    15A     -0.705355
      16A     -0.637383    17A     -0.630909    18A     -0.592262
      19A     -0.554788    20A     -0.549151    21A     -0.524961
      22A     -0.496772    23A     -0.476793    24A     -0.474562

  @DF-RHF Final Energy:  -341.85035683606844

   => Energetics <=

    Nuclear Repulsion Energy =            246.1248311231451851
    One-Electron Energy =                -956.0695948611953554
    Two-Electron Energy =                 368.0944069019816993
    Total Energy =                       -341.8503568360684426
  Basis Set: (AUG-CC-PVTZ AUX)
    Blend: AUG-CC-PVTZ-RI
    Molecular point group: c1

    Geometry (in Angstrom), charge = 0, multiplicity = 1:

       Center              X                  Y                   Z               Mass
    ------------   -----------------  -----------------  -----------------  -----------------
         O            0.274746688511    -0.493185215671     0.000036237862    15.994914619570
         O           -1.885738611489    -0.921795215671     0.000095237862    15.994914619570
         O           -1.218316311489     1.239160784329    -0.000125762138    15.994914619570
         C            1.351712688511     0.478622784329    -0.000052762138    12.000000000000
         C            2.638857688511    -0.312243215671     0.000061237862    12.000000000000
         C           -0.947927311489     0.051858784329    -0.000022762138    12.000000000000
         H            1.253150688511     1.112588784329    -0.884895762138     1.007825032230
         H            1.253117688511     1.112792784329     0.884639237862     1.007825032230
         H            3.492285688511     0.371408784329    -0.000001762138     1.007825032230
         H            2.699342688511    -0.945818215671     0.887129237862     1.007825032230
         H            2.699374688511    -0.946024215671    -0.886855762138     1.007825032230
         H           -2.722326311489    -0.513089215671     0.000064237862     1.007825032230

  Basis Set: AUG-CC-PVTZ
    Blend: AUG-CC-PVTZ
  Basis Set: (AUG-CC-PVTZ AUX)
    Blend: AUG-CC-PVTZ-JKFIT
	 Reference Energy          =    -341.8503568360684426 [Eh]
	 Singles Energy            =      -0.0000000000000000 [Eh]
	 Same-Spin Energy          =      -0.3231034058613541 [Eh]
	 Opposite-Spin Energy      =      -1.0050486483473353 [Eh]
	 Correlation Energy        =      -1.3281520542086893 [Eh]
	 Total Energy              =    -343.1785088902771577 [Eh]

	 ================> DF-SCS-MP2 Energies <==================
	-----------------------------------------------------------
	 SCS Same-Spin Scale       =       0.3333333333333333 [-]
	 SCS Opposite-Spin Scale   =       1.2000000000000000 [-]
	 SCS Same-Spin Energy      =      -0.1077011352871180 [Eh]
	 SCS Opposite-Spin Energy  =      -1.2060583780168024 [Eh]
	 SCS Correlation Energy    =      -1.3137595133039204 [Eh]
	 SCS Total Energy          =    -343.1641163493723639 [Eh]
	-----------------------------------------------------------

  Dipole Moment: [D]
     X:     1.0480      Y:    -0.1821      Z:     0.0000     Total:     1.0637

*** Psi4 exiting successfully. Buy a developer a beer!
