                               Psi4 1.3.2 release

  ==> Input File <==

--------------------------------------------------------------------------
#psi4
#
memory 32 gb

molecule  {
0 1
  O        0.1794810    -0.4898030     0.0000350
  O       -1.9464530    -0.9505490     0.0000960
  O       -1.3135820     1.2425430    -0.0001270
  C        1.2218753     0.5189986    -0.0000578
  C        2.5435920    -0.3088610     0.0000600
  C       -1.0431930     0.0552410    -0.0000240
  H        1.1578850     1.1159710    -0.8848970
  H        1.1578520     1.1161750     0.8846380
  H        3.3970200     0.3747910    -0.0000030
  H        2.6040770    -0.9424360     0.8871280
  H        2.6041090    -0.9426420    -0.8868570
  H       -2.8175920    -0.5097070     0.0000630
units angstrom
no_reorient  #important for SAPT in psi4, default
symmetry c1  #important for SAPT in psi4, default
}

set PROPERTIES_ORIGIN ["COM"]
properties('MP2/aug-cc-pvtz', properties = ['dipole'])
--------------------------------------------------------------------------

    Molecular point group: c1
  Charge       = 0
  Multiplicity = 1
  Basis Set: AUG-CC-PVTZ
    Blend: AUG-CC-PVTZ
  Basis Set: (AUG-CC-PVTZ AUX)
    Blend: AUG-CC-PVTZ-JKFIT

    Orbital Energies [Eh]
    ---------------------

    Doubly Occupied:

       1A    -20.625069     2A    -20.619175     3A    -20.554629
       4A    -11.441990     5A    -11.296752     6A    -11.230802
       7A     -1.509040     8A     -1.404607     9A     -1.366582
      10A     -1.040272    11A     -0.895815    12A     -0.824314
      13A     -0.744491    14A     -0.717974    15A     -0.707963
      16A     -0.635249    17A     -0.631844    18A     -0.591687
      19A     -0.549034    20A     -0.547253    21A     -0.513302
      22A     -0.502326    23A     -0.479561    24A     -0.479306

  @DF-RHF Final Energy:  -341.84666883143655

   => Energetics <=

    Nuclear Repulsion Energy =            246.0033352150877874
    One-Electron Energy =                -955.8819320913637512
    Two-Electron Energy =                 368.0319280448394466
    Total Energy =                       -341.8466688314365456
  Basis Set: (AUG-CC-PVTZ AUX)
    Blend: AUG-CC-PVTZ-RI
    Molecular point group: c1

    Geometry (in Angstrom), charge = 0, multiplicity = 1:

       Center              X                  Y                   Z               Mass
    ------------   -----------------  -----------------  -----------------  -----------------
         O            0.273216286413    -0.492406718976     0.000036389032    15.994914619570
         O           -1.852717713587    -0.953152718976     0.000097389032    15.994914619570
         O           -1.219846713587     1.239939281024    -0.000125610968    15.994914619570
         C            1.315610586413     0.516394881024    -0.000056410968    12.000000000000
         C            2.637327286413    -0.311464718976     0.000061389032    12.000000000000
         C           -0.949457713587     0.052637281024    -0.000022610968    12.000000000000
         H            1.251620286413     1.113367281024    -0.884895610968     1.007825032230
         H            1.251587286413     1.113571281024     0.884639389032     1.007825032230
         H            3.490755286413     0.372187281024    -0.000001610968     1.007825032230
         H            2.697812286413    -0.945039718976     0.887129389032     1.007825032230
         H            2.697844286413    -0.945245718976    -0.886855610968     1.007825032230
         H           -2.723856713587    -0.512310718976     0.000064389032     1.007825032230

  Basis Set: AUG-CC-PVTZ
    Blend: AUG-CC-PVTZ
  Basis Set: (AUG-CC-PVTZ AUX)
    Blend: AUG-CC-PVTZ-JKFIT
	 Reference Energy          =    -341.8466688314365456 [Eh]
	 Singles Energy            =      -0.0000000000000000 [Eh]
	 Same-Spin Energy          =      -0.3237987177844973 [Eh]
	 Opposite-Spin Energy      =      -1.0070532885915613 [Eh]
	 Correlation Energy        =      -1.3308520063760585 [Eh]
	 Total Energy              =    -343.1775208378126081 [Eh]

	 ================> DF-SCS-MP2 Energies <==================
	-----------------------------------------------------------
	 SCS Same-Spin Scale       =       0.3333333333333333 [-]
	 SCS Opposite-Spin Scale   =       1.2000000000000000 [-]
	 SCS Same-Spin Energy      =      -0.1079329059281658 [Eh]
	 SCS Opposite-Spin Energy  =      -1.2084639463098734 [Eh]
	 SCS Correlation Energy    =      -1.3163968522380392 [Eh]
	 SCS Total Energy          =    -343.1630656836745743 [Eh]
	-----------------------------------------------------------

  Dipole Moment: [D]
     X:     0.8552      Y:    -0.1092      Z:     0.0000     Total:     0.8622

*** Psi4 exiting successfully. Buy a developer a beer!
