                               Psi4 1.4a3.dev225

  ==> Input File <==

--------------------------------------------------------------------------
#psi4
#
memory 32 gb

molecule  {
0 1
  O        0.1794750    -0.4898220     0.0000470
  O       -1.9464210    -0.9505350     0.0000920
  O       -1.3136110     1.2425340    -0.0001370
  C        1.2564180     0.4819790    -0.0000510
  C        2.5436140    -0.3088020     0.0000540
  C       -1.0614811     0.0633914    -0.0000119
  H        1.1579040     1.1158880    -0.8849190
  H        1.1578830     1.1160920     0.8846680
  H        3.3970060     0.3748880    -0.0000150
  H        2.6041570    -0.9424410     0.8870860
  H        2.6041770    -0.9426460    -0.8868290
  H       -2.8175810    -0.5097500     0.0000430
units angstrom
no_reorient  #important for SAPT in psi4, default
symmetry c1  #important for SAPT in psi4, default
}

set PROPERTIES_ORIGIN ["COM"]
properties('MP2/aug-cc-pvtz', properties = ['dipole'])
--------------------------------------------------------------------------

    Molecular point group: c1
  Charge       = 0
  Multiplicity = 1
  Basis Set: AUG-CC-PVTZ
    Blend: AUG-CC-PVTZ
  Basis Set: (AUG-CC-PVTZ AUX)
    Blend: AUG-CC-PVTZ-JKFIT

    Orbital Energies [Eh]
    ---------------------

    Doubly Occupied:

       1A    -20.627890     2A    -20.612000     3A    -20.557588
       4A    -11.441811     5A    -11.295811     6A    -11.228427
       7A     -1.507722     8A     -1.400394     9A     -1.373523
      10A     -1.045399    11A     -0.894139    12A     -0.818393
      13A     -0.742078    14A     -0.720962    15A     -0.701873
      16A     -0.635753    17A     -0.631631    18A     -0.593436
      19A     -0.550789    20A     -0.545967    21A     -0.521834
      22A     -0.499562    23A     -0.480880    24A     -0.473491

  @DF-RHF Final Energy:  -341.84884500550982

   => Energetics <=

    Nuclear Repulsion Energy =            245.9861425888434781
    One-Electron Energy =                -955.8672689984871340
    Two-Electron Energy =                 368.0322814041338688
    Total Energy =                       -341.8488450055098156
  Basis Set: (AUG-CC-PVTZ AUX)
    Blend: AUG-CC-PVTZ-RI
    Molecular point group: c1

    Geometry (in Angstrom), charge = 0, multiplicity = 1:

       Center              X                  Y                   Z               Mass
    ------------   -----------------  -----------------  -----------------  -----------------
         O            0.271039187189    -0.488581869549     0.000047450332    15.994914619570
         O           -1.854856812811    -0.949294869549     0.000092450332    15.994914619570
         O           -1.222046812811     1.243774130451    -0.000136549668    15.994914619570
         C            1.347982187189     0.483219130451    -0.000050549668    12.000000000000
         C            2.635178187189    -0.307561869549     0.000054450332    12.000000000000
         C           -0.969916912811     0.064631530451    -0.000011449668    12.000000000000
         H            1.249468187189     1.117128130451    -0.884918549668     1.007825032230
         H            1.249447187189     1.117332130451     0.884668450332     1.007825032230
         H            3.488570187189     0.376128130451    -0.000014549668     1.007825032230
         H            2.695721187189    -0.941200869549     0.887086450332     1.007825032230
         H            2.695741187189    -0.941405869549    -0.886828549668     1.007825032230
         H           -2.726016812811    -0.508509869549     0.000043450332     1.007825032230

  Basis Set: AUG-CC-PVTZ
    Blend: AUG-CC-PVTZ
  Basis Set: (AUG-CC-PVTZ AUX)
    Blend: AUG-CC-PVTZ-JKFIT
	 Reference Energy          =    -341.8488450055098156 [Eh]
	 Singles Energy            =      -0.0000000000000000 [Eh]
	 Same-Spin Energy          =      -0.3239044239047872 [Eh]
	 Opposite-Spin Energy      =      -1.0069000908782821 [Eh]
	 Correlation Energy        =      -1.3308045147830694 [Eh]
	 Total Energy              =    -343.1796495202929123 [Eh]

	 ================> DF-SCS-MP2 Energies <==================
	-----------------------------------------------------------
	 SCS Same-Spin Scale       =       0.3333333333333333 [-]
	 SCS Opposite-Spin Scale   =       1.2000000000000000 [-]
	 SCS Same-Spin Energy      =      -0.1079681413015957 [Eh]
	 SCS Opposite-Spin Energy  =      -1.2082801090539386 [Eh]
	 SCS Correlation Energy    =      -1.3162482503555344 [Eh]
	 SCS Total Energy          =    -343.1650932558653722 [Eh]
	-----------------------------------------------------------

  Dipole Moment: [D]
     X:     0.7344      Y:    -0.0966      Z:     0.0000     Total:     0.7408

*** Psi4 exiting successfully. Buy a developer a beer!
