                               Psi4 1.4a3.dev225

  ==> Input File <==

--------------------------------------------------------------------------
#psi4
#
memory 32 gb

molecule  {
0 1
  O        0.1794750    -0.4898220     0.0000470
  O       -1.9464210    -0.9505350     0.0000920
  O       -1.3136110     1.2425340    -0.0001370
  C        1.2564180     0.4819790    -0.0000510
  C        2.5436140    -0.3088020     0.0000540
  C       -1.0432140     0.0552480    -0.0000110
  H        1.1579040     1.1158880    -0.8849190
  H        1.1578830     1.1160920     0.8846680
  H        3.3970060     0.3748880    -0.0000150
  H        2.6041570    -0.9424410     0.8870860
  H        2.6041770    -0.9426460    -0.8868290
  H       -2.7729668    -0.5323237     0.0000455
units angstrom
no_reorient  #important for SAPT in psi4, default
symmetry c1  #important for SAPT in psi4, default
}

set PROPERTIES_ORIGIN ["COM"]
properties('MP2/aug-cc-pvtz', properties = ['dipole'])
--------------------------------------------------------------------------

    Molecular point group: c1
  Charge       = 0
  Multiplicity = 1
  Basis Set: AUG-CC-PVTZ
    Blend: AUG-CC-PVTZ
  Basis Set: (AUG-CC-PVTZ AUX)
    Blend: AUG-CC-PVTZ-JKFIT

    Orbital Energies [Eh]
    ---------------------

    Doubly Occupied:

       1A    -20.621607     2A    -20.617756     3A    -20.555084
       4A    -11.443172     5A    -11.299037     6A    -11.230505
       7A     -1.512295     8A     -1.410987     9A     -1.368091
      10A     -1.050491    11A     -0.901978    12A     -0.823492
      13A     -0.749630    14A     -0.720201    15A     -0.705509
      16A     -0.639333    17A     -0.631433    18A     -0.593626
      19A     -0.553859    20A     -0.548609    21A     -0.524579
      22A     -0.498148    23A     -0.479621    24A     -0.475180

  @DF-RHF Final Energy:  -341.84980520446476

   => Energetics <=

    Nuclear Repulsion Energy =            246.3821793962144966
    One-Electron Energy =                -956.5555270600256108
    Two-Electron Energy =                 368.3235424593463563
    Total Energy =                       -341.8498052044647579
  Basis Set: (AUG-CC-PVTZ AUX)
    Blend: AUG-CC-PVTZ-RI
    Molecular point group: c1

    Geometry (in Angstrom), charge = 0, multiplicity = 1:

       Center              X                  Y                   Z               Mass
    ------------   -----------------  -----------------  -----------------  -----------------
         O            0.268105014836    -0.487243772546     0.000047302389    15.994914619570
         O           -1.857790985164    -0.947956772546     0.000092302389    15.994914619570
         O           -1.224980985164     1.245112227454    -0.000136697611    15.994914619570
         C            1.345048014836     0.484557227454    -0.000050697611    12.000000000000
         C            2.632244014836    -0.306223772546     0.000054302389    12.000000000000
         C           -0.954583985164     0.057826227454    -0.000010697611    12.000000000000
         H            1.246534014836     1.118466227454    -0.884918697611     1.007825032230
         H            1.246513014836     1.118670227454     0.884668302389     1.007825032230
         H            3.485636014836     0.377466227454    -0.000014697611     1.007825032230
         H            2.692787014836    -0.939862772546     0.887086302389     1.007825032230
         H            2.692807014836    -0.940067772546    -0.886828697611     1.007825032230
         H           -2.684336785164    -0.529745472546     0.000045802389     1.007825032230

  Basis Set: AUG-CC-PVTZ
    Blend: AUG-CC-PVTZ
  Basis Set: (AUG-CC-PVTZ AUX)
    Blend: AUG-CC-PVTZ-JKFIT
	 Reference Energy          =    -341.8498052044647579 [Eh]
	 Singles Energy            =      -0.0000000000000000 [Eh]
	 Same-Spin Energy          =      -0.3233559500829125 [Eh]
	 Opposite-Spin Energy      =      -1.0055029558353525 [Eh]
	 Correlation Energy        =      -1.3288589059182652 [Eh]
	 Total Energy              =    -343.1786641103830107 [Eh]

	 ================> DF-SCS-MP2 Energies <==================
	-----------------------------------------------------------
	 SCS Same-Spin Scale       =       0.3333333333333333 [-]
	 SCS Opposite-Spin Scale   =       1.2000000000000000 [-]
	 SCS Same-Spin Energy      =      -0.1077853166943042 [Eh]
	 SCS Opposite-Spin Energy  =      -1.2066035470024230 [Eh]
	 SCS Correlation Energy    =      -1.3143888636967271 [Eh]
	 SCS Total Energy          =    -343.1641940681614642 [Eh]
	-----------------------------------------------------------

  Dipole Moment: [D]
     X:     1.0218      Y:    -0.1630      Z:     0.0000     Total:     1.0347

*** Psi4 exiting successfully. Buy a developer a beer!
