                               Psi4 1.3.2 release

  ==> Input File <==

--------------------------------------------------------------------------
#psi4
#
memory 32 gb

molecule  {
0 1
  O        0.1794810    -0.4898030     0.0000350
  O       -1.9464530    -0.9505490     0.0000960
  O       -1.3135820     1.2425430    -0.0001270
  C        1.1860337     0.5547631    -0.0000614
  C        2.5435920    -0.3088610     0.0000600
  C       -1.0431930     0.0552410    -0.0000240
  H        1.1578850     1.1159710    -0.8848970
  H        1.1578520     1.1161750     0.8846380
  H        3.3970200     0.3747910    -0.0000030
  H        2.6040770    -0.9424360     0.8871280
  H        2.6041090    -0.9426420    -0.8868570
  H       -2.8175920    -0.5097070     0.0000630
units angstrom
no_reorient  #important for SAPT in psi4, default
symmetry c1  #important for SAPT in psi4, default
}

set PROPERTIES_ORIGIN ["COM"]
properties('MP2/aug-cc-pvtz', properties = ['dipole'])
--------------------------------------------------------------------------

    Molecular point group: c1
  Charge       = 0
  Multiplicity = 1
  Basis Set: AUG-CC-PVTZ
    Blend: AUG-CC-PVTZ
  Basis Set: (AUG-CC-PVTZ AUX)
    Blend: AUG-CC-PVTZ-JKFIT

    Orbital Energies [Eh]
    ---------------------

    Doubly Occupied:

       1A    -20.625343     2A    -20.621294     3A    -20.555443
       4A    -11.442136     5A    -11.295531     6A    -11.231125
       7A     -1.510467     8A     -1.405774     9A     -1.367478
      10A     -1.032394    11A     -0.894702    12A     -0.828870
      13A     -0.743966    14A     -0.719058    15A     -0.711830
      16A     -0.635859    17A     -0.634219    18A     -0.592027
      19A     -0.547785    20A     -0.546785    21A     -0.508196
      22A     -0.497292    23A     -0.482782    24A     -0.480337

  @DF-RHF Final Energy:  -341.83898806549138

   => Energetics <=

    Nuclear Repulsion Energy =            245.9671496254489682
    One-Electron Energy =                -955.7908855365888030
    Two-Electron Energy =                 367.9847478456484282
    Total Energy =                       -341.8389880654913782
  Basis Set: (AUG-CC-PVTZ AUX)
    Blend: AUG-CC-PVTZ-RI
    Molecular point group: c1

    Geometry (in Angstrom), charge = 0, multiplicity = 1:

       Center              X                  Y                   Z               Mass
    ------------   -----------------  -----------------  -----------------  -----------------
         O            0.277993484094    -0.497173640276     0.000036868863    15.994914619570
         O           -1.847940515906    -0.957919640276     0.000097868863    15.994914619570
         O           -1.215069515906     1.235172359724    -0.000125131137    15.994914619570
         C            1.284546184094     0.547392459724    -0.000059531137    12.000000000000
         C            2.642104484094    -0.316231640276     0.000061868863    12.000000000000
         C           -0.944680515906     0.047870359724    -0.000022131137    12.000000000000
         H            1.256397484094     1.108600359724    -0.884895131137     1.007825032230
         H            1.256364484094     1.108804359724     0.884639868863     1.007825032230
         H            3.495532484094     0.367420359724    -0.000001131137     1.007825032230
         H            2.702589484094    -0.949806640276     0.887129868863     1.007825032230
         H            2.702621484094    -0.950012640276    -0.886855131137     1.007825032230
         H           -2.719079515906    -0.517077640276     0.000064868863     1.007825032230

  Basis Set: AUG-CC-PVTZ
    Blend: AUG-CC-PVTZ
  Basis Set: (AUG-CC-PVTZ AUX)
    Blend: AUG-CC-PVTZ-JKFIT
	 Reference Energy          =    -341.8389880654913782 [Eh]
	 Singles Energy            =      -0.0000000000000000 [Eh]
	 Same-Spin Energy          =      -0.3238795748006171 [Eh]
	 Opposite-Spin Energy      =      -1.0076266430595608 [Eh]
	 Correlation Energy        =      -1.3315062178601780 [Eh]
	 Total Energy              =    -343.1704942833515588 [Eh]

	 ================> DF-SCS-MP2 Energies <==================
	-----------------------------------------------------------
	 SCS Same-Spin Scale       =       0.3333333333333333 [-]
	 SCS Opposite-Spin Scale   =       1.2000000000000000 [-]
	 SCS Same-Spin Energy      =      -0.1079598582668723 [Eh]
	 SCS Opposite-Spin Energy  =      -1.2091519716714729 [Eh]
	 SCS Correlation Energy    =      -1.3171118299383453 [Eh]
	 SCS Total Energy          =    -343.1560998954297474 [Eh]
	-----------------------------------------------------------

  Dipole Moment: [D]
     X:     0.7578      Y:    -0.0702      Z:     0.0000     Total:     0.7611

*** Psi4 exiting successfully. Buy a developer a beer!
