                               Psi4 1.3.2 release

  ==> Input File <==

--------------------------------------------------------------------------
#psi4
#
memory 32 gb

molecule  {
0 1
  O        0.2498943    -0.5625611     0.0000446
  O       -1.9464530    -0.9505490     0.0000960
  O       -1.3135820     1.2425430    -0.0001270
  C        1.2564470     0.4820050    -0.0000540
  C        2.5435920    -0.3088610     0.0000600
  C       -1.0431930     0.0552410    -0.0000240
  H        1.1578850     1.1159710    -0.8848970
  H        1.1578520     1.1161750     0.8846380
  H        3.3970200     0.3747910    -0.0000030
  H        2.6040770    -0.9424360     0.8871280
  H        2.6041090    -0.9426420    -0.8868570
  H       -2.8175920    -0.5097070     0.0000630
units angstrom
no_reorient  #important for SAPT in psi4, default
symmetry c1  #important for SAPT in psi4, default
}

set PROPERTIES_ORIGIN ["COM"]
properties('MP2/aug-cc-pvtz', properties = ['dipole'])
--------------------------------------------------------------------------

    Molecular point group: c1
  Charge       = 0
  Multiplicity = 1
  Basis Set: AUG-CC-PVTZ
    Blend: AUG-CC-PVTZ
  Basis Set: (AUG-CC-PVTZ AUX)
    Blend: AUG-CC-PVTZ-JKFIT

    Orbital Energies [Eh]
    ---------------------

    Doubly Occupied:

       1A    -20.632194     2A    -20.617028     3A    -20.570520
       4A    -11.454246     5A    -11.292035     6A    -11.223850
       7A     -1.496822     8A     -1.392169     9A     -1.372882
      10A     -1.036215    11A     -0.883123    12A     -0.825977
      13A     -0.730877    14A     -0.723690    15A     -0.693706
      16A     -0.635751    17A     -0.631150    18A     -0.594009
      19A     -0.541981    20A     -0.541877    21A     -0.521122
      22A     -0.500886    23A     -0.484639    24A     -0.475891

  @DF-RHF Final Energy:  -341.83332481347350

   => Energetics <=

    Nuclear Repulsion Energy =            244.1348599558957915
    One-Electron Energy =                -952.1910911874283556
    Two-Electron Energy =                 366.2229064180590967
    Total Energy =                       -341.8333248134734959
  Basis Set: (AUG-CC-PVTZ AUX)
    Blend: AUG-CC-PVTZ-RI
    Molecular point group: c1

    Geometry (in Angstrom), charge = 0, multiplicity = 1:

       Center              X                  Y                   Z               Mass
    ------------   -----------------  -----------------  -----------------  -----------------
         O            0.326512113085    -0.547307965184     0.000043777020    15.994914619570
         O           -1.869835186915    -0.935295865184     0.000095177020    15.994914619570
         O           -1.236964186915     1.257796134816    -0.000127822980    15.994914619570
         C            1.333064813085     0.497258134816    -0.000054822980    12.000000000000
         C            2.620209813085    -0.293607865184     0.000059177020    12.000000000000
         C           -0.966575186915     0.070494134816    -0.000024822980    12.000000000000
         H            1.234502813085     1.131224134816    -0.884897822980     1.007825032230
         H            1.234469813085     1.131428134816     0.884637177020     1.007825032230
         H            3.473637813085     0.390044134816    -0.000003822980     1.007825032230
         H            2.680694813085    -0.927182865184     0.887127177020     1.007825032230
         H            2.680726813085    -0.927388865184    -0.886857822980     1.007825032230
         H           -2.740974186915    -0.494453865184     0.000062177020     1.007825032230

  Basis Set: AUG-CC-PVTZ
    Blend: AUG-CC-PVTZ
  Basis Set: (AUG-CC-PVTZ AUX)
    Blend: AUG-CC-PVTZ-JKFIT
	 Reference Energy          =    -341.8333248134734959 [Eh]
	 Singles Energy            =      -0.0000000000000000 [Eh]
	 Same-Spin Energy          =      -0.3257270979208132 [Eh]
	 Opposite-Spin Energy      =      -1.0119020738636764 [Eh]
	 Correlation Energy        =      -1.3376291717844895 [Eh]
	 Total Energy              =    -343.1709539852579951 [Eh]

	 ================> DF-SCS-MP2 Energies <==================
	-----------------------------------------------------------
	 SCS Same-Spin Scale       =       0.3333333333333333 [-]
	 SCS Opposite-Spin Scale   =       1.2000000000000000 [-]
	 SCS Same-Spin Energy      =      -0.1085756993069377 [Eh]
	 SCS Opposite-Spin Energy  =      -1.2142824886364116 [Eh]
	 SCS Correlation Energy    =      -1.3228581879433494 [Eh]
	 SCS Total Energy          =    -343.1561830014168208 [Eh]
	-----------------------------------------------------------

  Dipole Moment: [D]
     X:     0.3477      Y:     0.0732      Z:    -0.0000     Total:     0.3554

*** Psi4 exiting successfully. Buy a developer a beer!
