                               Psi4 1.4a3.dev225

  ==> Input File <==

--------------------------------------------------------------------------
#psi4
#
memory 32 gb

molecule  {
0 1
  O        0.1794750    -0.4898220     0.0000470
  O       -1.9464210    -0.9505350     0.0000920
  O       -1.3136110     1.2425340    -0.0001370
  C        1.2564180     0.4819790    -0.0000510
  C        2.5436140    -0.3088020     0.0000540
  C       -1.0249469     0.0471046    -0.0000101
  H        1.1579040     1.1158880    -0.8849190
  H        1.1578830     1.1160920     0.8846680
  H        3.3970060     0.3748880    -0.0000150
  H        2.6041570    -0.9424410     0.8870860
  H        2.6041770    -0.9426460    -0.8868290
  H       -2.8175810    -0.5097500     0.0000430
units angstrom
no_reorient  #important for SAPT in psi4, default
symmetry c1  #important for SAPT in psi4, default
}

set PROPERTIES_ORIGIN ["COM"]
properties('MP2/aug-cc-pvtz', properties = ['dipole'])
--------------------------------------------------------------------------

    Molecular point group: c1
  Charge       = 0
  Multiplicity = 1
  Basis Set: AUG-CC-PVTZ
    Blend: AUG-CC-PVTZ
  Basis Set: (AUG-CC-PVTZ AUX)
    Blend: AUG-CC-PVTZ-JKFIT

    Orbital Energies [Eh]
    ---------------------

    Doubly Occupied:

       1A    -20.622466     2A    -20.621860     3A    -20.550344
       4A    -11.442287     5A    -11.301594     6A    -11.232054
       7A     -1.509647     8A     -1.406571     9A     -1.357096
      10A     -1.053641    11A     -0.900138    12A     -0.820106
      13A     -0.748565    14A     -0.713229    15A     -0.708048
      16A     -0.634598    17A     -0.628890    18A     -0.591187
      19A     -0.555655    20A     -0.548977    21A     -0.526813
      22A     -0.495681    23A     -0.475258    24A     -0.474124

  @DF-RHF Final Energy:  -341.84857814043454

   => Energetics <=

    Nuclear Repulsion Energy =            246.1592454458749444
    One-Electron Energy =                -956.1779921569350336
    Two-Electron Energy =                 368.1701685706255489
    Total Energy =                       -341.8485781404345403
  Basis Set: (AUG-CC-PVTZ AUX)
    Blend: AUG-CC-PVTZ-RI
    Molecular point group: c1

    Geometry (in Angstrom), charge = 0, multiplicity = 1:

       Center              X                  Y                   Z               Mass
    ------------   -----------------  -----------------  -----------------  -----------------
         O            0.266169675350    -0.486411060679     0.000047210416    15.994914619570
         O           -1.859726324650    -0.947124060679     0.000092210416    15.994914619570
         O           -1.226916324650     1.245944939321    -0.000136789584    15.994914619570
         C            1.343112675350     0.485389939321    -0.000050789584    12.000000000000
         C            2.630308675350    -0.305391060679     0.000054210416    12.000000000000
         C           -0.938252224650     0.050515539321    -0.000009889584    12.000000000000
         H            1.244598675350     1.119298939321    -0.884918789584     1.007825032230
         H            1.244577675350     1.119502939321     0.884668210416     1.007825032230
         H            3.483700675350     0.378298939321    -0.000014789584     1.007825032230
         H            2.690851675350    -0.939030060679     0.887086210416     1.007825032230
         H            2.690871675350    -0.939235060679    -0.886828789584     1.007825032230
         H           -2.730886324650    -0.506339060679     0.000043210416     1.007825032230

  Basis Set: AUG-CC-PVTZ
    Blend: AUG-CC-PVTZ
  Basis Set: (AUG-CC-PVTZ AUX)
    Blend: AUG-CC-PVTZ-JKFIT
	 Reference Energy          =    -341.8485781404345403 [Eh]
	 Singles Energy            =      -0.0000000000000000 [Eh]
	 Same-Spin Energy          =      -0.3239644038403457 [Eh]
	 Opposite-Spin Energy      =      -1.0068781695881326 [Eh]
	 Correlation Energy        =      -1.3308425734284783 [Eh]
	 Total Energy              =    -343.1794207138630100 [Eh]

	 ================> DF-SCS-MP2 Energies <==================
	-----------------------------------------------------------
	 SCS Same-Spin Scale       =       0.3333333333333333 [-]
	 SCS Opposite-Spin Scale   =       1.2000000000000000 [-]
	 SCS Same-Spin Energy      =      -0.1079881346134486 [Eh]
	 SCS Opposite-Spin Energy  =      -1.2082538035057591 [Eh]
	 SCS Correlation Energy    =      -1.3162419381192076 [Eh]
	 SCS Total Energy          =    -343.1648200785537597 [Eh]
	-----------------------------------------------------------

  Dipole Moment: [D]
     X:     1.1636      Y:    -0.2109      Z:     0.0000     Total:     1.1825

*** Psi4 exiting successfully. Buy a developer a beer!
