                               Psi4 1.3.2 release

  ==> Input File <==

--------------------------------------------------------------------------
#psi4
#
memory 32 gb

molecule  {
0 1
  O        0.1794810    -0.4898030     0.0000350
  O       -1.9464530    -0.9505490     0.0000960
  O       -1.3135820     1.2425430    -0.0001270
  C        1.4049317     0.6159912    -0.0000663
  C        2.5435920    -0.3088610     0.0000600
  C       -1.0431930     0.0552410    -0.0000240
  H        1.1578850     1.1159710    -0.8848970
  H        1.1578520     1.1161750     0.8846380
  H        3.3970200     0.3747910    -0.0000030
  H        2.6040770    -0.9424360     0.8871280
  H        2.6041090    -0.9426420    -0.8868570
  H       -2.8175920    -0.5097070     0.0000630
units angstrom
no_reorient  #important for SAPT in psi4, default
symmetry c1  #important for SAPT in psi4, default
}

set PROPERTIES_ORIGIN ["COM"]
properties('MP2/aug-cc-pvtz', properties = ['dipole'])
--------------------------------------------------------------------------

    Molecular point group: c1
  Charge       = 0
  Multiplicity = 1
  Basis Set: AUG-CC-PVTZ
    Blend: AUG-CC-PVTZ
  Basis Set: (AUG-CC-PVTZ AUX)
    Blend: AUG-CC-PVTZ-JKFIT

    Orbital Energies [Eh]
    ---------------------

    Doubly Occupied:

       1A    -20.611986     2A    -20.587571     3A    -20.539532
       4A    -11.424643     5A    -11.312816     6A    -11.239814
       7A     -1.483356     8A     -1.368294     9A     -1.342215
      10A     -1.068947    11A     -0.886272    12A     -0.820141
      13A     -0.715095    14A     -0.702466    15A     -0.696979
      16A     -0.640298    17A     -0.618513    18A     -0.595925
      19A     -0.554393    20A     -0.544575    21A     -0.512213
      22A     -0.505235    23A     -0.465594    24A     -0.462717

  @DF-RHF Final Energy:  -341.82222111550351

   => Energetics <=

    Nuclear Repulsion Energy =            243.3419278064585569
    One-Electron Energy =                -950.9291161501298575
    Two-Electron Energy =                 365.7649672281677908
    Total Energy =                       -341.8222211155035097
  Basis Set: (AUG-CC-PVTZ AUX)
    Blend: AUG-CC-PVTZ-RI
    Molecular point group: c1

    Geometry (in Angstrom), charge = 0, multiplicity = 1:

       Center              X                  Y                   Z               Mass
    ------------   -----------------  -----------------  -----------------  -----------------
         O            0.248817358645    -0.505334513041     0.000037521967    15.994914619570
         O           -1.877116641355    -0.966080513041     0.000098521967    15.994914619570
         O           -1.244245641355     1.227011486959    -0.000124478033    15.994914619570
         C            1.474268058645     0.600459686959    -0.000063778033    12.000000000000
         C            2.612928358645    -0.324392513041     0.000062521967    12.000000000000
         C           -0.973856641355     0.039709486959    -0.000021478033    12.000000000000
         H            1.227221358645     1.100439486959    -0.884894478033     1.007825032230
         H            1.227188358645     1.100643486959     0.884640521967     1.007825032230
         H            3.466356358645     0.359259486959    -0.000000478033     1.007825032230
         H            2.673413358645    -0.957967513041     0.887130521967     1.007825032230
         H            2.673445358645    -0.958173513041    -0.886854478033     1.007825032230
         H           -2.748255641355    -0.525238513041     0.000065521967     1.007825032230

  Basis Set: AUG-CC-PVTZ
    Blend: AUG-CC-PVTZ
  Basis Set: (AUG-CC-PVTZ AUX)
    Blend: AUG-CC-PVTZ-JKFIT
	 Reference Energy          =    -341.8222211155035097 [Eh]
	 Singles Energy            =      -0.0000000000000000 [Eh]
	 Same-Spin Energy          =      -0.3248414150832243 [Eh]
	 Opposite-Spin Energy      =      -1.0096160491519950 [Eh]
	 Correlation Energy        =      -1.3344574642352192 [Eh]
	 Total Energy              =    -343.1566785797387524 [Eh]

	 ================> DF-SCS-MP2 Energies <==================
	-----------------------------------------------------------
	 SCS Same-Spin Scale       =       0.3333333333333333 [-]
	 SCS Opposite-Spin Scale   =       1.2000000000000000 [-]
	 SCS Same-Spin Energy      =      -0.1082804716944081 [Eh]
	 SCS Opposite-Spin Energy  =      -1.2115392589823939 [Eh]
	 SCS Correlation Energy    =      -1.3198197306768020 [Eh]
	 SCS Total Energy          =    -343.1420408461802936 [Eh]
	-----------------------------------------------------------

  Dipole Moment: [D]
     X:     1.8159      Y:     0.0969      Z:     0.0000     Total:     1.8185

*** Psi4 exiting successfully. Buy a developer a beer!
