                               Psi4 1.3.2 release

  ==> Input File <==

--------------------------------------------------------------------------
#psi4
#
memory 32 gb

molecule  {
0 1
  O        0.1794810    -0.4898030     0.0000350
  O       -1.9464530    -0.9505490     0.0000960
  O       -1.3135820     1.2425430    -0.0001270
  C        1.2564470     0.4820050    -0.0000540
  C        2.5435920    -0.3088610     0.0000600
  C       -1.0257771     0.0393238    -0.0000226
  H        1.1578850     1.1159710    -0.8848970
  H        1.1578520     1.1161750     0.8846380
  H        3.3970200     0.3747910    -0.0000030
  H        2.6040770    -0.9424360     0.8871280
  H        2.6041090    -0.9426420    -0.8868570
  H       -2.8175920    -0.5097070     0.0000630
units angstrom
no_reorient  #important for SAPT in psi4, default
symmetry c1  #important for SAPT in psi4, default
}

set PROPERTIES_ORIGIN ["COM"]
properties('MP2/aug-cc-pvtz', properties = ['dipole'])
--------------------------------------------------------------------------

    Molecular point group: c1
  Charge       = 0
  Multiplicity = 1
  Basis Set: AUG-CC-PVTZ
    Blend: AUG-CC-PVTZ
  Basis Set: (AUG-CC-PVTZ AUX)
    Blend: AUG-CC-PVTZ-JKFIT

    Orbital Energies [Eh]
    ---------------------

    Doubly Occupied:

       1A    -20.623527     2A    -20.622825     3A    -20.548312
       4A    -11.442641     5A    -11.301782     6A    -11.232145
       7A     -1.510665     8A     -1.408871     9A     -1.352372
      10A     -1.054157    11A     -0.901346    12A     -0.820935
      13A     -0.750186    14A     -0.712906    15A     -0.708360
      16A     -0.634693    17A     -0.629460    18A     -0.590075
      19A     -0.555948    20A     -0.549693    21A     -0.526596
      22A     -0.495138    23A     -0.473522    24A     -0.472274

  @DF-RHF Final Energy:  -341.84814642180646

   => Energetics <=

    Nuclear Repulsion Energy =            246.1478980168333237
    One-Electron Energy =                -956.1552324602477029
    Two-Electron Energy =                 368.1591880216079176
    Total Energy =                       -341.8481464218064616
  Basis Set: (AUG-CC-PVTZ AUX)
    Blend: AUG-CC-PVTZ-RI
    Molecular point group: c1

    Geometry (in Angstrom), charge = 0, multiplicity = 1:

       Center              X                  Y                   Z               Mass
    ------------   -----------------  -----------------  -----------------  -----------------
         O            0.266287046587    -0.485354429150     0.000035695943    15.994914619570
         O           -1.859646953413    -0.946100429150     0.000096695943    15.994914619570
         O           -1.226775953413     1.246991570850    -0.000126304057    15.994914619570
         C            1.343253046587     0.486453570850    -0.000053304057    12.000000000000
         C            2.630398046587    -0.304412429150     0.000060695943    12.000000000000
         C           -0.938971053413     0.043772370850    -0.000021904057    12.000000000000
         H            1.244691046587     1.120419570850    -0.884896304057     1.007825032230
         H            1.244658046587     1.120623570850     0.884638695943     1.007825032230
         H            3.483826046587     0.379239570850    -0.000002304057     1.007825032230
         H            2.690883046587    -0.937987429150     0.887128695943     1.007825032230
         H            2.690915046587    -0.938193429150    -0.886856304057     1.007825032230
         H           -2.730785953413    -0.505258429150     0.000063695943     1.007825032230

  Basis Set: AUG-CC-PVTZ
    Blend: AUG-CC-PVTZ
  Basis Set: (AUG-CC-PVTZ AUX)
    Blend: AUG-CC-PVTZ-JKFIT
	 Reference Energy          =    -341.8481464218064616 [Eh]
	 Singles Energy            =      -0.0000000000000000 [Eh]
	 Same-Spin Energy          =      -0.3239969066388357 [Eh]
	 Opposite-Spin Energy      =      -1.0068650630284766 [Eh]
	 Correlation Energy        =      -1.3308619696673123 [Eh]
	 Total Energy              =    -343.1790083914737579 [Eh]

	 ================> DF-SCS-MP2 Energies <==================
	-----------------------------------------------------------
	 SCS Same-Spin Scale       =       0.3333333333333333 [-]
	 SCS Opposite-Spin Scale   =       1.2000000000000000 [-]
	 SCS Same-Spin Energy      =      -0.1079989688796119 [Eh]
	 SCS Opposite-Spin Energy  =      -1.2082380756341717 [Eh]
	 SCS Correlation Energy    =      -1.3162370445137836 [Eh]
	 SCS Total Energy          =    -343.1643834663202597 [Eh]
	-----------------------------------------------------------

  Dipole Moment: [D]
     X:     1.1597      Y:    -0.2788      Z:     0.0000     Total:     1.1927

*** Psi4 exiting successfully. Buy a developer a beer!
