                               Psi4 1.4a3.dev225

  ==> Input File <==

--------------------------------------------------------------------------
#psi4
#
memory 32 gb

molecule  {
0 1
  O        0.1794750    -0.4898220     0.0000470
  O       -1.9464210    -0.9505350     0.0000920
  O       -1.3136110     1.2425340    -0.0001370
  C        1.2564180     0.4819790    -0.0000510
  C        2.5436140    -0.3088020     0.0000540
  C       -1.0432140     0.0552480    -0.0000110
  H        1.1579040     1.1158880    -0.8849190
  H        1.1578830     1.1160920     0.8846680
  H        3.3970060     0.3748880    -0.0000150
  H        2.6041570    -0.9424410     0.8870860
  H        2.6041770    -0.9426460    -0.8868290
  H       -2.8621952    -0.4871763     0.0000405
units angstrom
no_reorient  #important for SAPT in psi4, default
symmetry c1  #important for SAPT in psi4, default
}

set PROPERTIES_ORIGIN ["COM"]
properties('MP2/aug-cc-pvtz', properties = ['dipole'])
--------------------------------------------------------------------------

    Molecular point group: c1
  Charge       = 0
  Multiplicity = 1
  Basis Set: AUG-CC-PVTZ
    Blend: AUG-CC-PVTZ
  Basis Set: (AUG-CC-PVTZ AUX)
    Blend: AUG-CC-PVTZ-JKFIT

    Orbital Energies [Eh]
    ---------------------

    Doubly Occupied:

       1A    -20.627616     2A    -20.616754     3A    -20.552892
       4A    -11.440940     5A    -11.298335     6A    -11.229959
       7A     -1.504293     8A     -1.397271     9A     -1.363353
      10A     -1.048538    11A     -0.893041    12A     -0.815262
      13A     -0.740916    14A     -0.713519    15A     -0.703922
      16A     -0.629853    17A     -0.629041    18A     -0.592000
      19A     -0.552481    20A     -0.546551    21A     -0.523774
      22A     -0.495575    23A     -0.477244    24A     -0.474129

  @DF-RHF Final Energy:  -341.84432133122056

   => Energetics <=

    Nuclear Repulsion Energy =            245.7795597984589051
    One-Electron Energy =                -955.5132448036870301
    Two-Electron Energy =                 367.8893636740075976
    Total Energy =                       -341.8443213312205557
  Basis Set: (AUG-CC-PVTZ AUX)
    Blend: AUG-CC-PVTZ-RI
    Molecular point group: c1

    Geometry (in Angstrom), charge = 0, multiplicity = 1:

       Center              X                  Y                   Z               Mass
    ------------   -----------------  -----------------  -----------------  -----------------
         O            0.269103847703    -0.487749157681     0.000047358359    15.994914619570
         O           -1.856792152297    -0.948462157681     0.000092358359    15.994914619570
         O           -1.223982152297     1.244606842319    -0.000136641641    15.994914619570
         C            1.346046847703     0.484051842319    -0.000050641641    12.000000000000
         C            2.633242847703    -0.306729157681     0.000054358359    12.000000000000
         C           -0.953585152297     0.057320842319    -0.000010641641    12.000000000000
         H            1.247532847703     1.117960842319    -0.884918641641     1.007825032230
         H            1.247511847703     1.118164842319     0.884668358359     1.007825032230
         H            3.486634847703     0.376960842319    -0.000014641641     1.007825032230
         H            2.693785847703    -0.940368157681     0.887086358359     1.007825032230
         H            2.693805847703    -0.940573157681    -0.886828641641     1.007825032230
         H           -2.772566352297    -0.485103457681     0.000040858359     1.007825032230

  Basis Set: AUG-CC-PVTZ
    Blend: AUG-CC-PVTZ
  Basis Set: (AUG-CC-PVTZ AUX)
    Blend: AUG-CC-PVTZ-JKFIT
	 Reference Energy          =    -341.8443213312205557 [Eh]
	 Singles Energy            =      -0.0000000000000000 [Eh]
	 Same-Spin Energy          =      -0.3244913220239177 [Eh]
	 Opposite-Spin Energy      =      -1.0083045920157288 [Eh]
	 Correlation Energy        =      -1.3327959140396466 [Eh]
	 Total Energy              =    -343.1771172452602059 [Eh]

	 ================> DF-SCS-MP2 Energies <==================
	-----------------------------------------------------------
	 SCS Same-Spin Scale       =       0.3333333333333333 [-]
	 SCS Opposite-Spin Scale   =       1.2000000000000000 [-]
	 SCS Same-Spin Energy      =      -0.1081637740079726 [Eh]
	 SCS Opposite-Spin Energy  =      -1.2099655104188745 [Eh]
	 SCS Correlation Energy    =      -1.3181292844268471 [Eh]
	 SCS Total Energy          =    -343.1624506156474013 [Eh]
	-----------------------------------------------------------

  Dipole Moment: [D]
     X:     0.8759      Y:    -0.1429      Z:     0.0000     Total:     0.8875

*** Psi4 exiting successfully. Buy a developer a beer!
