                               Psi4 1.3.2 release

  ==> Input File <==

--------------------------------------------------------------------------
#psi4
#
memory 32 gb

molecule  {
0 1
  O        0.1977579    -0.4468003     0.0000299
  O       -1.9464530    -0.9505490     0.0000960
  O       -1.3135820     1.2425430    -0.0001270
  C        1.2564470     0.4820050    -0.0000540
  C        2.5435920    -0.3088610     0.0000600
  C       -1.0431930     0.0552410    -0.0000240
  H        1.1578850     1.1159710    -0.8848970
  H        1.1578520     1.1161750     0.8846380
  H        3.3970200     0.3747910    -0.0000030
  H        2.6040770    -0.9424360     0.8871280
  H        2.6041090    -0.9426420    -0.8868570
  H       -2.8175920    -0.5097070     0.0000630
units angstrom
no_reorient  #important for SAPT in psi4, default
symmetry c1  #important for SAPT in psi4, default
}

set PROPERTIES_ORIGIN ["COM"]
properties('MP2/aug-cc-pvtz', properties = ['dipole'])
--------------------------------------------------------------------------

    Molecular point group: c1
  Charge       = 0
  Multiplicity = 1
  Basis Set: AUG-CC-PVTZ
    Blend: AUG-CC-PVTZ
  Basis Set: (AUG-CC-PVTZ AUX)
    Blend: AUG-CC-PVTZ-JKFIT

    Orbital Energies [Eh]
    ---------------------

    Doubly Occupied:

       1A    -20.628981     2A    -20.616316     3A    -20.553432
       4A    -11.444302     5A    -11.294242     6A    -11.228753
       7A     -1.511734     8A     -1.413117     9A     -1.366030
      10A     -1.050408    11A     -0.903503    12A     -0.817018
      13A     -0.753145    14A     -0.717860    15A     -0.709760
      16A     -0.638882    17A     -0.630830    18A     -0.596645
      19A     -0.554556    20A     -0.549833    21A     -0.518561
      22A     -0.496655    23A     -0.478005    24A     -0.470021

  @DF-RHF Final Energy:  -341.84966263795411

   => Energetics <=

    Nuclear Repulsion Energy =            246.7258059764253346
    One-Electron Energy =                -957.2657594545366919
    Two-Electron Energy =                 368.6902908401572176
    Total Energy =                       -341.8496626379541112
  Basis Set: (AUG-CC-PVTZ AUX)
    Blend: AUG-CC-PVTZ-RI
    Molecular point group: c1

    Geometry (in Angstrom), charge = 0, multiplicity = 1:

       Center              X                  Y                   Z               Mass
    ------------   -----------------  -----------------  -----------------  -----------------
         O            0.283638198651    -0.452113079574     0.000031688604    15.994914619570
         O           -1.860572701349    -0.955861779574     0.000097788604    15.994914619570
         O           -1.227701701349     1.237230220426    -0.000125211396    15.994914619570
         C            1.342327298651     0.476692220426    -0.000052211396    12.000000000000
         C            2.629472298651    -0.314173779574     0.000061788604    12.000000000000
         C           -0.957312701349     0.049928220426    -0.000022211396    12.000000000000
         H            1.243765298651     1.110658220426    -0.884895211396     1.007825032230
         H            1.243732298651     1.110862220426     0.884639788604     1.007825032230
         H            3.482900298651     0.369478220426    -0.000001211396     1.007825032230
         H            2.689957298651    -0.947748779574     0.887129788604     1.007825032230
         H            2.689989298651    -0.947954779574    -0.886855211396     1.007825032230
         H           -2.731711701349    -0.515019779574     0.000064788604     1.007825032230

  Basis Set: AUG-CC-PVTZ
    Blend: AUG-CC-PVTZ
  Basis Set: (AUG-CC-PVTZ AUX)
    Blend: AUG-CC-PVTZ-JKFIT
	 Reference Energy          =    -341.8496626379541112 [Eh]
	 Singles Energy            =      -0.0000000000000000 [Eh]
	 Same-Spin Energy          =      -0.3236548735120480 [Eh]
	 Opposite-Spin Energy      =      -1.0057220712808961 [Eh]
	 Correlation Energy        =      -1.3293769447929442 [Eh]
	 Total Energy              =    -343.1790395827470661 [Eh]

	 ================> DF-SCS-MP2 Energies <==================
	-----------------------------------------------------------
	 SCS Same-Spin Scale       =       0.3333333333333333 [-]
	 SCS Opposite-Spin Scale   =       1.2000000000000000 [-]
	 SCS Same-Spin Energy      =      -0.1078849578373493 [Eh]
	 SCS Opposite-Spin Energy  =      -1.2068664855370752 [Eh]
	 SCS Correlation Energy    =      -1.3147514433744245 [Eh]
	 SCS Total Energy          =    -343.1644140813285162 [Eh]
	-----------------------------------------------------------

  Dipole Moment: [D]
     X:     0.8130      Y:    -0.2708      Z:     0.0000     Total:     0.8569

*** Psi4 exiting successfully. Buy a developer a beer!
