                               Psi4 1.3.2 release

  ==> Input File <==

--------------------------------------------------------------------------
#psi4
#
memory 32 gb

molecule  {
0 1
  O        0.1794810    -0.4898030     0.0000350
  O       -1.9464530    -0.9505490     0.0000960
  O       -1.3135820     1.2425430    -0.0001270
  C        1.2564470     0.4820050    -0.0000540
  C        2.5435920    -0.3088610     0.0000600
  C       -0.9763763     0.1296421    -0.0000329
  H        1.1578850     1.1159710    -0.8848970
  H        1.1578520     1.1161750     0.8846380
  H        3.3970200     0.3747910    -0.0000030
  H        2.6040770    -0.9424360     0.8871280
  H        2.6041090    -0.9426420    -0.8868570
  H       -2.8175920    -0.5097070     0.0000630
units angstrom
no_reorient  #important for SAPT in psi4, default
symmetry c1  #important for SAPT in psi4, default
}

set PROPERTIES_ORIGIN ["COM"]
properties('MP2/aug-cc-pvtz', properties = ['dipole'])
--------------------------------------------------------------------------

    Molecular point group: c1
  Charge       = 0
  Multiplicity = 1
  Basis Set: AUG-CC-PVTZ
    Blend: AUG-CC-PVTZ
  Basis Set: (AUG-CC-PVTZ AUX)
    Blend: AUG-CC-PVTZ-JKFIT

    Orbital Energies [Eh]
    ---------------------

    Doubly Occupied:

       1A    -20.628613     2A    -20.593302     3A    -20.569112
       4A    -11.438686     5A    -11.305483     6A    -11.234723
       7A     -1.515284     8A     -1.417483     9A     -1.355376
      10A     -1.055590    11A     -0.893669    12A     -0.817121
      13A     -0.734522    14A     -0.719503    15A     -0.714548
      16A     -0.628512    17A     -0.626242    18A     -0.597747
      19A     -0.556413    20A     -0.543554    21A     -0.534226
      22A     -0.500941    23A     -0.488005    24A     -0.482866

  @DF-RHF Final Energy:  -341.83761251569337

   => Energetics <=

    Nuclear Repulsion Energy =            246.5591798519163547
    One-Electron Energy =                -956.8905450019543650
    Two-Electron Energy =                 368.4937526343446166
    Total Energy =                       -341.8376125156933654
  Basis Set: (AUG-CC-PVTZ AUX)
    Blend: AUG-CC-PVTZ-RI
    Molecular point group: c1

    Geometry (in Angstrom), charge = 0, multiplicity = 1:

       Center              X                  Y                   Z               Mass
    ------------   -----------------  -----------------  -----------------  -----------------
         O            0.259702592010    -0.497392629824     0.000037068793    15.994914619570
         O           -1.866231407990    -0.958138629824     0.000098068793    15.994914619570
         O           -1.233360407990     1.234953370176    -0.000124931207    15.994914619570
         C            1.336668592010     0.474415370176    -0.000051931207    12.000000000000
         C            2.623813592010    -0.316450629824     0.000062068793    12.000000000000
         C           -0.896154707990     0.122052470176    -0.000030831207    12.000000000000
         H            1.238106592010     1.108381370176    -0.884894931207     1.007825032230
         H            1.238073592010     1.108585370176     0.884640068793     1.007825032230
         H            3.477241592010     0.367201370176    -0.000000931207     1.007825032230
         H            2.684298592010    -0.950025629824     0.887130068793     1.007825032230
         H            2.684330592010    -0.950231629824    -0.886854931207     1.007825032230
         H           -2.737370407990    -0.517296629824     0.000065068793     1.007825032230

  Basis Set: AUG-CC-PVTZ
    Blend: AUG-CC-PVTZ
  Basis Set: (AUG-CC-PVTZ AUX)
    Blend: AUG-CC-PVTZ-JKFIT
	 Reference Energy          =    -341.8376125156933654 [Eh]
	 Singles Energy            =      -0.0000000000000000 [Eh]
	 Same-Spin Energy          =      -0.3238753679301714 [Eh]
	 Opposite-Spin Energy      =      -1.0075944645548423 [Eh]
	 Correlation Energy        =      -1.3314698324850136 [Eh]
	 Total Energy              =    -343.1690823481783923 [Eh]

	 ================> DF-SCS-MP2 Energies <==================
	-----------------------------------------------------------
	 SCS Same-Spin Scale       =       0.3333333333333333 [-]
	 SCS Opposite-Spin Scale   =       1.2000000000000000 [-]
	 SCS Same-Spin Energy      =      -0.1079584559767238 [Eh]
	 SCS Opposite-Spin Energy  =      -1.2091133574658106 [Eh]
	 SCS Correlation Energy    =      -1.3170718134425343 [Eh]
	 SCS Total Energy          =    -343.1546843291358755 [Eh]
	-----------------------------------------------------------

  Dipole Moment: [D]
     X:     1.6701      Y:     0.5575      Z:    -0.0001     Total:     1.7607

*** Psi4 exiting successfully. Buy a developer a beer!
