                               Psi4 1.3.2 release

  ==> Input File <==

--------------------------------------------------------------------------
#psi4
#
memory 32 gb

molecule  {
0 1
  O        0.1794810    -0.4898030     0.0000350
  O       -1.9464530    -0.9505490     0.0000960
  O       -1.3135820     1.2425430    -0.0001270
  C        1.2564470     0.4820050    -0.0000540
  C        2.5435920    -0.3088610     0.0000600
  C       -0.9518572     0.0145253    -0.0000196
  H        1.1578850     1.1159710    -0.8848970
  H        1.1578520     1.1161750     0.8846380
  H        3.3970200     0.3747910    -0.0000030
  H        2.6040770    -0.9424360     0.8871280
  H        2.6041090    -0.9426420    -0.8868570
  H       -2.8175920    -0.5097070     0.0000630
units angstrom
no_reorient  #important for SAPT in psi4, default
symmetry c1  #important for SAPT in psi4, default
}

set PROPERTIES_ORIGIN ["COM"]
properties('MP2/aug-cc-pvtz', properties = ['dipole'])
--------------------------------------------------------------------------

    Molecular point group: c1
  Charge       = 0
  Multiplicity = 1
  Basis Set: AUG-CC-PVTZ
    Blend: AUG-CC-PVTZ
  Basis Set: (AUG-CC-PVTZ AUX)
    Blend: AUG-CC-PVTZ-JKFIT

    Orbital Energies [Eh]
    ---------------------

    Doubly Occupied:

       1A    -20.643307     2A    -20.609255     3A    -20.535385
       4A    -11.442789     5A    -11.313778     6A    -11.239666
       7A     -1.536526     8A     -1.406181     9A     -1.319278
      10A     -1.071683    11A     -0.914076    12A     -0.825960
      13A     -0.762412    14A     -0.726199    15A     -0.700860
      16A     -0.637386    17A     -0.626667    18A     -0.575747
      19A     -0.565700    20A     -0.551785    21A     -0.538171
      22A     -0.502827    23A     -0.459078    24A     -0.458044

  @DF-RHF Final Energy:  -341.83326906237158

   => Energetics <=

    Nuclear Repulsion Energy =            246.6046028539890074
    One-Electron Energy =                -956.9502250521798032
    Two-Electron Energy =                 368.5123531358191826
    Total Energy =                       -341.8332690623715848
  Basis Set: (AUG-CC-PVTZ AUX)
    Blend: AUG-CC-PVTZ-RI
    Molecular point group: c1

    Geometry (in Angstrom), charge = 0, multiplicity = 1:

       Center              X                  Y                   Z               Mass
    ------------   -----------------  -----------------  -----------------  -----------------
         O            0.256434529545    -0.482049126466     0.000035296084    15.994914619570
         O           -1.869499470455    -0.942795126466     0.000096296084    15.994914619570
         O           -1.236628470455     1.250296873534    -0.000126703916    15.994914619570
         C            1.333400529545     0.489758873534    -0.000053703916    12.000000000000
         C            2.620545529545    -0.301107126466     0.000060296084    12.000000000000
         C           -0.874903670455     0.022279173534    -0.000019303916    12.000000000000
         H            1.234838529545     1.123724873534    -0.884896703916     1.007825032230
         H            1.234805529545     1.123928873534     0.884638296084     1.007825032230
         H            3.473973529545     0.382544873534    -0.000002703916     1.007825032230
         H            2.681030529545    -0.934682126466     0.887128296084     1.007825032230
         H            2.681062529545    -0.934888126466    -0.886856703916     1.007825032230
         H           -2.740638470455    -0.501953126466     0.000063296084     1.007825032230

  Basis Set: AUG-CC-PVTZ
    Blend: AUG-CC-PVTZ
  Basis Set: (AUG-CC-PVTZ AUX)
    Blend: AUG-CC-PVTZ-JKFIT
	 Reference Energy          =    -341.8332690623715848 [Eh]
	 Singles Energy            =      -0.0000000000000000 [Eh]
	 Same-Spin Energy          =      -0.3242478245641625 [Eh]
	 Opposite-Spin Energy      =      -1.0072593656482307 [Eh]
	 Correlation Energy        =      -1.3315071902123932 [Eh]
	 Total Energy              =    -343.1647762525839767 [Eh]

	 ================> DF-SCS-MP2 Energies <==================
	-----------------------------------------------------------
	 SCS Same-Spin Scale       =       0.3333333333333333 [-]
	 SCS Opposite-Spin Scale   =       1.2000000000000000 [-]
	 SCS Same-Spin Energy      =      -0.1080826081880542 [Eh]
	 SCS Opposite-Spin Energy  =      -1.2087112387778769 [Eh]
	 SCS Correlation Energy    =      -1.3167938469659310 [Eh]
	 SCS Total Energy          =    -343.1500629093375210 [Eh]
	-----------------------------------------------------------

  Dipole Moment: [D]
     X:     2.0411      Y:    -0.4372      Z:     0.0000     Total:     2.0874

*** Psi4 exiting successfully. Buy a developer a beer!
