                               Psi4 1.3.2 release

  ==> Input File <==

--------------------------------------------------------------------------
#psi4
#
memory 32 gb

molecule  {
0 1
  O        0.1794810    -0.4898030     0.0000350
  O       -1.9464530    -0.9505490     0.0000960
  O       -1.3135820     1.2425430    -0.0001270
  C        1.2393226     0.5006526    -0.0000559
  C        2.5435920    -0.3088610     0.0000600
  C       -1.0431930     0.0552410    -0.0000240
  H        1.1578850     1.1159710    -0.8848970
  H        1.1578520     1.1161750     0.8846380
  H        3.3970200     0.3747910    -0.0000030
  H        2.6040770    -0.9424360     0.8871280
  H        2.6041090    -0.9426420    -0.8868570
  H       -2.8175920    -0.5097070     0.0000630
units angstrom
no_reorient  #important for SAPT in psi4, default
symmetry c1  #important for SAPT in psi4, default
}

set PROPERTIES_ORIGIN ["COM"]
properties('MP2/aug-cc-pvtz', properties = ['dipole'])
--------------------------------------------------------------------------

    Molecular point group: c1
  Charge       = 0
  Multiplicity = 1
  Basis Set: AUG-CC-PVTZ
    Blend: AUG-CC-PVTZ
  Basis Set: (AUG-CC-PVTZ AUX)
    Blend: AUG-CC-PVTZ-JKFIT

    Orbital Energies [Eh]
    ---------------------

    Doubly Occupied:

       1A    -20.624967     2A    -20.618188     3A    -20.554283
       4A    -11.441995     5A    -11.297636     6A    -11.230546
       7A     -1.508401     8A     -1.404077     9A     -1.366199
      10A     -1.044695    11A     -0.896418    12A     -0.821821
      13A     -0.744818    14A     -0.717483    15A     -0.706250
      16A     -0.635033    17A     -0.630915    18A     -0.592031
      19A     -0.550524    20A     -0.547426    21A     -0.519663
      22A     -0.499473    23A     -0.478851    24A     -0.477384

  @DF-RHF Final Energy:  -341.84865271126603

   => Energetics <=

    Nuclear Repulsion Energy =            246.0319804493379081
    One-Electron Energy =                -955.9431135319922532
    Two-Electron Energy =                 368.0624803713883466
    Total Energy =                       -341.8486527112660269
  Basis Set: (AUG-CC-PVTZ AUX)
    Blend: AUG-CC-PVTZ-RI
    Molecular point group: c1

    Geometry (in Angstrom), charge = 0, multiplicity = 1:

       Center              X                  Y                   Z               Mass
    ------------   -----------------  -----------------  -----------------  -----------------
         O            0.270890798681    -0.489961446760     0.000036135788    15.994914619570
         O           -1.855043201319    -0.950707446760     0.000097135788    15.994914619570
         O           -1.222172201319     1.242384553240    -0.000125864212    15.994914619570
         C            1.330732398681     0.500494153240    -0.000054764212    12.000000000000
         C            2.635001798681    -0.309019446760     0.000061135788    12.000000000000
         C           -0.951783201319     0.055082553240    -0.000022864212    12.000000000000
         H            1.249294798681     1.115812553240    -0.884895864212     1.007825032230
         H            1.249261798681     1.116016553240     0.884639135788     1.007825032230
         H            3.488429798681     0.374632553240    -0.000001864212     1.007825032230
         H            2.695486798681    -0.942594446760     0.887129135788     1.007825032230
         H            2.695518798681    -0.942800446760    -0.886855864212     1.007825032230
         H           -2.726182201319    -0.509865446760     0.000064135788     1.007825032230

  Basis Set: AUG-CC-PVTZ
    Blend: AUG-CC-PVTZ
  Basis Set: (AUG-CC-PVTZ AUX)
    Blend: AUG-CC-PVTZ-JKFIT
	 Reference Energy          =    -341.8486527112660269 [Eh]
	 Singles Energy            =      -0.0000000000000000 [Eh]
	 Same-Spin Energy          =      -0.3238359289198119 [Eh]
	 Opposite-Spin Energy      =      -1.0069121134478420 [Eh]
	 Correlation Energy        =      -1.3307480423676541 [Eh]
	 Total Energy              =    -343.1794007536336721 [Eh]

	 ================> DF-SCS-MP2 Energies <==================
	-----------------------------------------------------------
	 SCS Same-Spin Scale       =       0.3333333333333333 [-]
	 SCS Opposite-Spin Scale   =       1.2000000000000000 [-]
	 SCS Same-Spin Energy      =      -0.1079453096399373 [Eh]
	 SCS Opposite-Spin Energy  =      -1.2082945361374104 [Eh]
	 SCS Correlation Energy    =      -1.3162398457773477 [Eh]
	 SCS Total Energy          =    -343.1648925570434017 [Eh]
	-----------------------------------------------------------

  Dipole Moment: [D]
     X:     0.9025      Y:    -0.1308      Z:     0.0000     Total:     0.9119

*** Psi4 exiting successfully. Buy a developer a beer!
