                               Psi4 1.4a3.dev225

  ==> Input File <==

--------------------------------------------------------------------------
#psi4
#
memory 32 gb

molecule  {
0 1
  O        0.1794750    -0.4898220     0.0000470
  O       -1.9464210    -0.9505350     0.0000920
  O       -1.3136110     1.2425340    -0.0001370
  C        1.2564180     0.4819790    -0.0000510
  C        2.5436140    -0.3088020     0.0000540
  C       -1.0766214     0.0180466    -0.0000072
  H        1.1579040     1.1158880    -0.8849190
  H        1.1578830     1.1160920     0.8846680
  H        3.3970060     0.3748880    -0.0000150
  H        2.6041570    -0.9424410     0.8870860
  H        2.6041770    -0.9426460    -0.8868290
  H       -2.8175810    -0.5097500     0.0000430
units angstrom
no_reorient  #important for SAPT in psi4, default
symmetry c1  #important for SAPT in psi4, default
}

set PROPERTIES_ORIGIN ["COM"]
properties('MP2/aug-cc-pvtz', properties = ['dipole'])
--------------------------------------------------------------------------

    Molecular point group: c1
  Charge       = 0
  Multiplicity = 1
  Basis Set: AUG-CC-PVTZ
    Blend: AUG-CC-PVTZ
  Basis Set: (AUG-CC-PVTZ AUX)
    Blend: AUG-CC-PVTZ-JKFIT

    Orbital Energies [Eh]
    ---------------------

    Doubly Occupied:

       1A    -20.640260     2A    -20.611538     3A    -20.546601
       4A    -11.444458     5A    -11.295390     6A    -11.227999
       7A     -1.517885     8A     -1.411353     9A     -1.346353
      10A     -1.046284    11A     -0.902058    12A     -0.824998
      13A     -0.747835    14A     -0.723008    15A     -0.703316
      16A     -0.636903    17A     -0.632889    18A     -0.588981
      19A     -0.551082    20A     -0.548587    21A     -0.518534
      22A     -0.491429    23A     -0.471275    24A     -0.466467

  @DF-RHF Final Energy:  -341.84491611752458

   => Energetics <=

    Nuclear Repulsion Energy =            245.8755579411497365
    One-Electron Energy =                -955.6499819684725026
    Two-Electron Energy =                 367.9295079097981898
    Total Energy =                       -341.8449161175245763
  Basis Set: (AUG-CC-PVTZ AUX)
    Blend: AUG-CC-PVTZ-RI
    Molecular point group: c1

    Geometry (in Angstrom), charge = 0, multiplicity = 1:

       Center              X                  Y                   Z               Mass
    ------------   -----------------  -----------------  -----------------  -----------------
         O            0.273057183206    -0.482538024592     0.000046823886    15.994914619570
         O           -1.852838816794    -0.943251024592     0.000091823886    15.994914619570
         O           -1.220028816794     1.249817975408    -0.000137176114    15.994914619570
         C            1.350000183206     0.489262975408    -0.000051176114    12.000000000000
         C            2.637196183206    -0.301518024592     0.000053823886    12.000000000000
         C           -0.983039216794     0.025330575408    -0.000007376114    12.000000000000
         H            1.251486183206     1.123171975408    -0.884919176114     1.007825032230
         H            1.251465183206     1.123375975408     0.884667823886     1.007825032230
         H            3.490588183206     0.382171975408    -0.000015176114     1.007825032230
         H            2.697739183206    -0.935157024592     0.887085823886     1.007825032230
         H            2.697759183206    -0.935362024592    -0.886829176114     1.007825032230
         H           -2.723998816794    -0.502466024592     0.000042823886     1.007825032230

  Basis Set: AUG-CC-PVTZ
    Blend: AUG-CC-PVTZ
  Basis Set: (AUG-CC-PVTZ AUX)
    Blend: AUG-CC-PVTZ-JKFIT
	 Reference Energy          =    -341.8449161175245763 [Eh]
	 Singles Energy            =      -0.0000000000000000 [Eh]
	 Same-Spin Energy          =      -0.3241787942907650 [Eh]
	 Opposite-Spin Energy      =      -1.0069706656824984 [Eh]
	 Correlation Energy        =      -1.3311494599732634 [Eh]
	 Total Energy              =    -343.1760655774978659 [Eh]

	 ================> DF-SCS-MP2 Energies <==================
	-----------------------------------------------------------
	 SCS Same-Spin Scale       =       0.3333333333333333 [-]
	 SCS Opposite-Spin Scale   =       1.2000000000000000 [-]
	 SCS Same-Spin Energy      =      -0.1080595980969217 [Eh]
	 SCS Opposite-Spin Energy  =      -1.2083647988189981 [Eh]
	 SCS Correlation Energy    =      -1.3164243969159197 [Eh]
	 SCS Total Energy          =    -343.1613405144404965 [Eh]
	-----------------------------------------------------------

  Dipole Moment: [D]
     X:     0.5926      Y:    -0.5037      Z:     0.0001     Total:     0.7777

*** Psi4 exiting successfully. Buy a developer a beer!
