                               Psi4 1.3.2 release

  ==> Input File <==

--------------------------------------------------------------------------
#psi4
#
memory 32 gb

molecule  {
0 1
  O        0.1794810    -0.4898030     0.0000350
  O       -1.9464530    -0.9505490     0.0000960
  O       -1.3135820     1.2425430    -0.0001270
  C        1.3306893     0.5489981    -0.0000601
  C        2.5435920    -0.3088610     0.0000600
  C       -1.0431930     0.0552410    -0.0000240
  H        1.1578850     1.1159710    -0.8848970
  H        1.1578520     1.1161750     0.8846380
  H        3.3970200     0.3747910    -0.0000030
  H        2.6040770    -0.9424360     0.8871280
  H        2.6041090    -0.9426420    -0.8868570
  H       -2.8175920    -0.5097070     0.0000630
units angstrom
no_reorient  #important for SAPT in psi4, default
symmetry c1  #important for SAPT in psi4, default
}

set PROPERTIES_ORIGIN ["COM"]
properties('MP2/aug-cc-pvtz', properties = ['dipole'])
--------------------------------------------------------------------------

    Molecular point group: c1
  Charge       = 0
  Multiplicity = 1
  Basis Set: AUG-CC-PVTZ
    Blend: AUG-CC-PVTZ
  Basis Set: (AUG-CC-PVTZ AUX)
    Blend: AUG-CC-PVTZ-JKFIT

    Orbital Energies [Eh]
    ---------------------

    Doubly Occupied:

       1A    -20.618699     2A    -20.603470     3A    -20.546832
       4A    -11.433616     5A    -11.303967     6A    -11.234316
       7A     -1.494491     8A     -1.383381     9A     -1.355700
      10A     -1.058628    11A     -0.888711    12A     -0.821698
      13A     -0.729727    14A     -0.709948    15A     -0.697901
      16A     -0.636882    17A     -0.625877    18A     -0.586881
      19A     -0.548853    20A     -0.543862    21A     -0.532533
      22A     -0.503453    23A     -0.472932    24A     -0.470907

  @DF-RHF Final Energy:  -341.84102481482023

   => Energetics <=

    Nuclear Repulsion Energy =            244.6730307500514243
    One-Electron Energy =                -953.4215811020028468
    Two-Electron Energy =                 366.9075255371311641
    Total Energy =                       -341.8410248148202299
  Basis Set: (AUG-CC-PVTZ AUX)
    Blend: AUG-CC-PVTZ-RI
    Molecular point group: c1

    Geometry (in Angstrom), charge = 0, multiplicity = 1:

       Center              X                  Y                   Z               Mass
    ------------   -----------------  -----------------  -----------------  -----------------
         O            0.258712860550    -0.496405244204     0.000036695591    15.994914619570
         O           -1.867221139450    -0.957151244204     0.000097695591    15.994914619570
         O           -1.234350139450     1.235940755796    -0.000125304409    15.994914619570
         C            1.409921160550     0.542395855796    -0.000058404409    12.000000000000
         C            2.622823860550    -0.315463244204     0.000061695591    12.000000000000
         C           -0.963961139450     0.048638755796    -0.000022304409    12.000000000000
         H            1.237116860550     1.109368755796    -0.884895304409     1.007825032230
         H            1.237083860550     1.109572755796     0.884639695591     1.007825032230
         H            3.476251860550     0.368188755796    -0.000001304409     1.007825032230
         H            2.683308860550    -0.949038244204     0.887129695591     1.007825032230
         H            2.683340860550    -0.949244244204    -0.886855304409     1.007825032230
         H           -2.738360139450    -0.516309244204     0.000064695591     1.007825032230

  Basis Set: AUG-CC-PVTZ
    Blend: AUG-CC-PVTZ
  Basis Set: (AUG-CC-PVTZ AUX)
    Blend: AUG-CC-PVTZ-JKFIT
	 Reference Energy          =    -341.8410248148202299 [Eh]
	 Singles Energy            =      -0.0000000000000000 [Eh]
	 Same-Spin Energy          =      -0.3242192416335575 [Eh]
	 Opposite-Spin Energy      =      -1.0080445589485225 [Eh]
	 Correlation Energy        =      -1.3322638005820799 [Eh]
	 Total Energy              =    -343.1732886154023277 [Eh]

	 ================> DF-SCS-MP2 Energies <==================
	-----------------------------------------------------------
	 SCS Same-Spin Scale       =       0.3333333333333333 [-]
	 SCS Opposite-Spin Scale   =       1.2000000000000000 [-]
	 SCS Same-Spin Energy      =      -0.1080730805445192 [Eh]
	 SCS Opposite-Spin Energy  =      -1.2096534707382269 [Eh]
	 SCS Correlation Energy    =      -1.3177265512827461 [Eh]
	 SCS Total Energy          =    -343.1587513661029902 [Eh]
	-----------------------------------------------------------

  Dipole Moment: [D]
     X:     1.3826      Y:    -0.0219      Z:     0.0000     Total:     1.3828

*** Psi4 exiting successfully. Buy a developer a beer!
