                               Psi4 1.3.2 release

  ==> Input File <==

--------------------------------------------------------------------------
#psi4
#
memory 32 gb

molecule  {
0 1
  O        0.1794810    -0.4898030     0.0000350
  O       -1.9464530    -0.9505490     0.0000960
  O       -1.3135820     1.2425430    -0.0001270
  C        1.2564470     0.4820050    -0.0000540
  C        2.5435920    -0.3088610     0.0000600
  C       -1.1100097    -0.0191601    -0.0000151
  H        1.1578850     1.1159710    -0.8848970
  H        1.1578520     1.1161750     0.8846380
  H        3.3970200     0.3747910    -0.0000030
  H        2.6040770    -0.9424360     0.8871280
  H        2.6041090    -0.9426420    -0.8868570
  H       -2.8175920    -0.5097070     0.0000630
units angstrom
no_reorient  #important for SAPT in psi4, default
symmetry c1  #important for SAPT in psi4, default
}

set PROPERTIES_ORIGIN ["COM"]
properties('MP2/aug-cc-pvtz', properties = ['dipole'])
--------------------------------------------------------------------------

    Molecular point group: c1
  Charge       = 0
  Multiplicity = 1
  Basis Set: AUG-CC-PVTZ
    Blend: AUG-CC-PVTZ
  Basis Set: (AUG-CC-PVTZ AUX)
    Blend: AUG-CC-PVTZ-JKFIT

    Orbital Energies [Eh]
    ---------------------

    Doubly Occupied:

       1A    -20.655707     2A    -20.605613     3A    -20.539101
       4A    -11.446895     5A    -11.292063     6A    -11.225709
       7A     -1.540458     8A     -1.411522     9A     -1.324958
      10A     -1.043064    11A     -0.910886    12A     -0.831892
      13A     -0.749969    14A     -0.731851    15A     -0.706714
      16A     -0.644088    17A     -0.627571    18A     -0.583919
      19A     -0.548472    20A     -0.547715    21A     -0.512206
      22A     -0.485397    23A     -0.462100    24A     -0.457516

  @DF-RHF Final Energy:  -341.83258273895655

   => Energetics <=

    Nuclear Repulsion Energy =            245.7307067663622604
    One-Electron Energy =                -955.3558116039499737
    Two-Electron Energy =                 367.7925220986311956
    Total Energy =                       -341.8325827389565461
  Basis Set: (AUG-CC-PVTZ AUX)
    Blend: AUG-CC-PVTZ-RI
    Molecular point group: c1

    Geometry (in Angstrom), charge = 0, multiplicity = 1:

       Center              X                  Y                   Z               Mass
    ------------   -----------------  -----------------  -----------------  -----------------
         O            0.277514106243    -0.477559320912     0.000034696295    15.994914619570
         O           -1.848419893757    -0.938305320912     0.000095696295    15.994914619570
         O           -1.215548893757     1.254786679088    -0.000127303705    15.994914619570
         C            1.354480106243     0.494248679088    -0.000054303705    12.000000000000
         C            2.641625106243    -0.296617320912     0.000059696295    12.000000000000
         C           -1.011976593757    -0.006916420912    -0.000015403705    12.000000000000
         H            1.255918106243     1.128214679088    -0.884897303705     1.007825032230
         H            1.255885106243     1.128418679088     0.884637696295     1.007825032230
         H            3.495053106243     0.387034679088    -0.000003303705     1.007825032230
         H            2.702110106243    -0.930192320912     0.887127696295     1.007825032230
         H            2.702142106243    -0.930398320912    -0.886857303705     1.007825032230
         H           -2.719558893757    -0.497463320912     0.000062696295     1.007825032230

  Basis Set: AUG-CC-PVTZ
    Blend: AUG-CC-PVTZ
  Basis Set: (AUG-CC-PVTZ AUX)
    Blend: AUG-CC-PVTZ-JKFIT
	 Reference Energy          =    -341.8325827389565461 [Eh]
	 Singles Energy            =      -0.0000000000000000 [Eh]
	 Same-Spin Energy          =      -0.3245292992312248 [Eh]
	 Opposite-Spin Energy      =      -1.0073163241287508 [Eh]
	 Correlation Energy        =      -1.3318456233599756 [Eh]
	 Total Energy              =    -343.1644283623165279 [Eh]

	 ================> DF-SCS-MP2 Energies <==================
	-----------------------------------------------------------
	 SCS Same-Spin Scale       =       0.3333333333333333 [-]
	 SCS Opposite-Spin Scale   =       1.2000000000000000 [-]
	 SCS Same-Spin Energy      =      -0.1081764330770749 [Eh]
	 SCS Opposite-Spin Energy  =      -1.2087795889545010 [Eh]
	 SCS Correlation Energy    =      -1.3169560220315759 [Eh]
	 SCS Total Energy          =    -343.1495387609880936 [Eh]
	-----------------------------------------------------------

  Dipole Moment: [D]
     X:     0.2358      Y:    -0.8557      Z:     0.0001     Total:     0.8876

*** Psi4 exiting successfully. Buy a developer a beer!
