                               Psi4 1.3.2 release

  ==> Input File <==

--------------------------------------------------------------------------
#psi4
#
memory 32 gb

molecule  {
0 1
  O        0.1794810    -0.4898030     0.0000350
  O       -1.9464530    -0.9505490     0.0000960
  O       -1.3135820     1.2425430    -0.0001270
  C        1.2564470     0.4820050    -0.0000540
  C        2.5435920    -0.3088610     0.0000600
  C       -1.2258646     0.1366724    -0.0000328
  H        1.1578850     1.1159710    -0.8848970
  H        1.1578520     1.1161750     0.8846380
  H        3.3970200     0.3747910    -0.0000030
  H        2.6040770    -0.9424360     0.8871280
  H        2.6041090    -0.9426420    -0.8868570
  H       -2.8175920    -0.5097070     0.0000630
units angstrom
no_reorient  #important for SAPT in psi4, default
symmetry c1  #important for SAPT in psi4, default
}

set PROPERTIES_ORIGIN ["COM"]
properties('MP2/aug-cc-pvtz', properties = ['dipole'])
--------------------------------------------------------------------------

    Molecular point group: c1
  Charge       = 0
  Multiplicity = 1
  Basis Set: AUG-CC-PVTZ
    Blend: AUG-CC-PVTZ
  Basis Set: (AUG-CC-PVTZ AUX)
    Blend: AUG-CC-PVTZ-JKFIT

    Orbital Energies [Eh]
    ---------------------

    Doubly Occupied:

       1A    -20.655973     2A    -20.592171     3A    -20.561044
       4A    -11.444232     5A    -11.270658     6A    -11.212172
       7A     -1.546775     8A     -1.461279     9A     -1.327740
      10A     -1.012885    11A     -0.874949    12A     -0.810400
      13A     -0.761580    14A     -0.739179    15A     -0.706770
      16A     -0.648137    17A     -0.632970    18A     -0.581615
      19A     -0.550819    20A     -0.534366    21A     -0.517799
      22A     -0.513048    23A     -0.457874    24A     -0.441027

  @DF-RHF Final Energy:  -341.80089121945593

   => Energetics <=

    Nuclear Repulsion Energy =            245.4399610778914393
    One-Electron Energy =                -954.7707831945757562
    Two-Electron Energy =                 367.5299308972283825
    Total Energy =                       -341.8008912194559343
  Basis Set: (AUG-CC-PVTZ AUX)
    Blend: AUG-CC-PVTZ-RI
    Molecular point group: c1

    Geometry (in Angstrom), charge = 0, multiplicity = 1:

       Center              X                  Y                   Z               Mass
    ------------   -----------------  -----------------  -----------------  -----------------
         O            0.292955988289    -0.498329673171     0.000037055464    15.994914619570
         O           -1.832978011711    -0.959075673171     0.000098055464    15.994914619570
         O           -1.200107011711     1.234016326829    -0.000124944536    15.994914619570
         C            1.369921988289     0.473478326829    -0.000051944536    12.000000000000
         C            2.657066988289    -0.317387673171     0.000062055464    12.000000000000
         C           -1.112389611711     0.128145726829    -0.000030744536    12.000000000000
         H            1.271359988289     1.107444326829    -0.884894944536     1.007825032230
         H            1.271326988289     1.107648326829     0.884640055464     1.007825032230
         H            3.510494988289     0.366264326829    -0.000000944536     1.007825032230
         H            2.717551988289    -0.950962673171     0.887130055464     1.007825032230
         H            2.717583988289    -0.951168673171    -0.886854944536     1.007825032230
         H           -2.704117011711    -0.518233673171     0.000065055464     1.007825032230

  Basis Set: AUG-CC-PVTZ
    Blend: AUG-CC-PVTZ
  Basis Set: (AUG-CC-PVTZ AUX)
    Blend: AUG-CC-PVTZ-JKFIT
	 Reference Energy          =    -341.8008912194559343 [Eh]
	 Singles Energy            =      -0.0000000000000000 [Eh]
	 Same-Spin Energy          =      -0.3248771552656967 [Eh]
	 Opposite-Spin Energy      =      -1.0095399936635530 [Eh]
	 Correlation Energy        =      -1.3344171489292496 [Eh]
	 Total Energy              =    -343.1353083683852105 [Eh]

	 ================> DF-SCS-MP2 Energies <==================
	-----------------------------------------------------------
	 SCS Same-Spin Scale       =       0.3333333333333333 [-]
	 SCS Opposite-Spin Scale   =       1.2000000000000000 [-]
	 SCS Same-Spin Energy      =      -0.1082923850885656 [Eh]
	 SCS Opposite-Spin Energy  =      -1.2114479923962636 [Eh]
	 SCS Correlation Energy    =      -1.3197403774848291 [Eh]
	 SCS Total Energy          =    -343.1206315969407683 [Eh]
	-----------------------------------------------------------

  Dipole Moment: [D]
     X:    -1.1934      Y:     0.4606      Z:    -0.0000     Total:     1.2792

*** Psi4 exiting successfully. Buy a developer a beer!
