                               Psi4 1.3.2 release

  ==> Input File <==

--------------------------------------------------------------------------
#psi4
#
memory 32 gb

molecule  {
0 1
  O        0.1888071    -0.4683814     0.0000333
  O       -1.9464530    -0.9505490     0.0000960
  O       -1.3135820     1.2425430    -0.0001270
  C        1.2564470     0.4820050    -0.0000540
  C        2.5435920    -0.3088610     0.0000600
  C       -1.0431930     0.0552410    -0.0000240
  H        1.1578850     1.1159710    -0.8848970
  H        1.1578520     1.1161750     0.8846380
  H        3.3970200     0.3747910    -0.0000030
  H        2.6040770    -0.9424360     0.8871280
  H        2.6041090    -0.9426420    -0.8868570
  H       -2.8175920    -0.5097070     0.0000630
units angstrom
no_reorient  #important for SAPT in psi4, default
symmetry c1  #important for SAPT in psi4, default
}

set PROPERTIES_ORIGIN ["COM"]
properties('MP2/aug-cc-pvtz', properties = ['dipole'])
--------------------------------------------------------------------------

    Molecular point group: c1
  Charge       = 0
  Multiplicity = 1
  Basis Set: AUG-CC-PVTZ
    Blend: AUG-CC-PVTZ
  Basis Set: (AUG-CC-PVTZ AUX)
    Blend: AUG-CC-PVTZ-JKFIT

    Orbital Energies [Eh]
    ---------------------

    Doubly Occupied:

       1A    -20.626938     2A    -20.616842     3A    -20.553702
       4A    -11.443145     5A    -11.296442     6A    -11.229489
       7A     -1.509690     8A     -1.408338     9A     -1.365917
      10A     -1.049875    11A     -0.900226    12A     -0.818114
      13A     -0.749149    14A     -0.717437    15A     -0.707157
      16A     -0.636874    17A     -0.630456    18A     -0.594616
      19A     -0.554030    20A     -0.548731    21A     -0.521420
      22A     -0.496711    23A     -0.478281    24A     -0.472448

  @DF-RHF Final Energy:  -341.84990176180531

   => Energetics <=

    Nuclear Repulsion Energy =            246.3935675155863407
    One-Electron Energy =                -956.6348813100098596
    Two-Electron Energy =                 368.3914120326181774
    Total Energy =                       -341.8499017618053131
  Basis Set: (AUG-CC-PVTZ AUX)
    Blend: AUG-CC-PVTZ-RI
    Molecular point group: c1

    Geometry (in Angstrom), charge = 0, multiplicity = 1:

       Center              X                  Y                   Z               Mass
    ------------   -----------------  -----------------  -----------------  -----------------
         O            0.276277586232    -0.469860109189     0.000034484564    15.994914619570
         O           -1.858982513768    -0.952027709189     0.000097184564    15.994914619570
         O           -1.226111513768     1.241064290811    -0.000125815436    15.994914619570
         C            1.343917486232     0.480526290811    -0.000052815436    12.000000000000
         C            2.631062486232    -0.310339709189     0.000061184564    12.000000000000
         C           -0.955722513768     0.053762290811    -0.000022815436    12.000000000000
         H            1.245355486232     1.114492290811    -0.884895815436     1.007825032230
         H            1.245322486232     1.114696290811     0.884639184564     1.007825032230
         H            3.484490486232     0.373312290811    -0.000001815436     1.007825032230
         H            2.691547486232    -0.943914709189     0.887129184564     1.007825032230
         H            2.691579486232    -0.944120709189    -0.886855815436     1.007825032230
         H           -2.730121513768    -0.511185709189     0.000064184564     1.007825032230

  Basis Set: AUG-CC-PVTZ
    Blend: AUG-CC-PVTZ
  Basis Set: (AUG-CC-PVTZ AUX)
    Blend: AUG-CC-PVTZ-JKFIT
	 Reference Energy          =    -341.8499017618053131 [Eh]
	 Singles Energy            =      -0.0000000000000000 [Eh]
	 Same-Spin Energy          =      -0.3237754184871853 [Eh]
	 Opposite-Spin Energy      =      -1.0062666069272437 [Eh]
	 Correlation Energy        =      -1.3300420254144290 [Eh]
	 Total Energy              =    -343.1799437872197700 [Eh]

	 ================> DF-SCS-MP2 Energies <==================
	-----------------------------------------------------------
	 SCS Same-Spin Scale       =       0.3333333333333333 [-]
	 SCS Opposite-Spin Scale   =       1.2000000000000000 [-]
	 SCS Same-Spin Energy      =      -0.1079251394957284 [Eh]
	 SCS Opposite-Spin Energy  =      -1.2075199283126923 [Eh]
	 SCS Correlation Energy    =      -1.3154450678084206 [Eh]
	 SCS Total Energy          =    -343.1653468296137248 [Eh]
	-----------------------------------------------------------

  Dipole Moment: [D]
     X:     0.8813      Y:    -0.2115      Z:     0.0000     Total:     0.9063

*** Psi4 exiting successfully. Buy a developer a beer!
