                               Psi4 1.3.2 release

  ==> Input File <==

--------------------------------------------------------------------------
#psi4
#
memory 32 gb

molecule  {
0 1
  O        0.1794810    -0.4898030     0.0000350
  O       -1.9464530    -0.9505490     0.0000960
  O       -1.3135820     1.2425430    -0.0001270
  C        1.2564470     0.4820050    -0.0000540
  C        2.5435920    -0.3088610     0.0000600
  C       -1.0876027     0.2502481    -0.0000409
  H        1.1578850     1.1159710    -0.8848970
  H        1.1578520     1.1161750     0.8846380
  H        3.3970200     0.3747910    -0.0000030
  H        2.6040770    -0.9424360     0.8871280
  H        2.6041090    -0.9426420    -0.8868570
  H       -2.8175920    -0.5097070     0.0000630
units angstrom
no_reorient  #important for SAPT in psi4, default
symmetry c1  #important for SAPT in psi4, default
}

set PROPERTIES_ORIGIN ["COM"]
properties('MP2/aug-cc-pvtz', properties = ['dipole'])
--------------------------------------------------------------------------

    Molecular point group: c1
  Charge       = 0
  Multiplicity = 1
  Basis Set: AUG-CC-PVTZ
    Blend: AUG-CC-PVTZ
  Basis Set: (AUG-CC-PVTZ AUX)
    Blend: AUG-CC-PVTZ-JKFIT

    Orbital Energies [Eh]
    ---------------------

    Doubly Occupied:

       1A    -20.608367     2A    -20.595592     3A    -20.589344
       4A    -11.426278     5A    -11.285581     6A    -11.222049
       7A     -1.604958     8A     -1.395405     9A     -1.345905
      10A     -1.026686    11A     -0.862004    12A     -0.803144
      13A     -0.764852    14A     -0.748149    15A     -0.725659
      16A     -0.645681    17A     -0.632985    18A     -0.585808
      19A     -0.546370    20A     -0.535513    21A     -0.522728
      22A     -0.521846    23A     -0.476379    24A     -0.461714

  @DF-RHF Final Energy:  -341.75619477922498

   => Energetics <=

    Nuclear Repulsion Energy =            246.7258305820414535
    One-Electron Energy =                -957.0980560989567039
    Two-Electron Energy =                 368.6160307376902665
    Total Energy =                       -341.7561947792249839
  Basis Set: (AUG-CC-PVTZ AUX)
    Blend: AUG-CC-PVTZ-RI
    Molecular point group: c1

    Geometry (in Angstrom), charge = 0, multiplicity = 1:

       Center              X                  Y                   Z               Mass
    ------------   -----------------  -----------------  -----------------  -----------------
         O            0.274527557974    -0.513467768865     0.000038135084    15.994914619570
         O           -1.851406442026    -0.974213768865     0.000099135084    15.994914619570
         O           -1.218535442026     1.218878231135    -0.000123864916    15.994914619570
         C            1.351493557974     0.458340231135    -0.000050864916    12.000000000000
         C            2.638638557974    -0.332525768865     0.000063135084    12.000000000000
         C           -0.992556142026     0.226583331135    -0.000037764916    12.000000000000
         H            1.252931557974     1.092306231135    -0.884893864916     1.007825032230
         H            1.252898557974     1.092510231135     0.884641135084     1.007825032230
         H            3.492066557974     0.351126231135     0.000000135084     1.007825032230
         H            2.699123557974    -0.966100768865     0.887131135084     1.007825032230
         H            2.699155557974    -0.966306768865    -0.886853864916     1.007825032230
         H           -2.722545442026    -0.533371768865     0.000066135084     1.007825032230

  Basis Set: AUG-CC-PVTZ
    Blend: AUG-CC-PVTZ
  Basis Set: (AUG-CC-PVTZ AUX)
    Blend: AUG-CC-PVTZ-JKFIT
	 Reference Energy          =    -341.7561947792249839 [Eh]
	 Singles Energy            =      -0.0000000000000000 [Eh]
	 Same-Spin Energy          =      -0.3230131862756015 [Eh]
	 Opposite-Spin Energy      =      -1.0072987800975950 [Eh]
	 Correlation Energy        =      -1.3303119663731966 [Eh]
	 Total Energy              =    -343.0865067455981716 [Eh]

	 ================> DF-SCS-MP2 Energies <==================
	-----------------------------------------------------------
	 SCS Same-Spin Scale       =       0.3333333333333333 [-]
	 SCS Opposite-Spin Scale   =       1.2000000000000000 [-]
	 SCS Same-Spin Energy      =      -0.1076710620918672 [Eh]
	 SCS Opposite-Spin Energy  =      -1.2087585361171140 [Eh]
	 SCS Correlation Energy    =      -1.3164295982089813 [Eh]
	 SCS Total Energy          =    -343.0726243774339537 [Eh]
	-----------------------------------------------------------

  Dipole Moment: [D]
     X:     0.3185      Y:     1.5926      Z:    -0.0002     Total:     1.6241

*** Psi4 exiting successfully. Buy a developer a beer!
