                               Psi4 1.3.2 release

  ==> Input File <==

--------------------------------------------------------------------------
#psi4
#
memory 32 gb

molecule  {
0 1
  O        0.1597144    -0.5321417     0.0000400
  O       -1.9464530    -0.9505490     0.0000960
  O       -1.3135820     1.2425430    -0.0001270
  C        1.2564470     0.4820050    -0.0000540
  C        2.5435920    -0.3088610     0.0000600
  C       -1.0431930     0.0552410    -0.0000240
  H        1.1578850     1.1159710    -0.8848970
  H        1.1578520     1.1161750     0.8846380
  H        3.3970200     0.3747910    -0.0000030
  H        2.6040770    -0.9424360     0.8871280
  H        2.6041090    -0.9426420    -0.8868570
  H       -2.8175920    -0.5097070     0.0000630
units angstrom
no_reorient  #important for SAPT in psi4, default
symmetry c1  #important for SAPT in psi4, default
}

set PROPERTIES_ORIGIN ["COM"]
properties('MP2/aug-cc-pvtz', properties = ['dipole'])
--------------------------------------------------------------------------

    Molecular point group: c1
  Charge       = 0
  Multiplicity = 1
  Basis Set: AUG-CC-PVTZ
    Blend: AUG-CC-PVTZ
  Basis Set: (AUG-CC-PVTZ AUX)
    Blend: AUG-CC-PVTZ-JKFIT

    Orbital Energies [Eh]
    ---------------------

    Doubly Occupied:

       1A    -20.620747     2A    -20.617689     3A    -20.554521
       4A    -11.440017     5A    -11.303309     6A    -11.231758
       7A     -1.504466     8A     -1.394169     9A     -1.365877
      10A     -1.048994    11A     -0.891093    12A     -0.821229
      13A     -0.737395    14A     -0.716218    15A     -0.700158
      16A     -0.630972    17A     -0.630047    18A     -0.590003
      19A     -0.550476    20A     -0.545067    21A     -0.529298
      22A     -0.497358    23A     -0.478460    24A     -0.478349

  @DF-RHF Final Energy:  -341.84563996382451

   => Energetics <=

    Nuclear Repulsion Energy =            245.4382595481456804
    One-Electron Energy =                -954.8124597848820940
    Two-Electron Energy =                 367.5285602729119319
    Total Energy =                       -341.8456399638245102
  Basis Set: (AUG-CC-PVTZ AUX)
    Blend: AUG-CC-PVTZ-RI
    Molecular point group: c1

    Geometry (in Angstrom), charge = 0, multiplicity = 1:

       Center              X                  Y                   Z               Mass
    ------------   -----------------  -----------------  -----------------  -----------------
         O            0.252353457783    -0.522292836545     0.000039994251    15.994914619570
         O           -1.853813942217    -0.940700136545     0.000095994251    15.994914619570
         O           -1.220942942217     1.252391863455    -0.000127005749    15.994914619570
         C            1.349086057783     0.491853863455    -0.000054005749    12.000000000000
         C            2.636231057783    -0.299012136545     0.000059994251    12.000000000000
         C           -0.950553942217     0.065089863455    -0.000024005749    12.000000000000
         H            1.250524057783     1.125819863455    -0.884897005749     1.007825032230
         H            1.250491057783     1.126023863455     0.884637994251     1.007825032230
         H            3.489659057783     0.384639863455    -0.000003005749     1.007825032230
         H            2.696716057783    -0.932587136545     0.887127994251     1.007825032230
         H            2.696748057783    -0.932793136545    -0.886857005749     1.007825032230
         H           -2.724952942217    -0.499858136545     0.000062994251     1.007825032230

  Basis Set: AUG-CC-PVTZ
    Blend: AUG-CC-PVTZ
  Basis Set: (AUG-CC-PVTZ AUX)
    Blend: AUG-CC-PVTZ-JKFIT
	 Reference Energy          =    -341.8456399638245102 [Eh]
	 Singles Energy            =      -0.0000000000000000 [Eh]
	 Same-Spin Energy          =      -0.3243089331370448 [Eh]
	 Opposite-Spin Energy      =      -1.0082349298545021 [Eh]
	 Correlation Energy        =      -1.3325438629915469 [Eh]
	 Total Energy              =    -343.1781838268160527 [Eh]

	 ================> DF-SCS-MP2 Energies <==================
	-----------------------------------------------------------
	 SCS Same-Spin Scale       =       0.3333333333333333 [-]
	 SCS Opposite-Spin Scale   =       1.2000000000000000 [-]
	 SCS Same-Spin Energy      =      -0.1081029777123483 [Eh]
	 SCS Opposite-Spin Energy  =      -1.2098819158254026 [Eh]
	 SCS Correlation Energy    =      -1.3179848935377509 [Eh]
	 SCS Total Energy          =    -343.1636248573622652 [Eh]
	-----------------------------------------------------------

  Dipole Moment: [D]
     X:     1.0822      Y:    -0.0438      Z:     0.0000     Total:     1.0831

*** Psi4 exiting successfully. Buy a developer a beer!
