                               Psi4 1.3.2 release

  ==> Input File <==

--------------------------------------------------------------------------
#psi4
#
memory 32 gb

molecule  {
0 1
  O        0.1794810    -0.4898030     0.0000350
  O       -1.9464530    -0.9505490     0.0000960
  O       -1.3135820     1.2425430    -0.0001270
  C        1.2564470     0.4820050    -0.0000540
  C        2.5435920    -0.3088610     0.0000600
  C       -0.9095596     0.2040433    -0.0000418
  H        1.1578850     1.1159710    -0.8848970
  H        1.1578520     1.1161750     0.8846380
  H        3.3970200     0.3747910    -0.0000030
  H        2.6040770    -0.9424360     0.8871280
  H        2.6041090    -0.9426420    -0.8868570
  H       -2.8175920    -0.5097070     0.0000630
units angstrom
no_reorient  #important for SAPT in psi4, default
symmetry c1  #important for SAPT in psi4, default
}

set PROPERTIES_ORIGIN ["COM"]
properties('MP2/aug-cc-pvtz', properties = ['dipole'])
--------------------------------------------------------------------------

    Molecular point group: c1
  Charge       = 0
  Multiplicity = 1
  Basis Set: AUG-CC-PVTZ
    Blend: AUG-CC-PVTZ
  Basis Set: (AUG-CC-PVTZ AUX)
    Blend: AUG-CC-PVTZ-JKFIT

    Orbital Energies [Eh]
    ---------------------

    Doubly Occupied:

       1A    -20.640959     2A    -20.586507     3A    -20.558663
       4A    -11.439384     5A    -11.313179     6A    -11.239656
       7A     -1.538561     8A     -1.456191     9A     -1.311197
      10A     -1.061624    11A     -0.894620    12A     -0.825125
      13A     -0.738391    14A     -0.729665    15A     -0.723480
      16A     -0.634557    17A     -0.616559    18A     -0.601747
      19A     -0.558105    20A     -0.549856    21A     -0.543451
      22A     -0.502810    23A     -0.480718    24A     -0.468844

  @DF-RHF Final Energy:  -341.80359575213686

   => Energetics <=

    Nuclear Repulsion Energy =            247.1149426301837195
    One-Electron Energy =                -957.8093774035771730
    Two-Electron Energy =                 368.8908390212566246
    Total Energy =                       -341.8035957521368573
  Basis Set: (AUG-CC-PVTZ AUX)
    Blend: AUG-CC-PVTZ-RI
    Molecular point group: c1

    Geometry (in Angstrom), charge = 0, multiplicity = 1:

       Center              X                  Y                   Z               Mass
    ------------   -----------------  -----------------  -----------------  -----------------
         O            0.250796834894    -0.507309297608     0.000038255042    15.994914619570
         O           -1.875137165106    -0.968055297608     0.000099255042    15.994914619570
         O           -1.242266165106     1.225036702392    -0.000123744958    15.994914619570
         C            1.327762834894     0.464498702392    -0.000050744958    12.000000000000
         C            2.614907834894    -0.326367297608     0.000063255042    12.000000000000
         C           -0.838243765106     0.186537002392    -0.000038544958    12.000000000000
         H            1.229200834894     1.098464702392    -0.884893744958     1.007825032230
         H            1.229167834894     1.098668702392     0.884641255042     1.007825032230
         H            3.468335834894     0.357284702392     0.000000255042     1.007825032230
         H            2.675392834894    -0.959942297608     0.887131255042     1.007825032230
         H            2.675424834894    -0.960148297608    -0.886853744958     1.007825032230
         H           -2.746276165106    -0.527213297608     0.000066255042     1.007825032230

  Basis Set: AUG-CC-PVTZ
    Blend: AUG-CC-PVTZ
  Basis Set: (AUG-CC-PVTZ AUX)
    Blend: AUG-CC-PVTZ-JKFIT
	 Reference Energy          =    -341.8035957521368573 [Eh]
	 Singles Energy            =      -0.0000000000000000 [Eh]
	 Same-Spin Energy          =      -0.3245217073045926 [Eh]
	 Opposite-Spin Energy      =      -1.0095342482488683 [Eh]
	 Correlation Energy        =      -1.3340559555534610 [Eh]
	 Total Energy              =    -343.1376517076903383 [Eh]

	 ================> DF-SCS-MP2 Energies <==================
	-----------------------------------------------------------
	 SCS Same-Spin Scale       =       0.3333333333333333 [-]
	 SCS Opposite-Spin Scale   =       1.2000000000000000 [-]
	 SCS Same-Spin Energy      =      -0.1081739024348642 [Eh]
	 SCS Opposite-Spin Energy  =      -1.2114410978986418 [Eh]
	 SCS Correlation Energy    =      -1.3196150003335061 [Eh]
	 SCS Total Energy          =    -343.1232107524703565 [Eh]
	-----------------------------------------------------------

  Dipole Moment: [D]
     X:     2.4294      Y:     1.3096      Z:    -0.0001     Total:     2.7598

*** Psi4 exiting successfully. Buy a developer a beer!
