                               Psi4 1.3.2 release

  ==> Input File <==

--------------------------------------------------------------------------
#psi4
#
memory 32 gb

molecule  {
0 1
  O        0.0837991    -0.3719057     0.0000199
  O       -1.9464530    -0.9505490     0.0000960
  O       -1.3135820     1.2425430    -0.0001270
  C        1.2564470     0.4820050    -0.0000540
  C        2.5435920    -0.3088610     0.0000600
  C       -1.0431930     0.0552410    -0.0000240
  H        1.1578850     1.1159710    -0.8848970
  H        1.1578520     1.1161750     0.8846380
  H        3.3970200     0.3747910    -0.0000030
  H        2.6040770    -0.9424360     0.8871280
  H        2.6041090    -0.9426420    -0.8868570
  H       -2.8175920    -0.5097070     0.0000630
units angstrom
no_reorient  #important for SAPT in psi4, default
symmetry c1  #important for SAPT in psi4, default
}

set PROPERTIES_ORIGIN ["COM"]
properties('MP2/aug-cc-pvtz', properties = ['dipole'])
--------------------------------------------------------------------------

    Molecular point group: c1
  Charge       = 0
  Multiplicity = 1
  Basis Set: AUG-CC-PVTZ
    Blend: AUG-CC-PVTZ
  Basis Set: (AUG-CC-PVTZ AUX)
    Blend: AUG-CC-PVTZ-JKFIT

    Orbital Energies [Eh]
    ---------------------

    Doubly Occupied:

       1A    -20.616506     2A    -20.612955     3A    -20.523856
       4A    -11.419432     5A    -11.311890     6A    -11.241173
       7A     -1.547276     8A     -1.413024     9A     -1.347748
      10A     -1.072204    11A     -0.923170    12A     -0.809340
      13A     -0.769903    14A     -0.728264    15A     -0.705093
      16A     -0.636060    17A     -0.633240    18A     -0.587025
      19A     -0.571877    20A     -0.553558    21A     -0.522211
      22A     -0.500482    23A     -0.461381    24A     -0.460065

  @DF-RHF Final Energy:  -341.83925626407643

   => Energetics <=

    Nuclear Repulsion Energy =            249.2761906189896592
    One-Electron Energy =                -962.2954264735519700
    Two-Electron Energy =                 371.1799795904859138
    Total Energy =                       -341.8392562640764254
  Basis Set: (AUG-CC-PVTZ AUX)
    Blend: AUG-CC-PVTZ-RI
    Molecular point group: c1

    Geometry (in Angstrom), charge = 0, multiplicity = 1:

       Center              X                  Y                   Z               Mass
    ------------   -----------------  -----------------  -----------------  -----------------
         O            0.189925172046    -0.390524157592     0.000023465191    15.994914619570
         O           -1.840326927954    -0.969167457592     0.000099565191    15.994914619570
         O           -1.207455927954     1.223924542408    -0.000123434809    15.994914619570
         C            1.362573072046     0.463386542408    -0.000050434809    12.000000000000
         C            2.649718072046    -0.327479457592     0.000063565191    12.000000000000
         C           -0.937066927954     0.036622542408    -0.000020434809    12.000000000000
         H            1.264011072046     1.097352542408    -0.884893434809     1.007825032230
         H            1.263978072046     1.097556542408     0.884641565191     1.007825032230
         H            3.503146072046     0.356172542408     0.000000565191     1.007825032230
         H            2.710203072046    -0.961054457592     0.887131565191     1.007825032230
         H            2.710235072046    -0.961260457592    -0.886853434809     1.007825032230
         H           -2.711465927954    -0.528325457592     0.000066565191     1.007825032230

  Basis Set: AUG-CC-PVTZ
    Blend: AUG-CC-PVTZ
  Basis Set: (AUG-CC-PVTZ AUX)
    Blend: AUG-CC-PVTZ-JKFIT
	 Reference Energy          =    -341.8392562640764254 [Eh]
	 Singles Energy            =      -0.0000000000000000 [Eh]
	 Same-Spin Energy          =      -0.3218357689827375 [Eh]
	 Opposite-Spin Energy      =      -1.0007981890819893 [Eh]
	 Correlation Energy        =      -1.3226339580647268 [Eh]
	 Total Energy              =    -343.1618902221411531 [Eh]

	 ================> DF-SCS-MP2 Energies <==================
	-----------------------------------------------------------
	 SCS Same-Spin Scale       =       0.3333333333333333 [-]
	 SCS Opposite-Spin Scale   =       1.2000000000000000 [-]
	 SCS Same-Spin Energy      =      -0.1072785896609125 [Eh]
	 SCS Opposite-Spin Energy  =      -1.2009578268983871 [Eh]
	 SCS Correlation Energy    =      -1.3082364165592997 [Eh]
	 SCS Total Energy          =    -343.1474926806357075 [Eh]
	-----------------------------------------------------------

  Dipole Moment: [D]
     X:     1.9326      Y:    -0.5491      Z:     0.0001     Total:     2.0091

*** Psi4 exiting successfully. Buy a developer a beer!
