                               Psi4 1.3.2 release

  ==> Input File <==

--------------------------------------------------------------------------
#psi4
#
memory 32 gb

molecule  {
0 1
  O        0.1794810    -0.4898030     0.0000350
  O       -1.9464530    -0.9505490     0.0000960
  O       -1.3135820     1.2425430    -0.0001270
  C        1.2732434     0.4630613    -0.0000521
  C        2.5435920    -0.3088610     0.0000600
  C       -1.0431930     0.0552410    -0.0000240
  H        1.1578850     1.1159710    -0.8848970
  H        1.1578520     1.1161750     0.8846380
  H        3.3970200     0.3747910    -0.0000030
  H        2.6040770    -0.9424360     0.8871280
  H        2.6041090    -0.9426420    -0.8868570
  H       -2.8175920    -0.5097070     0.0000630
units angstrom
no_reorient  #important for SAPT in psi4, default
symmetry c1  #important for SAPT in psi4, default
}

set PROPERTIES_ORIGIN ["COM"]
properties('MP2/aug-cc-pvtz', properties = ['dipole'])
--------------------------------------------------------------------------

    Molecular point group: c1
  Charge       = 0
  Multiplicity = 1
  Basis Set: AUG-CC-PVTZ
    Blend: AUG-CC-PVTZ
  Basis Set: (AUG-CC-PVTZ AUX)
    Blend: AUG-CC-PVTZ-JKFIT

    Orbital Energies [Eh]
    ---------------------

    Doubly Occupied:

       1A    -20.624824     2A    -20.616360     3A    -20.553699
       4A    -11.442149     5A    -11.299908     6A    -11.229869
       7A     -1.507257     8A     -1.403118     9A     -1.365549
      10A     -1.054590    11A     -0.897727    12A     -0.816445
      13A     -0.745567    14A     -0.716600    15A     -0.703298
      16A     -0.634807    17A     -0.629734    18A     -0.594076
      19A     -0.557233    20A     -0.547666    21A     -0.526568
      22A     -0.494554    23A     -0.478055    24A     -0.471257

  @DF-RHF Final Energy:  -341.84844714374827

   => Energetics <=

    Nuclear Repulsion Energy =            246.1117811880326656
    One-Electron Energy =                -956.0986335709104651
    Two-Electron Energy =                 368.1384052391295540
    Total Energy =                       -341.8484471437482739
  Basis Set: (AUG-CC-PVTZ AUX)
    Blend: AUG-CC-PVTZ-RI
    Molecular point group: c1

    Geometry (in Angstrom), charge = 0, multiplicity = 1:

       Center              X                  Y                   Z               Mass
    ------------   -----------------  -----------------  -----------------  -----------------
         O            0.266369617510    -0.484951037873     0.000035629300    15.994914619570
         O           -1.859564382490    -0.945697037873     0.000096629300    15.994914619570
         O           -1.226693382490     1.247394962127    -0.000126370700    15.994914619570
         C            1.360132017510     0.467913262127    -0.000051470700    12.000000000000
         C            2.630480617510    -0.304009037873     0.000060629300    12.000000000000
         C           -0.956304382490     0.060092962127    -0.000023370700    12.000000000000
         H            1.244773617510     1.120822962127    -0.884896370700     1.007825032230
         H            1.244740617510     1.121026962127     0.884638629300     1.007825032230
         H            3.483908617510     0.379642962127    -0.000002370700     1.007825032230
         H            2.690965617510    -0.937584037873     0.887128629300     1.007825032230
         H            2.690997617510    -0.937790037873    -0.886856370700     1.007825032230
         H           -2.730703382490    -0.504855037873     0.000063629300     1.007825032230

  Basis Set: AUG-CC-PVTZ
    Blend: AUG-CC-PVTZ
  Basis Set: (AUG-CC-PVTZ AUX)
    Blend: AUG-CC-PVTZ-JKFIT
	 Reference Energy          =    -341.8484471437482739 [Eh]
	 Singles Energy            =      -0.0000000000000000 [Eh]
	 Same-Spin Energy          =      -0.3240671306236708 [Eh]
	 Opposite-Spin Energy      =      -1.0069232402624821 [Eh]
	 Correlation Energy        =      -1.3309903708861528 [Eh]
	 Total Energy              =    -343.1794375146344009 [Eh]

	 ================> DF-SCS-MP2 Energies <==================
	-----------------------------------------------------------
	 SCS Same-Spin Scale       =       0.3333333333333333 [-]
	 SCS Opposite-Spin Scale   =       1.2000000000000000 [-]
	 SCS Same-Spin Energy      =      -0.1080223768745569 [Eh]
	 SCS Opposite-Spin Energy  =      -1.2083078883149785 [Eh]
	 SCS Correlation Energy    =      -1.3163302651895354 [Eh]
	 SCS Total Energy          =    -343.1647774089378231 [Eh]
	-----------------------------------------------------------

  Dipole Moment: [D]
     X:     0.9946      Y:    -0.1786      Z:     0.0000     Total:     1.0105

*** Psi4 exiting successfully. Buy a developer a beer!
