                               Psi4 1.3.2 release

  ==> Input File <==

--------------------------------------------------------------------------
#psi4
#
memory 32 gb

molecule  {
0 1
  O        0.2172653    -0.5263934     0.0865524
  O       -1.9464530    -0.9505490     0.0000960
  O       -1.3135820     1.2425430    -0.0001270
  C        1.2564470     0.4820050    -0.0000540
  C        2.5435920    -0.3088610     0.0000600
  C       -1.0431930     0.0552410    -0.0000240
  H        1.1578850     1.1159710    -0.8848970
  H        1.1578520     1.1161750     0.8846380
  H        3.3970200     0.3747910    -0.0000030
  H        2.6040770    -0.9424360     0.8871280
  H        2.6041090    -0.9426420    -0.8868570
  H       -2.8175920    -0.5097070     0.0000630
units angstrom
no_reorient  #important for SAPT in psi4, default
symmetry c1  #important for SAPT in psi4, default
}

set PROPERTIES_ORIGIN ["COM"]
properties('MP2/aug-cc-pvtz', properties = ['dipole'])
--------------------------------------------------------------------------

    Molecular point group: c1
  Charge       = 0
  Multiplicity = 1
  Basis Set: AUG-CC-PVTZ
    Blend: AUG-CC-PVTZ
  Basis Set: (AUG-CC-PVTZ AUX)
    Blend: AUG-CC-PVTZ-JKFIT

    Orbital Energies [Eh]
    ---------------------

    Doubly Occupied:

       1A    -20.629221     2A    -20.616896     3A    -20.563417
       4A    -11.449178     5A    -11.294704     6A    -11.226613
       7A     -1.500405     8A     -1.397140     9A     -1.370452
      10A     -1.041810    11A     -0.888974    12A     -0.822932
      13A     -0.737011    14A     -0.720954    15A     -0.697835
      16A     -0.637398    17A     -0.628536    18A     -0.593579
      19A     -0.547399    20A     -0.543905    21A     -0.523077
      22A     -0.498479    23A     -0.482616    24A     -0.475093

  @DF-RHF Final Energy:  -341.84112938766316

   => Energetics <=

    Nuclear Repulsion Energy =            244.9627304299500565
    One-Electron Energy =                -953.8324724698189812
    Two-Electron Energy =                 367.0286126522057657
    Total Energy =                       -341.8411293876631589
  Basis Set: (AUG-CC-PVTZ AUX)
    Blend: AUG-CC-PVTZ-RI
    Molecular point group: c1

    Geometry (in Angstrom), charge = 0, multiplicity = 1:

       Center              X                  Y                   Z               Mass
    ------------   -----------------  -----------------  -----------------  -----------------
         O            0.299679939132    -0.517565772107     0.071182712872    15.994914619570
         O           -1.864038360868    -0.941721372107    -0.015273687128    15.994914619570
         O           -1.231167360868     1.251370627893    -0.015496687128    15.994914619570
         C            1.338861639132     0.490832627893    -0.015423687128    12.000000000000
         C            2.626006639132    -0.300033372107    -0.015309687128    12.000000000000
         C           -0.960778360868     0.064068627893    -0.015393687128    12.000000000000
         H            1.240299639132     1.124798627893    -0.900266687128     1.007825032230
         H            1.240266639132     1.125002627893     0.869268312872     1.007825032230
         H            3.479434639132     0.383618627893    -0.015372687128     1.007825032230
         H            2.686491639132    -0.933608372107     0.871758312872     1.007825032230
         H            2.686523639132    -0.933814372107    -0.902226687128     1.007825032230
         H           -2.735177360868    -0.500879372107    -0.015306687128     1.007825032230

  Basis Set: AUG-CC-PVTZ
    Blend: AUG-CC-PVTZ
  Basis Set: (AUG-CC-PVTZ AUX)
    Blend: AUG-CC-PVTZ-JKFIT
	 Reference Energy          =    -341.8411293876631589 [Eh]
	 Singles Energy            =      -0.0000000000000000 [Eh]
	 Same-Spin Energy          =      -0.3249020333366676 [Eh]
	 Opposite-Spin Energy      =      -1.0096116992566277 [Eh]
	 Correlation Energy        =      -1.3345137325932952 [Eh]
	 Total Energy              =    -343.1756431202564386 [Eh]

	 ================> DF-SCS-MP2 Energies <==================
	-----------------------------------------------------------
	 SCS Same-Spin Scale       =       0.3333333333333333 [-]
	 SCS Opposite-Spin Scale   =       1.2000000000000000 [-]
	 SCS Same-Spin Energy      =      -0.1083006777788892 [Eh]
	 SCS Opposite-Spin Energy  =      -1.2115340391079532 [Eh]
	 SCS Correlation Energy    =      -1.3198347168868425 [Eh]
	 SCS Total Energy          =    -343.1609641045499757 [Eh]
	-----------------------------------------------------------

  Dipole Moment: [D]
     X:     0.6060      Y:    -0.0313      Z:    -0.1065     Total:     0.6161

*** Psi4 exiting successfully. Buy a developer a beer!
