                               Psi4 1.3.2 release

  ==> Input File <==

--------------------------------------------------------------------------
#psi4
#
memory 32 gb

molecule  {
0 1
  O        0.1384823    -0.5737647     0.0000416
  O       -1.9464530    -0.9505490     0.0000960
  O       -1.3135820     1.2425430    -0.0001270
  C        1.2564470     0.4820050    -0.0000540
  C        2.5435920    -0.3088610     0.0000600
  C       -1.0431930     0.0552410    -0.0000240
  H        1.1578850     1.1159710    -0.8848970
  H        1.1578520     1.1161750     0.8846380
  H        3.3970200     0.3747910    -0.0000030
  H        2.6040770    -0.9424360     0.8871280
  H        2.6041090    -0.9426420    -0.8868570
  H       -2.8175920    -0.5097070     0.0000630
units angstrom
no_reorient  #important for SAPT in psi4, default
symmetry c1  #important for SAPT in psi4, default
}

set PROPERTIES_ORIGIN ["COM"]
properties('MP2/aug-cc-pvtz', properties = ['dipole'])
--------------------------------------------------------------------------

    Molecular point group: c1
  Charge       = 0
  Multiplicity = 1
  Basis Set: AUG-CC-PVTZ
    Blend: AUG-CC-PVTZ
  Basis Set: (AUG-CC-PVTZ AUX)
    Blend: AUG-CC-PVTZ-JKFIT

    Orbital Energies [Eh]
    ---------------------

    Doubly Occupied:

       1A    -20.617615     2A    -20.616558     3A    -20.555064
       4A    -11.438170     5A    -11.308042     6A    -11.233346
       7A     -1.501610     8A     -1.384917     9A     -1.366066
      10A     -1.048969    11A     -0.885750    12A     -0.822983
      13A     -0.729974    14A     -0.715356    15A     -0.696111
      16A     -0.630330    17A     -0.627189    18A     -0.588497
      19A     -0.546531    20A     -0.542458    21A     -0.533404
      22A     -0.498147    23A     -0.481089    24A     -0.478204

  @DF-RHF Final Energy:  -341.83916780780987

   => Energetics <=

    Nuclear Repulsion Energy =            244.8384763740770325
    One-Electron Energy =                -953.6625220840297743
    Two-Electron Energy =                 366.9848779021428982
    Total Energy =                       -341.8391678078098721
  Basis Set: (AUG-CC-PVTZ AUX)
    Blend: AUG-CC-PVTZ-RI
    Molecular point group: c1

    Geometry (in Angstrom), charge = 0, multiplicity = 1:

       Center              X                  Y                   Z               Mass
    ------------   -----------------  -----------------  -----------------  -----------------
         O            0.234893425278    -0.556521148061     0.000041309997    15.994914619570
         O           -1.850041874722    -0.933305448061     0.000095709997    15.994914619570
         O           -1.217170874722     1.259786551939    -0.000127290003    15.994914619570
         C            1.352858125278     0.499248551939    -0.000054290003    12.000000000000
         C            2.640003125278    -0.291617448061     0.000059709997    12.000000000000
         C           -0.946781874722     0.072484551939    -0.000024290003    12.000000000000
         H            1.254296125278     1.133214551939    -0.884897290003     1.007825032230
         H            1.254263125278     1.133418551939     0.884637709997     1.007825032230
         H            3.493431125278     0.392034551939    -0.000003290003     1.007825032230
         H            2.700488125278    -0.925192448061     0.887127709997     1.007825032230
         H            2.700520125278    -0.925398448061    -0.886857290003     1.007825032230
         H           -2.721180874722    -0.492463448061     0.000062709997     1.007825032230

  Basis Set: AUG-CC-PVTZ
    Blend: AUG-CC-PVTZ
  Basis Set: (AUG-CC-PVTZ AUX)
    Blend: AUG-CC-PVTZ-JKFIT
	 Reference Energy          =    -341.8391678078098721 [Eh]
	 Singles Energy            =      -0.0000000000000000 [Eh]
	 Same-Spin Energy          =      -0.3247974086468257 [Eh]
	 Opposite-Spin Energy      =      -1.0098014090269374 [Eh]
	 Correlation Energy        =      -1.3345988176737631 [Eh]
	 Total Energy              =    -343.1737666254836085 [Eh]

	 ================> DF-SCS-MP2 Energies <==================
	-----------------------------------------------------------
	 SCS Same-Spin Scale       =       0.3333333333333333 [-]
	 SCS Opposite-Spin Scale   =       1.2000000000000000 [-]
	 SCS Same-Spin Energy      =      -0.1082658028822752 [Eh]
	 SCS Opposite-Spin Energy  =      -1.2117616908323248 [Eh]
	 SCS Correlation Energy    =      -1.3200274937145999 [Eh]
	 SCS Total Energy          =    -343.1591953015244485 [Eh]
	-----------------------------------------------------------

  Dipole Moment: [D]
     X:     1.2128      Y:     0.0595      Z:     0.0000     Total:     1.2142

*** Psi4 exiting successfully. Buy a developer a beer!
