                               Psi4 1.3.2 release

  ==> Input File <==

--------------------------------------------------------------------------
#psi4
#
memory 32 gb

molecule  {
0 1
  O        0.1794810    -0.4898030     0.0000350
  O       -2.0466385    -0.8506228     0.0000896
  O       -1.3135820     1.2425430    -0.0001270
  C        1.2564470     0.4820050    -0.0000540
  C        2.5435920    -0.3088610     0.0000600
  C       -1.0431930     0.0552410    -0.0000240
  H        1.1578850     1.1159710    -0.8848970
  H        1.1578520     1.1161750     0.8846380
  H        3.3970200     0.3747910    -0.0000030
  H        2.6040770    -0.9424360     0.8871280
  H        2.6041090    -0.9426420    -0.8868570
  H       -2.8175920    -0.5097070     0.0000630
units angstrom
no_reorient  #important for SAPT in psi4, default
symmetry c1  #important for SAPT in psi4, default
}

set PROPERTIES_ORIGIN ["COM"]
properties('MP2/aug-cc-pvtz', properties = ['dipole'])
--------------------------------------------------------------------------

    Molecular point group: c1
  Charge       = 0
  Multiplicity = 1
  Basis Set: AUG-CC-PVTZ
    Blend: AUG-CC-PVTZ
  Basis Set: (AUG-CC-PVTZ AUX)
    Blend: AUG-CC-PVTZ-JKFIT

    Orbital Energies [Eh]
    ---------------------

    Doubly Occupied:

       1A    -20.625011     2A    -20.607082     3A    -20.547023
       4A    -11.444905     5A    -11.302877     6A    -11.232798
       7A     -1.515665     8A     -1.426302     9A     -1.362235
      10A     -1.054446    11A     -0.917777    12A     -0.839262
      13A     -0.766933    14A     -0.712105    15A     -0.706947
      16A     -0.640147    17A     -0.632385    18A     -0.590440
      19A     -0.557562    20A     -0.552324    21A     -0.526606
      22A     -0.497292    23A     -0.473716    24A     -0.472934

  @DF-RHF Final Energy:  -341.83305401396592

   => Energetics <=

    Nuclear Repulsion Energy =            246.3576111364206156
    One-Electron Energy =                -956.3717785725390286
    Two-Electron Energy =                 368.1811134221525208
    Total Energy =                       -341.8330540139659206
  Basis Set: (AUG-CC-PVTZ AUX)
    Blend: AUG-CC-PVTZ-RI
    Molecular point group: c1

    Geometry (in Angstrom), charge = 0, multiplicity = 1:

       Center              X                  Y                   Z               Mass
    ------------   -----------------  -----------------  -----------------  -----------------
         O            0.286407175812    -0.505228735150     0.000037019560    15.994914619570
         O           -1.939712324188    -0.866048535150     0.000091619560    15.994914619570
         O           -1.206655824188     1.227117264850    -0.000124980440    15.994914619570
         C            1.363373175812     0.466579264850    -0.000051980440    12.000000000000
         C            2.650518175812    -0.324286735150     0.000062019560    12.000000000000
         C           -0.936266824188     0.039815264850    -0.000021980440    12.000000000000
         H            1.264811175812     1.100545264850    -0.884894980440     1.007825032230
         H            1.264778175812     1.100749264850     0.884640019560     1.007825032230
         H            3.503946175812     0.359365264850    -0.000000980440     1.007825032230
         H            2.711003175812    -0.957861735150     0.887130019560     1.007825032230
         H            2.711035175812    -0.958067735150    -0.886854980440     1.007825032230
         H           -2.710665824188    -0.525132735150     0.000065019560     1.007825032230

  Basis Set: AUG-CC-PVTZ
    Blend: AUG-CC-PVTZ
  Basis Set: (AUG-CC-PVTZ AUX)
    Blend: AUG-CC-PVTZ-JKFIT
	 Reference Energy          =    -341.8330540139659206 [Eh]
	 Singles Energy            =      -0.0000000000000000 [Eh]
	 Same-Spin Energy          =      -0.3217199346190279 [Eh]
	 Opposite-Spin Energy      =      -1.0020604394298975 [Eh]
	 Correlation Energy        =      -1.3237803740489253 [Eh]
	 Total Energy              =    -343.1568343880148291 [Eh]

	 ================> DF-SCS-MP2 Energies <==================
	-----------------------------------------------------------
	 SCS Same-Spin Scale       =       0.3333333333333333 [-]
	 SCS Opposite-Spin Scale   =       1.2000000000000000 [-]
	 SCS Same-Spin Energy      =      -0.1072399782063426 [Eh]
	 SCS Opposite-Spin Energy  =      -1.2024725273158769 [Eh]
	 SCS Correlation Energy    =      -1.3097125055222196 [Eh]
	 SCS Total Energy          =    -343.1427665194881342 [Eh]
	-----------------------------------------------------------

  Dipole Moment: [D]
     X:     1.2629      Y:    -0.2420      Z:     0.0000     Total:     1.2859

*** Psi4 exiting successfully. Buy a developer a beer!
