                               Psi4 1.3.2 release

  ==> Input File <==

--------------------------------------------------------------------------
#psi4
#
memory 32 gb

molecule  {
0 1
  O        0.1794810    -0.4898030     0.0000350
  O       -2.0144131    -0.8850907     0.0000919
  O       -1.3135820     1.2425430    -0.0001270
  C        1.2564470     0.4820050    -0.0000540
  C        2.5435920    -0.3088610     0.0000600
  C       -1.0431930     0.0552410    -0.0000240
  H        1.1578850     1.1159710    -0.8848970
  H        1.1578520     1.1161750     0.8846380
  H        3.3970200     0.3747910    -0.0000030
  H        2.6040770    -0.9424360     0.8871280
  H        2.6041090    -0.9426420    -0.8868570
  H       -2.8175920    -0.5097070     0.0000630
units angstrom
no_reorient  #important for SAPT in psi4, default
symmetry c1  #important for SAPT in psi4, default
}

set PROPERTIES_ORIGIN ["COM"]
properties('MP2/aug-cc-pvtz', properties = ['dipole'])
--------------------------------------------------------------------------

    Molecular point group: c1
  Charge       = 0
  Multiplicity = 1
  Basis Set: AUG-CC-PVTZ
    Blend: AUG-CC-PVTZ
  Basis Set: (AUG-CC-PVTZ AUX)
    Blend: AUG-CC-PVTZ-JKFIT

    Orbital Energies [Eh]
    ---------------------

    Doubly Occupied:

       1A    -20.622390     2A    -20.613569     3A    -20.549310
       4A    -11.443644     5A    -11.301478     6A    -11.231926
       7A     -1.512313     8A     -1.418542     9A     -1.363174
      10A     -1.052711    11A     -0.909360    12A     -0.832116
      13A     -0.760350    14A     -0.714099    15A     -0.706109
      16A     -0.639092    17A     -0.631640    18A     -0.591466
      19A     -0.556233    20A     -0.550742    21A     -0.525770
      22A     -0.496931    23A     -0.474967    24A     -0.474246

  @DF-RHF Final Energy:  -341.84541795167149

   => Energetics <=

    Nuclear Repulsion Energy =            246.2210538114295559
    One-Electron Energy =                -956.1885868591955386
    Two-Electron Energy =                 368.1221150960944897
    Total Energy =                       -341.8454179516714930
  Basis Set: (AUG-CC-PVTZ AUX)
    Blend: AUG-CC-PVTZ-RI
    Molecular point group: c1

    Geometry (in Angstrom), charge = 0, multiplicity = 1:

       Center              X                  Y                   Z               Mass
    ------------   -----------------  -----------------  -----------------  -----------------
         O            0.280682052820    -0.499105212501     0.000036610945    15.994914619570
         O           -1.913212047180    -0.894392912501     0.000093510945    15.994914619570
         O           -1.212380947180     1.233240787499    -0.000125389055    15.994914619570
         C            1.357648052820     0.472702787499    -0.000052389055    12.000000000000
         C            2.644793052820    -0.318163212501     0.000061610945    12.000000000000
         C           -0.941991947180     0.045938787499    -0.000022389055    12.000000000000
         H            1.259086052820     1.106668787499    -0.884895389055     1.007825032230
         H            1.259053052820     1.106872787499     0.884639610945     1.007825032230
         H            3.498221052820     0.365488787499    -0.000001389055     1.007825032230
         H            2.705278052820    -0.951738212501     0.887129610945     1.007825032230
         H            2.705310052820    -0.951944212501    -0.886855389055     1.007825032230
         H           -2.716390947180    -0.519009212501     0.000064610945     1.007825032230

  Basis Set: AUG-CC-PVTZ
    Blend: AUG-CC-PVTZ
  Basis Set: (AUG-CC-PVTZ AUX)
    Blend: AUG-CC-PVTZ-JKFIT
	 Reference Energy          =    -341.8454179516714930 [Eh]
	 Singles Energy            =      -0.0000000000000000 [Eh]
	 Same-Spin Energy          =      -0.3223641042023361 [Eh]
	 Opposite-Spin Energy      =      -1.0034422896106474 [Eh]
	 Correlation Energy        =      -1.3258063938129836 [Eh]
	 Total Energy              =    -343.1712243454844611 [Eh]

	 ================> DF-SCS-MP2 Energies <==================
	-----------------------------------------------------------
	 SCS Same-Spin Scale       =       0.3333333333333333 [-]
	 SCS Opposite-Spin Scale   =       1.2000000000000000 [-]
	 SCS Same-Spin Energy      =      -0.1074547014007787 [Eh]
	 SCS Opposite-Spin Energy  =      -1.2041307475327769 [Eh]
	 SCS Correlation Energy    =      -1.3115854489335557 [Eh]
	 SCS Total Energy          =    -343.1570034006050491 [Eh]
	-----------------------------------------------------------

  Dipole Moment: [D]
     X:     1.1529      Y:    -0.2113      Z:     0.0000     Total:     1.1721

*** Psi4 exiting successfully. Buy a developer a beer!
