                               Psi4 1.4a3.dev225

  ==> Input File <==

--------------------------------------------------------------------------
#psi4
#
memory 32 gb

molecule  {
0 1
  O        0.1794750    -0.4898220     0.0000470
  O       -1.9464210    -0.9505350     0.0000920
  O       -1.3136110     1.2425340    -0.0001370
  C        1.2564180     0.4819790    -0.0000510
  C        2.5436140    -0.3088020     0.0000540
  C       -1.0543169     0.1039997    -0.0000162
  H        1.1579040     1.1158880    -0.8849190
  H        1.1578830     1.1160920     0.8846680
  H        3.3970060     0.3748880    -0.0000150
  H        2.6041570    -0.9424410     0.8870860
  H        2.6041770    -0.9426460    -0.8868290
  H       -2.8175810    -0.5097500     0.0000430
units angstrom
no_reorient  #important for SAPT in psi4, default
symmetry c1  #important for SAPT in psi4, default
}

set PROPERTIES_ORIGIN ["COM"]
properties('MP2/aug-cc-pvtz', properties = ['dipole'])
--------------------------------------------------------------------------

    Molecular point group: c1
  Charge       = 0
  Multiplicity = 1
  Basis Set: AUG-CC-PVTZ
    Blend: AUG-CC-PVTZ
  Basis Set: (AUG-CC-PVTZ AUX)
    Blend: AUG-CC-PVTZ-JKFIT

    Orbital Energies [Eh]
    ---------------------

    Doubly Occupied:

       1A    -20.618171     2A    -20.610626     3A    -20.567846
       4A    -11.439135     5A    -11.295277     6A    -11.228194
       7A     -1.508284     8A     -1.394241     9A     -1.387780
      10A     -1.043367    11A     -0.887670    12A     -0.813792
      13A     -0.737002    14A     -0.724421    15A     -0.701713
      16A     -0.636900    17A     -0.630092    18A     -0.595053
      19A     -0.549759    20A     -0.542693    21A     -0.523608
      22A     -0.508812    23A     -0.486993    24A     -0.475441

  @DF-RHF Final Energy:  -341.84557013356419

   => Energetics <=

    Nuclear Repulsion Energy =            246.0993287949122248
    One-Electron Energy =                -956.0760554378227880
    Two-Electron Energy =                 368.1311565093463400
    Total Energy =                       -341.8455701335641947
  Basis Set: (AUG-CC-PVTZ AUX)
    Blend: AUG-CC-PVTZ-RI
    Molecular point group: c1

    Geometry (in Angstrom), charge = 0, multiplicity = 1:

       Center              X                  Y                   Z               Mass
    ------------   -----------------  -----------------  -----------------  -----------------
         O            0.270084296792    -0.493994403492     0.000048023463    15.994914619570
         O           -1.855811703208    -0.954707403492     0.000093023463    15.994914619570
         O           -1.223001703208     1.238361596508    -0.000135976537    15.994914619570
         C            1.347027296792     0.477806596508    -0.000049976537    12.000000000000
         C            2.634223296792    -0.312974403492     0.000055023463    12.000000000000
         C           -0.963707603208     0.099827296508    -0.000015176537    12.000000000000
         H            1.248513296792     1.111715596508    -0.884917976537     1.007825032230
         H            1.248492296792     1.111919596508     0.884669023463     1.007825032230
         H            3.487615296792     0.370715596508    -0.000013976537     1.007825032230
         H            2.694766296792    -0.946613403492     0.887087023463     1.007825032230
         H            2.694786296792    -0.946818403492    -0.886827976537     1.007825032230
         H           -2.726971703208    -0.513922403492     0.000044023463     1.007825032230

  Basis Set: AUG-CC-PVTZ
    Blend: AUG-CC-PVTZ
  Basis Set: (AUG-CC-PVTZ AUX)
    Blend: AUG-CC-PVTZ-JKFIT
	 Reference Energy          =    -341.8455701335641947 [Eh]
	 Singles Energy            =      -0.0000000000000000 [Eh]
	 Same-Spin Energy          =      -0.3236909517075398 [Eh]
	 Opposite-Spin Energy      =      -1.0069318423125782 [Eh]
	 Correlation Energy        =      -1.3306227940201181 [Eh]
	 Total Energy              =    -343.1761929275843386 [Eh]

	 ================> DF-SCS-MP2 Energies <==================
	-----------------------------------------------------------
	 SCS Same-Spin Scale       =       0.3333333333333333 [-]
	 SCS Opposite-Spin Scale   =       1.2000000000000000 [-]
	 SCS Same-Spin Energy      =      -0.1078969839025133 [Eh]
	 SCS Opposite-Spin Energy  =      -1.2083182107750938 [Eh]
	 SCS Correlation Energy    =      -1.3162151946776071 [Eh]
	 SCS Total Energy          =    -343.1617853282418196 [Eh]
	-----------------------------------------------------------

  Dipole Moment: [D]
     X:     0.7881      Y:     0.2681      Z:    -0.0000     Total:     0.8325

*** Psi4 exiting successfully. Buy a developer a beer!
