                               Psi4 1.3.2 release

  ==> Input File <==

--------------------------------------------------------------------------
#psi4
#
memory 32 gb

molecule  {
0 1
  O        0.1794810    -0.4898030     0.0000350
  O       -1.9464530    -0.9505490     0.0000960
  O       -1.3135820     1.2425430    -0.0001270
  C        1.2564470     0.4820050    -0.0000540
  C        2.5435920    -0.3088610     0.0000600
  C       -1.0431930     0.0552410    -0.0000240
  H        1.1578850     1.1159710    -0.8848970
  H        1.1578520     1.1161750     0.8846380
  H        3.3970200     0.3747910    -0.0000030
  H        2.6040770    -0.9424360     0.8871280
  H        2.6041090    -0.9426420    -0.8868570
  H       -2.6391407    -0.6000127     0.0000698
units angstrom
no_reorient  #important for SAPT in psi4, default
symmetry c1  #important for SAPT in psi4, default
}

set PROPERTIES_ORIGIN ["COM"]
properties('MP2/aug-cc-pvtz', properties = ['dipole'])
--------------------------------------------------------------------------

    Molecular point group: c1
  Charge       = 0
  Multiplicity = 1
  Basis Set: AUG-CC-PVTZ
    Blend: AUG-CC-PVTZ
  Basis Set: (AUG-CC-PVTZ AUX)
    Blend: AUG-CC-PVTZ-JKFIT

    Orbital Energies [Eh]
    ---------------------

    Doubly Occupied:

       1A    -20.619413     2A    -20.608394     3A    -20.558530
       4A    -11.446653     5A    -11.300170     6A    -11.231368
       7A     -1.536307     8A     -1.437251     9A     -1.373323
      10A     -1.054466    11A     -0.923234    12A     -0.836773
      13A     -0.761943    14A     -0.727853    15A     -0.708143
      16A     -0.649790    17A     -0.635422    18A     -0.596138
      19A     -0.555587    20A     -0.552123    21A     -0.525846
      22A     -0.502177    23A     -0.483123    24A     -0.476780

  @DF-RHF Final Energy:  -341.80333860361878

   => Energetics <=

    Nuclear Repulsion Energy =            247.5043959825719639
    One-Electron Energy =                -958.4138507142787375
    Two-Electron Energy =                 369.1061161280879901
    Total Energy =                       -341.8033386036187835
  Basis Set: (AUG-CC-PVTZ AUX)
    Blend: AUG-CC-PVTZ-RI
    Molecular point group: c1

    Geometry (in Angstrom), charge = 0, multiplicity = 1:

       Center              X                  Y                   Z               Mass
    ------------   -----------------  -----------------  -----------------  -----------------
         O            0.266610744960    -0.486465083082     0.000035806424    15.994914619570
         O           -1.859323255040    -0.947211083082     0.000096806424    15.994914619570
         O           -1.226452255040     1.245880916918    -0.000126193576    15.994914619570
         C            1.343576744960     0.485342916918    -0.000053193576    12.000000000000
         C            2.630721744960    -0.305523083082     0.000060806424    12.000000000000
         C           -0.956063255040     0.058578916918    -0.000023193576    12.000000000000
         H            1.245014744960     1.119308916918    -0.884896193576     1.007825032230
         H            1.244981744960     1.119512916918     0.884638806424     1.007825032230
         H            3.484149744960     0.378128916918    -0.000002193576     1.007825032230
         H            2.691206744960    -0.939098083082     0.887128806424     1.007825032230
         H            2.691238744960    -0.939304083082    -0.886856193576     1.007825032230
         H           -2.552010955040    -0.596674783082     0.000070606424     1.007825032230

  Basis Set: AUG-CC-PVTZ
    Blend: AUG-CC-PVTZ
  Basis Set: (AUG-CC-PVTZ AUX)
    Blend: AUG-CC-PVTZ-JKFIT
	 Reference Energy          =    -341.8033386036187835 [Eh]
	 Singles Energy            =      -0.0000000000000000 [Eh]
	 Same-Spin Energy          =      -0.3217474937062206 [Eh]
	 Opposite-Spin Energy      =      -1.0019476313072111 [Eh]
	 Correlation Energy        =      -1.3236951250134317 [Eh]
	 Total Energy              =    -343.1270337286322274 [Eh]

	 ================> DF-SCS-MP2 Energies <==================
	-----------------------------------------------------------
	 SCS Same-Spin Scale       =       0.3333333333333333 [-]
	 SCS Opposite-Spin Scale   =       1.2000000000000000 [-]
	 SCS Same-Spin Energy      =      -0.1072491645687402 [Eh]
	 SCS Opposite-Spin Energy  =      -1.2023371575686532 [Eh]
	 SCS Correlation Energy    =      -1.3095863221373933 [Eh]
	 SCS Total Energy          =    -343.1129249257562037 [Eh]
	-----------------------------------------------------------

  Dipole Moment: [D]
     X:     1.2432      Y:    -0.1752      Z:     0.0000     Total:     1.2555

*** Psi4 exiting successfully. Buy a developer a beer!
