                               Psi4 1.4a3.dev225

  ==> Input File <==

--------------------------------------------------------------------------
#psi4
#
memory 32 gb

molecule  {
0 1
  O        0.1794750    -0.4898220     0.0000470
  O       -1.9464210    -0.9505350     0.0000920
  O       -1.3136110     1.2425340    -0.0001370
  C        1.2564180     0.4819790    -0.0000510
  C        2.5436140    -0.3088020     0.0000540
  C       -1.0298510     0.0701286    -0.0000125
  H        1.1579040     1.1158880    -0.8849190
  H        1.1578830     1.1160920     0.8846680
  H        3.3970060     0.3748880    -0.0000150
  H        2.6041570    -0.9424410     0.8870860
  H        2.6041770    -0.9426460    -0.8868290
  H       -2.8175810    -0.5097500     0.0000430
units angstrom
no_reorient  #important for SAPT in psi4, default
symmetry c1  #important for SAPT in psi4, default
}

set PROPERTIES_ORIGIN ["COM"]
properties('MP2/aug-cc-pvtz', properties = ['dipole'])
--------------------------------------------------------------------------

    Molecular point group: c1
  Charge       = 0
  Multiplicity = 1
  Basis Set: AUG-CC-PVTZ
    Blend: AUG-CC-PVTZ
  Basis Set: (AUG-CC-PVTZ AUX)
    Blend: AUG-CC-PVTZ-JKFIT

    Orbital Energies [Eh]
    ---------------------

    Doubly Occupied:

       1A    -20.619501     2A    -20.618705     3A    -20.556927
       4A    -11.441166     5A    -11.300005     6A    -11.231116
       7A     -1.507020     8A     -1.400243     9A     -1.371449
      10A     -1.050708    11A     -0.895830    12A     -0.817687
      13A     -0.743442    14A     -0.716080    15A     -0.706086
      16A     -0.634627    17A     -0.628276    18A     -0.594007
      19A     -0.553939    20A     -0.546668    21A     -0.526287
      22A     -0.498644    23A     -0.480540    24A     -0.477679

  @DF-RHF Final Energy:  -341.84900567914599

   => Energetics <=

    Nuclear Repulsion Energy =            246.1579528848213556
    One-Electron Energy =                -956.1806556559873798
    Two-Electron Energy =                 368.1736970920200065
    Total Energy =                       -341.8490056791459892
  Basis Set: (AUG-CC-PVTZ AUX)
    Blend: AUG-CC-PVTZ-RI
    Molecular point group: c1

    Geometry (in Angstrom), charge = 0, multiplicity = 1:

       Center              X                  Y                   Z               Mass
    ------------   -----------------  -----------------  -----------------  -----------------
         O            0.266823325164    -0.489479846654     0.000047530303    15.994914619570
         O           -1.859072674836    -0.950192846654     0.000092530303    15.994914619570
         O           -1.226262674836     1.242876153346    -0.000136469697    15.994914619570
         C            1.343766325164     0.482321153346    -0.000050469697    12.000000000000
         C            2.630962325164    -0.308459846654     0.000054530303    12.000000000000
         C           -0.942502674836     0.070470753346    -0.000011969697    12.000000000000
         H            1.245252325164     1.116230153346    -0.884918469697     1.007825032230
         H            1.245231325164     1.116434153346     0.884668530303     1.007825032230
         H            3.484354325164     0.375230153346    -0.000014469697     1.007825032230
         H            2.691505325164    -0.942098846654     0.887086530303     1.007825032230
         H            2.691525325164    -0.942303846654    -0.886828469697     1.007825032230
         H           -2.730232674836    -0.509407846654     0.000043530303     1.007825032230

  Basis Set: AUG-CC-PVTZ
    Blend: AUG-CC-PVTZ
  Basis Set: (AUG-CC-PVTZ AUX)
    Blend: AUG-CC-PVTZ-JKFIT
	 Reference Energy          =    -341.8490056791459892 [Eh]
	 Singles Energy            =      -0.0000000000000000 [Eh]
	 Same-Spin Energy          =      -0.3238608447414733 [Eh]
	 Opposite-Spin Energy      =      -1.0069070877810722 [Eh]
	 Correlation Energy        =      -1.3307679325225454 [Eh]
	 Total Energy              =    -343.1797736116685087 [Eh]

	 ================> DF-SCS-MP2 Energies <==================
	-----------------------------------------------------------
	 SCS Same-Spin Scale       =       0.3333333333333333 [-]
	 SCS Opposite-Spin Scale   =       1.2000000000000000 [-]
	 SCS Same-Spin Energy      =      -0.1079536149138244 [Eh]
	 SCS Opposite-Spin Energy  =      -1.2082885053372865 [Eh]
	 SCS Correlation Energy    =      -1.3162421202511110 [Eh]
	 SCS Total Energy          =    -343.1652477993970933 [Eh]
	-----------------------------------------------------------

  Dipole Moment: [D]
     X:     1.0912      Y:    -0.0137      Z:     0.0000     Total:     1.0913

*** Psi4 exiting successfully. Buy a developer a beer!
