                               Psi4 1.3.2 release

  ==> Input File <==

--------------------------------------------------------------------------
#psi4
#
memory 32 gb

molecule  {
0 1
  O        0.1794810    -0.4898030     0.0000350
  O       -1.9464530    -0.9505490     0.0000960
  O       -1.3135820     1.2425430    -0.0001270
  C        1.2564470     0.4820050    -0.0000540
  C        2.5435920    -0.3088610     0.0000600
  C       -1.0209881    -0.0422626    -0.0000155
  H        1.1578850     1.1159710    -0.8848970
  H        1.1578520     1.1161750     0.8846380
  H        3.3970200     0.3747910    -0.0000030
  H        2.6040770    -0.9424360     0.8871280
  H        2.6041090    -0.9426420    -0.8868570
  H       -2.8175920    -0.5097070     0.0000630
units angstrom
no_reorient  #important for SAPT in psi4, default
symmetry c1  #important for SAPT in psi4, default
}

set PROPERTIES_ORIGIN ["COM"]
properties('MP2/aug-cc-pvtz', properties = ['dipole'])
--------------------------------------------------------------------------

    Molecular point group: c1
  Charge       = 0
  Multiplicity = 1
  Basis Set: AUG-CC-PVTZ
    Blend: AUG-CC-PVTZ
  Basis Set: (AUG-CC-PVTZ AUX)
    Blend: AUG-CC-PVTZ-JKFIT

    Orbital Energies [Eh]
    ---------------------

    Doubly Occupied:

       1A    -20.636976     2A    -20.629551     3A    -20.525903
       4A    -11.444897     5A    -11.305575     6A    -11.234215
       7A     -1.528389     8A     -1.434858     9A     -1.296668
      10A     -1.062176    11A     -0.915512    12A     -0.831647
      13A     -0.769467    14A     -0.715924    15A     -0.713111
      16A     -0.637798    17A     -0.637004    18A     -0.572395
      19A     -0.559553    20A     -0.557285    21A     -0.524048
      22A     -0.495918    23A     -0.451034    24A     -0.445888

  @DF-RHF Final Energy:  -341.83269325011599

   => Energetics <=

    Nuclear Repulsion Energy =            246.1925552701139281
    One-Electron Energy =                -956.1989150867700573
    Two-Electron Energy =                 368.1736665665401915
    Total Energy =                       -341.8326932501159945
  Basis Set: (AUG-CC-PVTZ AUX)
    Blend: AUG-CC-PVTZ-RI
    Molecular point group: c1

    Geometry (in Angstrom), charge = 0, multiplicity = 1:

       Center              X                  Y                   Z               Mass
    ------------   -----------------  -----------------  -----------------  -----------------
         O            0.265648738038    -0.474480071955     0.000034749610    15.994914619570
         O           -1.860285261962    -0.935226071955     0.000095749610    15.994914619570
         O           -1.227414261962     1.257865928045    -0.000127250390    15.994914619570
         C            1.342614738038     0.497327928045    -0.000054250390    12.000000000000
         C            2.629759738038    -0.293538071955     0.000059749610    12.000000000000
         C           -0.934820361962    -0.026939671955    -0.000015750390    12.000000000000
         H            1.244052738038     1.131293928045    -0.884897250390     1.007825032230
         H            1.244019738038     1.131497928045     0.884637749610     1.007825032230
         H            3.483187738038     0.390113928045    -0.000003250390     1.007825032230
         H            2.690244738038    -0.927113071955     0.887127749610     1.007825032230
         H            2.690276738038    -0.927319071955    -0.886857250390     1.007825032230
         H           -2.731424261962    -0.494384071955     0.000062749610     1.007825032230

  Basis Set: AUG-CC-PVTZ
    Blend: AUG-CC-PVTZ
  Basis Set: (AUG-CC-PVTZ AUX)
    Blend: AUG-CC-PVTZ-JKFIT
	 Reference Energy          =    -341.8326932501159945 [Eh]
	 Singles Energy            =      -0.0000000000000000 [Eh]
	 Same-Spin Energy          =      -0.3242842525086108 [Eh]
	 Opposite-Spin Energy      =      -1.0067622361637518 [Eh]
	 Correlation Energy        =      -1.3310464886723625 [Eh]
	 Total Energy              =    -343.1637397387883652 [Eh]

	 ================> DF-SCS-MP2 Energies <==================
	-----------------------------------------------------------
	 SCS Same-Spin Scale       =       0.3333333333333333 [-]
	 SCS Opposite-Spin Scale   =       1.2000000000000000 [-]
	 SCS Same-Spin Energy      =      -0.1080947508362036 [Eh]
	 SCS Opposite-Spin Energy  =      -1.2081146833965022 [Eh]
	 SCS Correlation Energy    =      -1.3162094342327058 [Eh]
	 SCS Total Energy          =    -343.1489026843486840 [Eh]
	-----------------------------------------------------------

  Dipole Moment: [D]
     X:     1.2732      Y:    -0.9751      Z:     0.0001     Total:     1.6037

*** Psi4 exiting successfully. Buy a developer a beer!
