                               Psi4 1.3.2 release

  ==> Input File <==

--------------------------------------------------------------------------
#psi4
#
memory 32 gb

molecule  {
0 1
  O        0.1326929    -0.4261021    -0.1296101
  O       -1.9464530    -0.9505490     0.0000960
  O       -1.3135820     1.2425430    -0.0001270
  C        1.2564470     0.4820050    -0.0000540
  C        2.5435920    -0.3088610     0.0000600
  C       -1.0431930     0.0552410    -0.0000240
  H        1.1578850     1.1159710    -0.8848970
  H        1.1578520     1.1161750     0.8846380
  H        3.3970200     0.3747910    -0.0000030
  H        2.6040770    -0.9424360     0.8871280
  H        2.6041090    -0.9426420    -0.8868570
  H       -2.8175920    -0.5097070     0.0000630
units angstrom
no_reorient  #important for SAPT in psi4, default
symmetry c1  #important for SAPT in psi4, default
}

set PROPERTIES_ORIGIN ["COM"]
properties('MP2/aug-cc-pvtz', properties = ['dipole'])
--------------------------------------------------------------------------

    Molecular point group: c1
  Charge       = 0
  Multiplicity = 1
  Basis Set: AUG-CC-PVTZ
    Blend: AUG-CC-PVTZ
  Basis Set: (AUG-CC-PVTZ AUX)
    Blend: AUG-CC-PVTZ-JKFIT

    Orbital Energies [Eh]
    ---------------------

    Doubly Occupied:

       1A    -20.620155     2A    -20.616295     3A    -20.540730
       4A    -11.432386     5A    -11.304030     6A    -11.235075
       7A     -1.521945     8A     -1.409920     9A     -1.357863
      10A     -1.059098    11A     -0.908527    12A     -0.814429
      13A     -0.756546    14A     -0.714626    15A     -0.710472
      16A     -0.639682    17A     -0.625979    18A     -0.590248
      19A     -0.563169    20A     -0.550585    21A     -0.524356
      22A     -0.496607    23A     -0.471262    24A     -0.468211

  @DF-RHF Final Energy:  -341.84800577216129

   => Energetics <=

    Nuclear Repulsion Energy =            247.4624379002422359
    One-Electron Energy =                -958.7564965207436671
    Two-Electron Energy =                 369.4460528483401731
    Total Energy =                       -341.8480057721612866
  Basis Set: (AUG-CC-PVTZ AUX)
    Blend: AUG-CC-PVTZ-RI
    Molecular point group: c1

    Geometry (in Angstrom), charge = 0, multiplicity = 1:

       Center              X                  Y                   Z               Mass
    ------------   -----------------  -----------------  -----------------  -----------------
         O            0.230132562613    -0.435092095084    -0.106576636239    15.994914619570
         O           -1.849013337387    -0.959538995084     0.023129463761    15.994914619570
         O           -1.216142337387     1.233553004916     0.022906463761    15.994914619570
         C            1.353886662613     0.473015004916     0.022979463761    12.000000000000
         C            2.641031662613    -0.317850995084     0.023093463761    12.000000000000
         C           -0.945753337387     0.046251004916     0.023009463761    12.000000000000
         H            1.255324662613     1.106981004916    -0.861863536239     1.007825032230
         H            1.255291662613     1.107185004916     0.907671463761     1.007825032230
         H            3.494459662613     0.365801004916     0.023030463761     1.007825032230
         H            2.701516662613    -0.951425995084     0.910161463761     1.007825032230
         H            2.701548662613    -0.951631995084    -0.863823536239     1.007825032230
         H           -2.720152337387    -0.518696995084     0.023096463761     1.007825032230

  Basis Set: AUG-CC-PVTZ
    Blend: AUG-CC-PVTZ
  Basis Set: (AUG-CC-PVTZ AUX)
    Blend: AUG-CC-PVTZ-JKFIT
	 Reference Energy          =    -341.8480057721612866 [Eh]
	 Singles Energy            =      -0.0000000000000000 [Eh]
	 Same-Spin Energy          =      -0.3229399416271027 [Eh]
	 Opposite-Spin Energy      =      -1.0040260578653655 [Eh]
	 Correlation Energy        =      -1.3269659994924683 [Eh]
	 Total Energy              =    -343.1749717716537589 [Eh]

	 ================> DF-SCS-MP2 Energies <==================
	-----------------------------------------------------------
	 SCS Same-Spin Scale       =       0.3333333333333333 [-]
	 SCS Opposite-Spin Scale   =       1.2000000000000000 [-]
	 SCS Same-Spin Energy      =      -0.1076466472090342 [Eh]
	 SCS Opposite-Spin Energy  =      -1.2048312694384384 [Eh]
	 SCS Correlation Energy    =      -1.3124779166474727 [Eh]
	 SCS Total Energy          =    -343.1604836888087675 [Eh]
	-----------------------------------------------------------

  Dipole Moment: [D]
     X:     1.3719      Y:    -0.3428      Z:     0.1420     Total:     1.4212

*** Psi4 exiting successfully. Buy a developer a beer!
