                               Psi4 1.3.2 release

  ==> Input File <==

--------------------------------------------------------------------------
#psi4
#
memory 32 gb

molecule  {
0 1
  O        0.1794810    -0.4898030     0.0000350
  O       -1.9464530    -0.9505490     0.0000960
  O       -1.3135820     1.2425430    -0.0001270
  C        1.2564470     0.4820050    -0.0000540
  C        2.5435920    -0.3088610     0.0000600
  C       -1.1155537     0.1157992    -0.0000293
  H        1.1578850     1.1159710    -0.8848970
  H        1.1578520     1.1161750     0.8846380
  H        3.3970200     0.3747910    -0.0000030
  H        2.6040770    -0.9424360     0.8871280
  H        2.6041090    -0.9426420    -0.8868570
  H       -2.8175920    -0.5097070     0.0000630
units angstrom
no_reorient  #important for SAPT in psi4, default
symmetry c1  #important for SAPT in psi4, default
}

set PROPERTIES_ORIGIN ["COM"]
properties('MP2/aug-cc-pvtz', properties = ['dipole'])
--------------------------------------------------------------------------

    Molecular point group: c1
  Charge       = 0
  Multiplicity = 1
  Basis Set: AUG-CC-PVTZ
    Blend: AUG-CC-PVTZ
  Basis Set: (AUG-CC-PVTZ AUX)
    Blend: AUG-CC-PVTZ-JKFIT

    Orbital Energies [Eh]
    ---------------------

    Doubly Occupied:

       1A    -20.631203     2A    -20.593714     3A    -20.575800
       4A    -11.439194     5A    -11.286441     6A    -11.222542
       7A     -1.518295     8A     -1.415469     9A     -1.370393
      10A     -1.031875    11A     -0.880668    12A     -0.812426
      13A     -0.737531    14A     -0.733591    15A     -0.697122
      16A     -0.642164    17A     -0.634664    18A     -0.590762
      19A     -0.543403    20A     -0.539446    21A     -0.519586
      22A     -0.518887    23A     -0.483550    24A     -0.464194

  @DF-RHF Final Energy:  -341.83641367004566

   => Energetics <=

    Nuclear Repulsion Energy =            245.8492210735054755
    One-Electron Energy =                -955.6054289550171461
    Two-Electron Energy =                 367.9197942114660691
    Total Energy =                       -341.8364136700456584
  Basis Set: (AUG-CC-PVTZ AUX)
    Blend: AUG-CC-PVTZ-RI
    Molecular point group: c1

    Geometry (in Angstrom), charge = 0, multiplicity = 1:

       Center              X                  Y                   Z               Mass
    ------------   -----------------  -----------------  -----------------  -----------------
         O            0.278253046021    -0.495547559576     0.000036588962    15.994914619570
         O           -1.847680953979    -0.956293559576     0.000097588962    15.994914619570
         O           -1.214809953979     1.236798440424    -0.000125411038    15.994914619570
         C            1.355219046021     0.476260440424    -0.000052411038    12.000000000000
         C            2.642364046021    -0.314605559576     0.000061588962    12.000000000000
         C           -1.016781653979     0.110054640424    -0.000027711038    12.000000000000
         H            1.256657046021     1.110226440424    -0.884895411038     1.007825032230
         H            1.256624046021     1.110430440424     0.884639588962     1.007825032230
         H            3.495792046021     0.369046440424    -0.000001411038     1.007825032230
         H            2.702849046021    -0.948180559576     0.887129588962     1.007825032230
         H            2.702881046021    -0.948386559576    -0.886855411038     1.007825032230
         H           -2.718819953979    -0.515451559576     0.000064588962     1.007825032230

  Basis Set: AUG-CC-PVTZ
    Blend: AUG-CC-PVTZ
  Basis Set: (AUG-CC-PVTZ AUX)
    Blend: AUG-CC-PVTZ-JKFIT
	 Reference Energy          =    -341.8364136700456584 [Eh]
	 Singles Energy            =      -0.0000000000000000 [Eh]
	 Same-Spin Energy          =      -0.3238139047576187 [Eh]
	 Opposite-Spin Energy      =      -1.0072886927287890 [Eh]
	 Correlation Energy        =      -1.3311025974864077 [Eh]
	 Total Energy              =    -343.1675162675320507 [Eh]

	 ================> DF-SCS-MP2 Energies <==================
	-----------------------------------------------------------
	 SCS Same-Spin Scale       =       0.3333333333333333 [-]
	 SCS Opposite-Spin Scale   =       1.2000000000000000 [-]
	 SCS Same-Spin Energy      =      -0.1079379682525396 [Eh]
	 SCS Opposite-Spin Energy  =      -1.2087464312745466 [Eh]
	 SCS Correlation Energy    =      -1.3166843995270863 [Eh]
	 SCS Total Energy          =    -343.1530980695727635 [Eh]
	-----------------------------------------------------------

  Dipole Moment: [D]
     X:     0.0832      Y:     0.3319      Z:    -0.0000     Total:     0.3422

*** Psi4 exiting successfully. Buy a developer a beer!
