                               Psi4 1.3.2 release

  ==> Input File <==

--------------------------------------------------------------------------
#psi4
#
memory 32 gb

molecule  {
0 1
  O        0.2297557    -0.3590130     0.0000196
  O       -1.9464530    -0.9505490     0.0000960
  O       -1.3135820     1.2425430    -0.0001270
  C        1.2564470     0.4820050    -0.0000540
  C        2.5435920    -0.3088610     0.0000600
  C       -1.0431930     0.0552410    -0.0000240
  H        1.1578850     1.1159710    -0.8848970
  H        1.1578520     1.1161750     0.8846380
  H        3.3970200     0.3747910    -0.0000030
  H        2.6040770    -0.9424360     0.8871280
  H        2.6041090    -0.9426420    -0.8868570
  H       -2.8175920    -0.5097070     0.0000630
units angstrom
no_reorient  #important for SAPT in psi4, default
symmetry c1  #important for SAPT in psi4, default
}

set PROPERTIES_ORIGIN ["COM"]
properties('MP2/aug-cc-pvtz', properties = ['dipole'])
--------------------------------------------------------------------------

    Molecular point group: c1
  Charge       = 0
  Multiplicity = 1
  Basis Set: AUG-CC-PVTZ
    Blend: AUG-CC-PVTZ
  Basis Set: (AUG-CC-PVTZ AUX)
    Blend: AUG-CC-PVTZ-JKFIT

    Orbital Energies [Eh]
    ---------------------

    Doubly Occupied:

       1A    -20.637075     2A    -20.613160     3A    -20.552415
       4A    -11.449634     5A    -11.286092     6A    -11.225799
       7A     -1.521895     8A     -1.432224     9A     -1.367088
      10A     -1.053807    11A     -0.917266    12A     -0.812913
      13A     -0.768930    14A     -0.721661    15A     -0.719747
      16A     -0.647065    17A     -0.633536    18A     -0.605858
      19A     -0.554571    20A     -0.553450    21A     -0.507083
      22A     -0.497104    23A     -0.474891    24A     -0.458306

  @DF-RHF Final Energy:  -341.83892544164735

   => Energetics <=

    Nuclear Repulsion Energy =            248.1149673641350830
    One-Electron Energy =                -959.8846451355302634
    Two-Electron Energy =                 369.9307523297478610
    Total Energy =                       -341.8389254416473477
  Basis Set: (AUG-CC-PVTZ AUX)
    Blend: AUG-CC-PVTZ-RI
    Molecular point group: c1

    Geometry (in Angstrom), charge = 0, multiplicity = 1:

       Center              X                  Y                   Z               Mass
    ------------   -----------------  -----------------  -----------------  -----------------
         O            0.309951310782    -0.379921958042     0.000023218488    15.994914619570
         O           -1.866257389218    -0.971457958042     0.000099618488    15.994914619570
         O           -1.233386389218     1.221634041958    -0.000123381512    15.994914619570
         C            1.336642610782     0.461096041958    -0.000050381512    12.000000000000
         C            2.623787610782    -0.329769958042     0.000063618488    12.000000000000
         C           -0.962997389218     0.034332041958    -0.000020381512    12.000000000000
         H            1.238080610782     1.095062041958    -0.884893381512     1.007825032230
         H            1.238047610782     1.095266041958     0.884641618488     1.007825032230
         H            3.477215610782     0.353882041958     0.000000618488     1.007825032230
         H            2.684272610782    -0.963344958042     0.887131618488     1.007825032230
         H            2.684304610782    -0.963550958042    -0.886853381512     1.007825032230
         H           -2.737396389218    -0.530615958042     0.000066618488     1.007825032230

  Basis Set: AUG-CC-PVTZ
    Blend: AUG-CC-PVTZ
  Basis Set: (AUG-CC-PVTZ AUX)
    Blend: AUG-CC-PVTZ-JKFIT
	 Reference Energy          =    -341.8389254416473477 [Eh]
	 Singles Energy            =      -0.0000000000000000 [Eh]
	 Same-Spin Energy          =      -0.3234839013867391 [Eh]
	 Opposite-Spin Energy      =      -1.0041636626386505 [Eh]
	 Correlation Energy        =      -1.3276475640253897 [Eh]
	 Total Energy              =    -343.1665730056727170 [Eh]

	 ================> DF-SCS-MP2 Energies <==================
	-----------------------------------------------------------
	 SCS Same-Spin Scale       =       0.3333333333333333 [-]
	 SCS Opposite-Spin Scale   =       1.2000000000000000 [-]
	 SCS Same-Spin Energy      =      -0.1078279671289130 [Eh]
	 SCS Opposite-Spin Energy  =      -1.2049963951663807 [Eh]
	 SCS Correlation Energy    =      -1.3128243622952938 [Eh]
	 SCS Total Energy          =    -343.1517498039426641 [Eh]
	-----------------------------------------------------------

  Dipole Moment: [D]
     X:     0.5313      Y:    -0.5248      Z:     0.0001     Total:     0.7468

*** Psi4 exiting successfully. Buy a developer a beer!
