                               Psi4 1.3.2 release

  ==> Input File <==

--------------------------------------------------------------------------
#psi4
#
memory 32 gb

molecule  {
0 1
  O        0.1794810    -0.4898030     0.0000350
  O       -1.8363712    -1.0394556     0.0001011
  O       -1.3135820     1.2425430    -0.0001270
  C        1.2564470     0.4820050    -0.0000540
  C        2.5435920    -0.3088610     0.0000600
  C       -1.0431930     0.0552410    -0.0000240
  H        1.1578850     1.1159710    -0.8848970
  H        1.1578520     1.1161750     0.8846380
  H        3.3970200     0.3747910    -0.0000030
  H        2.6040770    -0.9424360     0.8871280
  H        2.6041090    -0.9426420    -0.8868570
  H       -2.8175920    -0.5097070     0.0000630
units angstrom
no_reorient  #important for SAPT in psi4, default
symmetry c1  #important for SAPT in psi4, default
}

set PROPERTIES_ORIGIN ["COM"]
properties('MP2/aug-cc-pvtz', properties = ['dipole'])
--------------------------------------------------------------------------

    Molecular point group: c1
  Charge       = 0
  Multiplicity = 1
  Basis Set: AUG-CC-PVTZ
    Blend: AUG-CC-PVTZ
  Basis Set: (AUG-CC-PVTZ AUX)
    Blend: AUG-CC-PVTZ-JKFIT

    Orbital Energies [Eh]
    ---------------------

    Doubly Occupied:

       1A    -20.637692     2A    -20.609870     3A    -20.561252
       4A    -11.441661     5A    -11.294552     6A    -11.227847
       7A     -1.505260     8A     -1.383576     9A     -1.371455
      10A     -1.045048    11A     -0.885992    12A     -0.806678
      13A     -0.728224    14A     -0.714587    15A     -0.703354
      16A     -0.628310    17A     -0.622245    18A     -0.592004
      19A     -0.546927    20A     -0.542905    21A     -0.522118
      22A     -0.498577    23A     -0.482394    24A     -0.473575

  @DF-RHF Final Energy:  -341.82073600959706

   => Energetics <=

    Nuclear Repulsion Energy =            246.1248516776048234
    One-Electron Energy =                -956.2389699243642553
    Two-Electron Energy =                 368.2933822371623478
    Total Energy =                       -341.8207360095970557
  Basis Set: (AUG-CC-PVTZ AUX)
    Blend: AUG-CC-PVTZ-RI
    Molecular point group: c1

    Geometry (in Angstrom), charge = 0, multiplicity = 1:

       Center              X                  Y                   Z               Mass
    ------------   -----------------  -----------------  -----------------  -----------------
         O            0.249051358550    -0.471680943506     0.000034976485    15.994914619570
         O           -1.766800841450    -1.021333543506     0.000101076485    15.994914619570
         O           -1.244011641450     1.260665056494    -0.000127023515    15.994914619570
         C            1.326017358550     0.500127056494    -0.000054023515    12.000000000000
         C            2.613162358550    -0.290738943506     0.000059976485    12.000000000000
         C           -0.973622641450     0.073363056494    -0.000024023515    12.000000000000
         H            1.227455358550     1.134093056494    -0.884897023515     1.007825032230
         H            1.227422358550     1.134297056494     0.884637976485     1.007825032230
         H            3.466590358550     0.392913056494    -0.000003023515     1.007825032230
         H            2.673647358550    -0.924313943506     0.887127976485     1.007825032230
         H            2.673679358550    -0.924519943506    -0.886857023515     1.007825032230
         H           -2.748021641450    -0.491584943506     0.000062976485     1.007825032230

  Basis Set: AUG-CC-PVTZ
    Blend: AUG-CC-PVTZ
  Basis Set: (AUG-CC-PVTZ AUX)
    Blend: AUG-CC-PVTZ-JKFIT
	 Reference Energy          =    -341.8207360095970557 [Eh]
	 Singles Energy            =      -0.0000000000000000 [Eh]
	 Same-Spin Energy          =      -0.3267925878388857 [Eh]
	 Opposite-Spin Energy      =      -1.0135391121230461 [Eh]
	 Correlation Energy        =      -1.3403316999619319 [Eh]
	 Total Energy              =    -343.1610677095590063 [Eh]

	 ================> DF-SCS-MP2 Energies <==================
	-----------------------------------------------------------
	 SCS Same-Spin Scale       =       0.3333333333333333 [-]
	 SCS Opposite-Spin Scale   =       1.2000000000000000 [-]
	 SCS Same-Spin Energy      =      -0.1089308626129619 [Eh]
	 SCS Opposite-Spin Energy  =      -1.2162469345476554 [Eh]
	 SCS Correlation Energy    =      -1.3251777971606173 [Eh]
	 SCS Total Energy          =    -343.1459138067576760 [Eh]
	-----------------------------------------------------------

  Dipole Moment: [D]
     X:     0.6913      Y:    -0.0734      Z:     0.0000     Total:     0.6952

*** Psi4 exiting successfully. Buy a developer a beer!
