                               Psi4 1.4a3.dev225

  ==> Input File <==

--------------------------------------------------------------------------
#psi4
#
memory 32 gb

molecule  {
0 1
  O        0.1794750    -0.4898220     0.0000470
  O       -1.9464210    -0.9505350     0.0000920
  O       -1.3136110     1.2425340    -0.0001370
  C        1.2564180     0.4819790    -0.0000510
  C        2.5436140    -0.3088020     0.0000540
  C       -1.0432140     0.0552480    -0.0000110
  H        1.1579040     1.1158880    -0.8849190
  H        1.1578830     1.1160920     0.8846680
  H        3.3970060     0.3748880    -0.0000150
  H        2.6041570    -0.9424410     0.8870860
  H        2.6041770    -0.9426460    -0.8868290
  H       -2.8354267    -0.5007205     0.0000420
units angstrom
no_reorient  #important for SAPT in psi4, default
symmetry c1  #important for SAPT in psi4, default
}

set PROPERTIES_ORIGIN ["COM"]
properties('MP2/aug-cc-pvtz', properties = ['dipole'])
--------------------------------------------------------------------------

    Molecular point group: c1
  Charge       = 0
  Multiplicity = 1
  Basis Set: AUG-CC-PVTZ
    Blend: AUG-CC-PVTZ
  Basis Set: (AUG-CC-PVTZ AUX)
    Blend: AUG-CC-PVTZ-JKFIT

    Orbital Energies [Eh]
    ---------------------

    Doubly Occupied:

       1A    -20.626044     2A    -20.617047     3A    -20.553540
       4A    -11.441602     5A    -11.298542     6A    -11.230121
       7A     -1.506311     8A     -1.400926     9A     -1.364896
      10A     -1.049079    11A     -0.895351    12A     -0.817574
      13A     -0.743441    14A     -0.715667    15A     -0.704384
      16A     -0.632943    17A     -0.629736    18A     -0.592485
      19A     -0.552922    20A     -0.547145    21A     -0.524014
      22A     -0.496334    23A     -0.477962    24A     -0.474443

  @DF-RHF Final Energy:  -341.84774553264162

   => Energetics <=

    Nuclear Repulsion Energy =            245.9506820085088634
    One-Electron Energy =                -955.8118386279172682
    Two-Electron Energy =                 368.0134110867667232
    Total Energy =                       -341.8477455326416248
  Basis Set: (AUG-CC-PVTZ AUX)
    Blend: AUG-CC-PVTZ-RI
    Molecular point group: c1

    Geometry (in Angstrom), charge = 0, multiplicity = 1:

       Center              X                  Y                   Z               Mass
    ------------   -----------------  -----------------  -----------------  -----------------
         O            0.268804198067    -0.487597542365     0.000047341568    15.994914619570
         O           -1.857091801933    -0.948310542365     0.000092341568    15.994914619570
         O           -1.224281801933     1.244758457635    -0.000136658432    15.994914619570
         C            1.345747198067     0.484203457635    -0.000050658432    12.000000000000
         C            2.632943198067    -0.306577542365     0.000054341568    12.000000000000
         C           -0.953884801933     0.057472457635    -0.000010658432    12.000000000000
         H            1.247233198067     1.118112457635    -0.884918658432     1.007825032230
         H            1.247212198067     1.118316457635     0.884668341568     1.007825032230
         H            3.486335198067     0.377112457635    -0.000014658432     1.007825032230
         H            2.693486198067    -0.940216542365     0.887086341568     1.007825032230
         H            2.693506198067    -0.940421542365    -0.886828658432     1.007825032230
         H           -2.746097501933    -0.498496042365     0.000042341568     1.007825032230

  Basis Set: AUG-CC-PVTZ
    Blend: AUG-CC-PVTZ
  Basis Set: (AUG-CC-PVTZ AUX)
    Blend: AUG-CC-PVTZ-JKFIT
	 Reference Energy          =    -341.8477455326416248 [Eh]
	 Singles Energy            =      -0.0000000000000000 [Eh]
	 Same-Spin Energy          =      -0.3241519499732534 [Eh]
	 Opposite-Spin Energy      =      -1.0074331353827319 [Eh]
	 Correlation Energy        =      -1.3315850853559854 [Eh]
	 Total Energy              =    -343.1793306179976071 [Eh]

	 ================> DF-SCS-MP2 Energies <==================
	-----------------------------------------------------------
	 SCS Same-Spin Scale       =       0.3333333333333333 [-]
	 SCS Opposite-Spin Scale   =       1.2000000000000000 [-]
	 SCS Same-Spin Energy      =      -0.1080506499910845 [Eh]
	 SCS Opposite-Spin Energy  =      -1.2089197624592782 [Eh]
	 SCS Correlation Energy    =      -1.3169704124503627 [Eh]
	 SCS Total Energy          =    -343.1647159450919844 [Eh]
	-----------------------------------------------------------

  Dipole Moment: [D]
     X:     0.9194      Y:    -0.1498      Z:     0.0000     Total:     0.9315

*** Psi4 exiting successfully. Buy a developer a beer!
