                               Psi4 1.3.2 release

  ==> Input File <==

--------------------------------------------------------------------------
#psi4
#
memory 32 gb

molecule  {
0 1
  O        0.1462214    -0.4516254     0.0000301
  O       -1.9464530    -0.9505490     0.0000960
  O       -1.3135820     1.2425430    -0.0001270
  C        1.2564470     0.4820050    -0.0000540
  C        2.5435920    -0.3088610     0.0000600
  C       -1.0431930     0.0552410    -0.0000240
  H        1.1578850     1.1159710    -0.8848970
  H        1.1578520     1.1161750     0.8846380
  H        3.3970200     0.3747910    -0.0000030
  H        2.6040770    -0.9424360     0.8871280
  H        2.6041090    -0.9426420    -0.8868570
  H       -2.8175920    -0.5097070     0.0000630
units angstrom
no_reorient  #important for SAPT in psi4, default
symmetry c1  #important for SAPT in psi4, default
}

set PROPERTIES_ORIGIN ["COM"]
properties('MP2/aug-cc-pvtz', properties = ['dipole'])
--------------------------------------------------------------------------

    Molecular point group: c1
  Charge       = 0
  Multiplicity = 1
  Basis Set: AUG-CC-PVTZ
    Blend: AUG-CC-PVTZ
  Basis Set: (AUG-CC-PVTZ AUX)
    Blend: AUG-CC-PVTZ-JKFIT

    Orbital Energies [Eh]
    ---------------------

    Doubly Occupied:

       1A    -20.621007     2A    -20.617198     3A    -20.544612
       4A    -11.434994     5A    -11.302679     6A    -11.233721
       7A     -1.517766     8A     -1.408351     9A     -1.360469
      10A     -1.056693    11A     -0.905212    12A     -0.815794
      13A     -0.753174    14A     -0.713225    15A     -0.711557
      16A     -0.634737    17A     -0.630533    18A     -0.591263
      19A     -0.559786    20A     -0.549988    21A     -0.524329
      22A     -0.496858    23A     -0.473294    24A     -0.471710

  @DF-RHF Final Energy:  -341.85133439539607

   => Energetics <=

    Nuclear Repulsion Energy =            247.0992330097380147
    One-Electron Energy =                -958.0432339569255191
    Two-Electron Energy =                 369.0926665517914671
    Total Energy =                       -341.8513343953960657
  Basis Set: (AUG-CC-PVTZ AUX)
    Blend: AUG-CC-PVTZ-RI
    Molecular point group: c1

    Geometry (in Angstrom), charge = 0, multiplicity = 1:

       Center              X                  Y                   Z               Mass
    ------------   -----------------  -----------------  -----------------  -----------------
         O            0.241257606756    -0.456080958533     0.000031853072    15.994914619570
         O           -1.851416793244    -0.955004558533     0.000097753072    15.994914619570
         O           -1.218545793244     1.238087441467    -0.000125246928    15.994914619570
         C            1.351483206756     0.477549441467    -0.000052246928    12.000000000000
         C            2.638628206756    -0.313316558533     0.000061753072    12.000000000000
         C           -0.948156793244     0.050785441467    -0.000022246928    12.000000000000
         H            1.252921206756     1.111515441467    -0.884895246928     1.007825032230
         H            1.252888206756     1.111719441467     0.884639753072     1.007825032230
         H            3.492056206756     0.370335441467    -0.000001246928     1.007825032230
         H            2.699113206756    -0.946891558533     0.887129753072     1.007825032230
         H            2.699145206756    -0.947097558533    -0.886855246928     1.007825032230
         H           -2.722555793244    -0.514162558533     0.000064753072     1.007825032230

  Basis Set: AUG-CC-PVTZ
    Blend: AUG-CC-PVTZ
  Basis Set: (AUG-CC-PVTZ AUX)
    Blend: AUG-CC-PVTZ-JKFIT
	 Reference Energy          =    -341.8513343953960657 [Eh]
	 Singles Energy            =      -0.0000000000000000 [Eh]
	 Same-Spin Energy          =      -0.3231439619344958 [Eh]
	 Opposite-Spin Energy      =      -1.0046418147300344 [Eh]
	 Correlation Energy        =      -1.3277857766645302 [Eh]
	 Total Energy              =    -343.1791201720606068 [Eh]

	 ================> DF-SCS-MP2 Energies <==================
	-----------------------------------------------------------
	 SCS Same-Spin Scale       =       0.3333333333333333 [-]
	 SCS Opposite-Spin Scale   =       1.2000000000000000 [-]
	 SCS Same-Spin Energy      =      -0.1077146539781653 [Eh]
	 SCS Opposite-Spin Energy  =      -1.2055701776760412 [Eh]
	 SCS Correlation Energy    =      -1.3132848316542065 [Eh]
	 SCS Total Energy          =    -343.1646192270502524 [Eh]
	-----------------------------------------------------------

  Dipole Moment: [D]
     X:     1.2664      Y:    -0.2782      Z:     0.0000     Total:     1.2965

*** Psi4 exiting successfully. Buy a developer a beer!
