                               Psi4 1.3.2 release

  ==> Input File <==

--------------------------------------------------------------------------
#psi4
#
memory 32 gb

molecule  {
0 1
  O        0.1794810    -0.4898030     0.0000350
  O       -1.9464530    -0.9505490     0.0000960
  O       -1.3135820     1.2425430    -0.0001270
  C        1.1489657     0.5892549    -0.0000649
  C        2.5435920    -0.3088610     0.0000600
  C       -1.0431930     0.0552410    -0.0000240
  H        1.1578850     1.1159710    -0.8848970
  H        1.1578520     1.1161750     0.8846380
  H        3.3970200     0.3747910    -0.0000030
  H        2.6040770    -0.9424360     0.8871280
  H        2.6041090    -0.9426420    -0.8868570
  H       -2.8175920    -0.5097070     0.0000630
units angstrom
no_reorient  #important for SAPT in psi4, default
symmetry c1  #important for SAPT in psi4, default
}

set PROPERTIES_ORIGIN ["COM"]
properties('MP2/aug-cc-pvtz', properties = ['dipole'])
--------------------------------------------------------------------------

    Molecular point group: c1
  Charge       = 0
  Multiplicity = 1
  Basis Set: AUG-CC-PVTZ
    Blend: AUG-CC-PVTZ
  Basis Set: (AUG-CC-PVTZ AUX)
    Blend: AUG-CC-PVTZ-JKFIT

    Orbital Energies [Eh]
    ---------------------

    Doubly Occupied:

       1A    -20.625717     2A    -20.623596     3A    -20.556439
       4A    -11.442503     5A    -11.295082     6A    -11.231177
       7A     -1.512107     8A     -1.407088     9A     -1.368565
      10A     -1.025681    11A     -0.893693    12A     -0.832826
      13A     -0.743657    14A     -0.720284    15A     -0.716183
      16A     -0.637027    17A     -0.636667    18A     -0.593413
      19A     -0.547056    20A     -0.546150    21A     -0.513677
      22A     -0.485192    23A     -0.481786    24A     -0.479025

  @DF-RHF Final Energy:  -341.82700938988546

   => Energetics <=

    Nuclear Repulsion Energy =            245.9570682379180937
    One-Electron Energy =                -955.7389732584354078
    Two-Electron Energy =                 367.9548956306318814
    Total Energy =                       -341.8270093898854611
  Basis Set: (AUG-CC-PVTZ AUX)
    Blend: AUG-CC-PVTZ-RI
    Molecular point group: c1

    Geometry (in Angstrom), charge = 0, multiplicity = 1:

       Center              X                  Y                   Z               Mass
    ------------   -----------------  -----------------  -----------------  -----------------
         O            0.282934144210    -0.501770927979     0.000037335366    15.994914619570
         O           -1.842999855790    -0.962516927979     0.000098335366    15.994914619570
         O           -1.210128855790     1.230575072021    -0.000124664634    15.994914619570
         C            1.252418844210     0.577286972021    -0.000062564634    12.000000000000
         C            2.647045144210    -0.320828927979     0.000062335366    12.000000000000
         C           -0.939739855790     0.043273072021    -0.000021664634    12.000000000000
         H            1.261338144210     1.104003072021    -0.884894664634     1.007825032230
         H            1.261305144210     1.104207072021     0.884640335366     1.007825032230
         H            3.500473144210     0.362823072021    -0.000000664634     1.007825032230
         H            2.707530144210    -0.954403927979     0.887130335366     1.007825032230
         H            2.707562144210    -0.954609927979    -0.886854664634     1.007825032230
         H           -2.714138855790    -0.521674927979     0.000065335366     1.007825032230

  Basis Set: AUG-CC-PVTZ
    Blend: AUG-CC-PVTZ
  Basis Set: (AUG-CC-PVTZ AUX)
    Blend: AUG-CC-PVTZ-JKFIT
	 Reference Energy          =    -341.8270093898854611 [Eh]
	 Singles Energy            =      -0.0000000000000000 [Eh]
	 Same-Spin Energy          =      -0.3241656647225755 [Eh]
	 Opposite-Spin Energy      =      -1.0085864445617541 [Eh]
	 Correlation Energy        =      -1.3327521092843295 [Eh]
	 Total Energy              =    -343.1597614991698038 [Eh]

	 ================> DF-SCS-MP2 Energies <==================
	-----------------------------------------------------------
	 SCS Same-Spin Scale       =       0.3333333333333333 [-]
	 SCS Opposite-Spin Scale   =       1.2000000000000000 [-]
	 SCS Same-Spin Energy      =      -0.1080552215741918 [Eh]
	 SCS Opposite-Spin Energy  =      -1.2103037334741049 [Eh]
	 SCS Correlation Energy    =      -1.3183589550482968 [Eh]
	 SCS Total Energy          =    -343.1453683449337859 [Eh]
	-----------------------------------------------------------

  Dipole Moment: [D]
     X:     0.6559      Y:    -0.0365      Z:     0.0000     Total:     0.6570

*** Psi4 exiting successfully. Buy a developer a beer!
