                               Psi4 1.4a3.dev225

  ==> Input File <==

--------------------------------------------------------------------------
#psi4
#
memory 32 gb

molecule  {
0 1
  O        0.1794750    -0.4898220     0.0000470
  O       -1.9464210    -0.9505350     0.0000920
  O       -1.3136110     1.2425340    -0.0001370
  C        1.2415696     0.4685803    -0.0000496
  C        2.5436140    -0.3088020     0.0000540
  C       -1.0432140     0.0552480    -0.0000110
  H        1.1579040     1.1158880    -0.8849190
  H        1.1578830     1.1160920     0.8846680
  H        3.3970060     0.3748880    -0.0000150
  H        2.6041570    -0.9424410     0.8870860
  H        2.6041770    -0.9426460    -0.8868290
  H       -2.8175810    -0.5097500     0.0000430
units angstrom
no_reorient  #important for SAPT in psi4, default
symmetry c1  #important for SAPT in psi4, default
}

set PROPERTIES_ORIGIN ["COM"]
properties('MP2/aug-cc-pvtz', properties = ['dipole'])
--------------------------------------------------------------------------

    Molecular point group: c1
  Charge       = 0
  Multiplicity = 1
  Basis Set: AUG-CC-PVTZ
    Blend: AUG-CC-PVTZ
  Basis Set: (AUG-CC-PVTZ AUX)
    Blend: AUG-CC-PVTZ-JKFIT

    Orbital Energies [Eh]
    ---------------------

    Doubly Occupied:

       1A    -20.626076     2A    -20.619750     3A    -20.555407
       4A    -11.443685     5A    -11.298090     6A    -11.229572
       7A     -1.510965     8A     -1.408139     9A     -1.367613
      10A     -1.047875    11A     -0.899412    12A     -0.818312
      13A     -0.748353    14A     -0.718421    15A     -0.706696
      16A     -0.636922    17A     -0.628904    18A     -0.595647
      19A     -0.554593    20A     -0.548508    21A     -0.519707
      22A     -0.496075    23A     -0.479902    24A     -0.473385

  @DF-RHF Final Energy:  -341.84914683603103

   => Energetics <=

    Nuclear Repulsion Energy =            246.3599217484580493
    One-Electron Energy =                -956.5541177622156965
    Two-Electron Energy =                 368.3450491777265938
    Total Energy =                       -341.8491468360310250
  Basis Set: (AUG-CC-PVTZ AUX)
    Blend: AUG-CC-PVTZ-RI
    Molecular point group: c1

    Geometry (in Angstrom), charge = 0, multiplicity = 1:

       Center              X                  Y                   Z               Mass
    ------------   -----------------  -----------------  -----------------  -----------------
         O            0.270583520988    -0.485710600684     0.000047143773    15.994914619570
         O           -1.855312479012    -0.946423600684     0.000092143773    15.994914619570
         O           -1.222502479012     1.246645399316    -0.000136856227    15.994914619570
         C            1.332678120988     0.472691699316    -0.000049456227    12.000000000000
         C            2.634722520988    -0.304690600684     0.000054143773    12.000000000000
         C           -0.952105479012     0.059359399316    -0.000010856227    12.000000000000
         H            1.249012520988     1.119999399316    -0.884918856227     1.007825032230
         H            1.248991520988     1.120203399316     0.884668143773     1.007825032230
         H            3.488114520988     0.378999399316    -0.000014856227     1.007825032230
         H            2.695265520988    -0.938329600684     0.887086143773     1.007825032230
         H            2.695285520988    -0.938534600684    -0.886828856227     1.007825032230
         H           -2.726472479012    -0.505638600684     0.000043143773     1.007825032230

  Basis Set: AUG-CC-PVTZ
    Blend: AUG-CC-PVTZ
  Basis Set: (AUG-CC-PVTZ AUX)
    Blend: AUG-CC-PVTZ-JKFIT
	 Reference Energy          =    -341.8491468360310250 [Eh]
	 Singles Energy            =      -0.0000000000000000 [Eh]
	 Same-Spin Energy          =      -0.3239226924153145 [Eh]
	 Opposite-Spin Energy      =      -1.0067166727490060 [Eh]
	 Correlation Energy        =      -1.3306393651643205 [Eh]
	 Total Energy              =    -343.1797862011953271 [Eh]

	 ================> DF-SCS-MP2 Energies <==================
	-----------------------------------------------------------
	 SCS Same-Spin Scale       =       0.3333333333333333 [-]
	 SCS Opposite-Spin Scale   =       1.2000000000000000 [-]
	 SCS Same-Spin Energy      =      -0.1079742308051048 [Eh]
	 SCS Opposite-Spin Energy  =      -1.2080600072988072 [Eh]
	 SCS Correlation Energy    =      -1.3160342381039121 [Eh]
	 SCS Total Energy          =    -343.1651810741349209 [Eh]
	-----------------------------------------------------------

  Dipole Moment: [D]
     X:     0.8615      Y:    -0.1825      Z:     0.0000     Total:     0.8806

*** Psi4 exiting successfully. Buy a developer a beer!
