                               Psi4 1.3.2 release

  ==> Input File <==

--------------------------------------------------------------------------
#psi4
#
memory 32 gb

molecule  {
0 1
  O        0.1794810    -0.4898030     0.0000350
  O       -1.9464530    -0.9505490     0.0000960
  O       -1.3135820     1.2425430    -0.0001270
  C        1.3521289     0.3641077    -0.0000421
  C        2.5435920    -0.3088610     0.0000600
  C       -1.0431930     0.0552410    -0.0000240
  H        1.1578850     1.1159710    -0.8848970
  H        1.1578520     1.1161750     0.8846380
  H        3.3970200     0.3747910    -0.0000030
  H        2.6040770    -0.9424360     0.8871280
  H        2.6041090    -0.9426420    -0.8868570
  H       -2.8175920    -0.5097070     0.0000630
units angstrom
no_reorient  #important for SAPT in psi4, default
symmetry c1  #important for SAPT in psi4, default
}

set PROPERTIES_ORIGIN ["COM"]
properties('MP2/aug-cc-pvtz', properties = ['dipole'])
--------------------------------------------------------------------------

    Molecular point group: c1
  Charge       = 0
  Multiplicity = 1
  Basis Set: AUG-CC-PVTZ
    Blend: AUG-CC-PVTZ
  Basis Set: (AUG-CC-PVTZ AUX)
    Blend: AUG-CC-PVTZ-JKFIT

    Orbital Energies [Eh]
    ---------------------

    Doubly Occupied:

       1A    -20.624752     2A    -20.612639     3A    -20.552731
       4A    -11.443264     5A    -11.308096     6A    -11.227596
       7A     -1.505066     8A     -1.401246     9A     -1.364466
      10A     -1.085832    11A     -0.901670    12A     -0.801493
      13A     -0.747713    14A     -0.714917    15A     -0.698733
      16A     -0.635805    17A     -0.631565    18A     -0.611815
      19A     -0.579714    20A     -0.547835    21A     -0.519305
      22A     -0.488034    23A     -0.476598    24A     -0.444919

  @DF-RHF Final Energy:  -341.81968348414409

   => Energetics <=

    Nuclear Repulsion Energy =            246.4527365681566948
    One-Electron Energy =                -956.6932286097646738
    Two-Electron Energy =                 368.4208085574638289
    Total Energy =                       -341.8196834841440932
  Basis Set: (AUG-CC-PVTZ AUX)
    Blend: AUG-CC-PVTZ-RI
    Molecular point group: c1

    Geometry (in Angstrom), charge = 0, multiplicity = 1:

       Center              X                  Y                   Z               Mass
    ------------   -----------------  -----------------  -----------------  -----------------
         O            0.255855253541    -0.471761869187     0.000034296436    15.994914619570
         O           -1.870078746459    -0.932507869187     0.000095296436    15.994914619570
         O           -1.237207746459     1.260584130813    -0.000127703564    15.994914619570
         C            1.428503153541     0.382148830813    -0.000042803564    12.000000000000
         C            2.619966253541    -0.290819869187     0.000059296436    12.000000000000
         C           -0.966818746459     0.073282130813    -0.000024703564    12.000000000000
         H            1.234259253541     1.134012130813    -0.884897703564     1.007825032230
         H            1.234226253541     1.134216130813     0.884637296436     1.007825032230
         H            3.473394253541     0.392832130813    -0.000003703564     1.007825032230
         H            2.680451253541    -0.924394869187     0.887127296436     1.007825032230
         H            2.680483253541    -0.924600869187    -0.886857703564     1.007825032230
         H           -2.741217746459    -0.491665869187     0.000062296436     1.007825032230

  Basis Set: AUG-CC-PVTZ
    Blend: AUG-CC-PVTZ
  Basis Set: (AUG-CC-PVTZ AUX)
    Blend: AUG-CC-PVTZ-JKFIT
	 Reference Energy          =    -341.8196834841440932 [Eh]
	 Singles Energy            =      -0.0000000000000000 [Eh]
	 Same-Spin Energy          =      -0.3255750922913291 [Eh]
	 Opposite-Spin Energy      =      -1.0086908059002535 [Eh]
	 Correlation Energy        =      -1.3342658981915827 [Eh]
	 Total Energy              =    -343.1539493823356679 [Eh]

	 ================> DF-SCS-MP2 Energies <==================
	-----------------------------------------------------------
	 SCS Same-Spin Scale       =       0.3333333333333333 [-]
	 SCS Opposite-Spin Scale   =       1.2000000000000000 [-]
	 SCS Same-Spin Energy      =      -0.1085250307637764 [Eh]
	 SCS Opposite-Spin Energy  =      -1.2104289670803041 [Eh]
	 SCS Correlation Energy    =      -1.3189539978440805 [Eh]
	 SCS Total Energy          =    -343.1386374819881553 [Eh]
	-----------------------------------------------------------

  Dipole Moment: [D]
     X:     1.2197      Y:    -0.3301      Z:     0.0000     Total:     1.2636

*** Psi4 exiting successfully. Buy a developer a beer!
