                               Psi4 1.3.2 release

  ==> Input File <==

--------------------------------------------------------------------------
#psi4
#
memory 32 gb

molecule  {
0 1
  O        0.1966054    -0.5084506     0.0000374
  O       -1.9464530    -0.9505490     0.0000960
  O       -1.3135820     1.2425430    -0.0001270
  C        1.2564470     0.4820050    -0.0000540
  C        2.5435920    -0.3088610     0.0000600
  C       -1.0431930     0.0552410    -0.0000240
  H        1.1578850     1.1159710    -0.8848970
  H        1.1578520     1.1161750     0.8846380
  H        3.3970200     0.3747910    -0.0000030
  H        2.6040770    -0.9424360     0.8871280
  H        2.6041090    -0.9426420    -0.8868570
  H       -2.8175920    -0.5097070     0.0000630
units angstrom
no_reorient  #important for SAPT in psi4, default
symmetry c1  #important for SAPT in psi4, default
}

set PROPERTIES_ORIGIN ["COM"]
properties('MP2/aug-cc-pvtz', properties = ['dipole'])
--------------------------------------------------------------------------

    Molecular point group: c1
  Charge       = 0
  Multiplicity = 1
  Basis Set: AUG-CC-PVTZ
    Blend: AUG-CC-PVTZ
  Basis Set: (AUG-CC-PVTZ AUX)
    Blend: AUG-CC-PVTZ-JKFIT

    Orbital Energies [Eh]
    ---------------------

    Doubly Occupied:

       1A    -20.626774     2A    -20.617224     3A    -20.558385
       4A    -11.445348     5A    -11.296862     6A    -11.228560
       7A     -1.504037     8A     -1.400726     9A     -1.368212
      10A     -1.045997    11A     -0.893252    12A     -0.820906
      13A     -0.741340    14A     -0.718834    15A     -0.701616
      16A     -0.635076    17A     -0.630259    18A     -0.593320
      19A     -0.550021    20A     -0.546224    21A     -0.523798
      22A     -0.497418    23A     -0.480560    24A     -0.475463

  @DF-RHF Final Energy:  -341.84661750884487

   => Energetics <=

    Nuclear Repulsion Energy =            245.5681854285511747
    One-Electron Energy =                -955.0291811661592192
    Two-Electron Energy =                 367.6143782287632007
    Total Energy =                       -341.8466175088448722
  Basis Set: (AUG-CC-PVTZ AUX)
    Blend: AUG-CC-PVTZ-RI
    Molecular point group: c1

    Geometry (in Angstrom), charge = 0, multiplicity = 1:

       Center              X                  Y                   Z               Mass
    ------------   -----------------  -----------------  -----------------  -----------------
         O            0.282690450314    -0.502810666808     0.000037856163    15.994914619570
         O           -1.860367949686    -0.944909066808     0.000096456163    15.994914619570
         O           -1.227496949686     1.248182933192    -0.000126543837    15.994914619570
         C            1.342532050314     0.487644933192    -0.000053543837    12.000000000000
         C            2.629677050314    -0.303221066808     0.000060456163    12.000000000000
         C           -0.957107949686     0.060880933192    -0.000023543837    12.000000000000
         H            1.243970050314     1.121610933192    -0.884896543837     1.007825032230
         H            1.243937050314     1.121814933192     0.884638456163     1.007825032230
         H            3.483105050314     0.380430933192    -0.000002543837     1.007825032230
         H            2.690162050314    -0.936796066808     0.887128456163     1.007825032230
         H            2.690194050314    -0.937002066808    -0.886856543837     1.007825032230
         H           -2.731506949686    -0.504067066808     0.000063456163     1.007825032230

  Basis Set: AUG-CC-PVTZ
    Blend: AUG-CC-PVTZ
  Basis Set: (AUG-CC-PVTZ AUX)
    Blend: AUG-CC-PVTZ-JKFIT
	 Reference Energy          =    -341.8466175088448722 [Eh]
	 Singles Energy            =      -0.0000000000000000 [Eh]
	 Same-Spin Energy          =      -0.3243463727284499 [Eh]
	 Opposite-Spin Energy      =      -1.0080553367640146 [Eh]
	 Correlation Energy        =      -1.3324017094924645 [Eh]
	 Total Energy              =    -343.1790192183373165 [Eh]

	 ================> DF-SCS-MP2 Energies <==================
	-----------------------------------------------------------
	 SCS Same-Spin Scale       =       0.3333333333333333 [-]
	 SCS Opposite-Spin Scale   =       1.2000000000000000 [-]
	 SCS Same-Spin Energy      =      -0.1081154575761500 [Eh]
	 SCS Opposite-Spin Energy  =      -1.2096664041168175 [Eh]
	 SCS Correlation Energy    =      -1.3177818616929675 [Eh]
	 SCS Total Energy          =    -343.1643993705378648 [Eh]
	-----------------------------------------------------------

  Dipole Moment: [D]
     X:     0.7943      Y:    -0.0945      Z:     0.0000     Total:     0.7999

*** Psi4 exiting successfully. Buy a developer a beer!
