                               Psi4 1.3.2 release

  ==> Input File <==

--------------------------------------------------------------------------
#psi4
#
memory 32 gb

molecule  {
0 1
  O        0.1158105    -0.6146214     0.0000448
  O       -1.9464530    -0.9505490     0.0000960
  O       -1.3135820     1.2425430    -0.0001270
  C        1.2564470     0.4820050    -0.0000540
  C        2.5435920    -0.3088610     0.0000600
  C       -1.0431930     0.0552410    -0.0000240
  H        1.1578850     1.1159710    -0.8848970
  H        1.1578520     1.1161750     0.8846380
  H        3.3970200     0.3747910    -0.0000030
  H        2.6040770    -0.9424360     0.8871280
  H        2.6041090    -0.9426420    -0.8868570
  H       -2.8175920    -0.5097070     0.0000630
units angstrom
no_reorient  #important for SAPT in psi4, default
symmetry c1  #important for SAPT in psi4, default
}

set PROPERTIES_ORIGIN ["COM"]
properties('MP2/aug-cc-pvtz', properties = ['dipole'])
--------------------------------------------------------------------------

    Molecular point group: c1
  Charge       = 0
  Multiplicity = 1
  Basis Set: AUG-CC-PVTZ
    Blend: AUG-CC-PVTZ
  Basis Set: (AUG-CC-PVTZ AUX)
    Blend: AUG-CC-PVTZ-JKFIT

    Orbital Energies [Eh]
    ---------------------

    Doubly Occupied:

       1A    -20.617029     2A    -20.612319     3A    -20.555597
       4A    -11.436477     5A    -11.312842     6A    -11.235012
       7A     -1.499167     8A     -1.375845     9A     -1.366395
      10A     -1.049352    11A     -0.881151    12A     -0.824314
      13A     -0.723245    14A     -0.714185    15A     -0.692519
      16A     -0.631002    17A     -0.623581    18A     -0.588209
      19A     -0.543807    20A     -0.539896    21A     -0.534096
      22A     -0.499027    23A     -0.482962    24A     -0.477737

  @DF-RHF Final Energy:  -341.83022561246992

   => Energetics <=

    Nuclear Repulsion Energy =            244.2703710021201857
    One-Electron Energy =                -952.5696607628007087
    Two-Electron Energy =                 366.4690641482105775
    Total Energy =                       -341.8302256124699170
  Basis Set: (AUG-CC-PVTZ AUX)
    Blend: AUG-CC-PVTZ-RI
    Molecular point group: c1

    Geometry (in Angstrom), charge = 0, multiplicity = 1:

       Center              X                  Y                   Z               Mass
    ------------   -----------------  -----------------  -----------------  -----------------
         O            0.216249468018    -0.590119299446     0.000043941489    15.994914619570
         O           -1.846014031982    -0.926046899446     0.000095141489    15.994914619570
         O           -1.213143031982     1.267045100554    -0.000127858511    15.994914619570
         C            1.356885968018     0.506507100554    -0.000054858511    12.000000000000
         C            2.644030968018    -0.284358899446     0.000059141489    12.000000000000
         C           -0.942754031982     0.079743100554    -0.000024858511    12.000000000000
         H            1.258323968018     1.140473100554    -0.884897858511     1.007825032230
         H            1.258290968018     1.140677100554     0.884637141489     1.007825032230
         H            3.497458968018     0.399293100554    -0.000003858511     1.007825032230
         H            2.704515968018    -0.917933899446     0.887127141489     1.007825032230
         H            2.704547968018    -0.918139899446    -0.886857858511     1.007825032230
         H           -2.717153031982    -0.485204899446     0.000062141489     1.007825032230

  Basis Set: AUG-CC-PVTZ
    Blend: AUG-CC-PVTZ
  Basis Set: (AUG-CC-PVTZ AUX)
    Blend: AUG-CC-PVTZ-JKFIT
	 Reference Energy          =    -341.8302256124699170 [Eh]
	 Singles Energy            =      -0.0000000000000000 [Eh]
	 Same-Spin Energy          =      -0.3253824785314584 [Eh]
	 Opposite-Spin Energy      =      -1.0115486195591212 [Eh]
	 Correlation Energy        =      -1.3369310980905795 [Eh]
	 Total Energy              =    -343.1671567105605050 [Eh]

	 ================> DF-SCS-MP2 Energies <==================
	-----------------------------------------------------------
	 SCS Same-Spin Scale       =       0.3333333333333333 [-]
	 SCS Opposite-Spin Scale   =       1.2000000000000000 [-]
	 SCS Same-Spin Energy      =      -0.1084608261771528 [Eh]
	 SCS Opposite-Spin Energy  =      -1.2138583434709453 [Eh]
	 SCS Correlation Energy    =      -1.3223191696480980 [Eh]
	 SCS Total Energy          =    -343.1525447821180137 [Eh]
	-----------------------------------------------------------

  Dipole Moment: [D]
     X:     1.3401      Y:     0.1559      Z:    -0.0000     Total:     1.3491

*** Psi4 exiting successfully. Buy a developer a beer!
