                               Psi4 1.3.2 release

  ==> Input File <==

--------------------------------------------------------------------------
#psi4
#
memory 32 gb

molecule  {
0 1
  O        0.2380685    -0.5428565     0.1296792
  O       -1.9464530    -0.9505490     0.0000960
  O       -1.3135820     1.2425430    -0.0001270
  C        1.2564470     0.4820050    -0.0000540
  C        2.5435920    -0.3088610     0.0000600
  C       -1.0431930     0.0552410    -0.0000240
  H        1.1578850     1.1159710    -0.8848970
  H        1.1578520     1.1161750     0.8846380
  H        3.3970200     0.3747910    -0.0000030
  H        2.6040770    -0.9424360     0.8871280
  H        2.6041090    -0.9426420    -0.8868570
  H       -2.8175920    -0.5097070     0.0000630
units angstrom
no_reorient  #important for SAPT in psi4, default
symmetry c1  #important for SAPT in psi4, default
}

set PROPERTIES_ORIGIN ["COM"]
properties('MP2/aug-cc-pvtz', properties = ['dipole'])
--------------------------------------------------------------------------

    Molecular point group: c1
  Charge       = 0
  Multiplicity = 1
  Basis Set: AUG-CC-PVTZ
    Blend: AUG-CC-PVTZ
  Basis Set: (AUG-CC-PVTZ AUX)
    Blend: AUG-CC-PVTZ-JKFIT

    Orbital Energies [Eh]
    ---------------------

    Doubly Occupied:

       1A    -20.631604     2A    -20.616526     3A    -20.568121
       4A    -11.452724     5A    -11.292715     6A    -11.224771
       7A     -1.497774     8A     -1.393815     9A     -1.371894
      10A     -1.037811    11A     -0.885079    12A     -0.824902
      13A     -0.733017    14A     -0.722906    15A     -0.694395
      16A     -0.639182    17A     -0.627525    18A     -0.593625
      19A     -0.545462    20A     -0.541408    21A     -0.522013
      22A     -0.499850    23A     -0.484018    24A     -0.474159

  @DF-RHF Final Energy:  -341.83433456624340

   => Energetics <=

    Nuclear Repulsion Energy =            244.3766728814699718
    One-Electron Energy =                -952.6714217304665908
    Two-Electron Energy =                 366.4604142827532200
    Total Energy =                       -341.8343345662433990
  Basis Set: (AUG-CC-PVTZ AUX)
    Blend: AUG-CC-PVTZ-RI
    Molecular point group: c1

    Geometry (in Angstrom), charge = 0, multiplicity = 1:

       Center              X                  Y                   Z               Mass
    ------------   -----------------  -----------------  -----------------  -----------------
         O            0.316787269458    -0.531104059000     0.106647661220    15.994914619570
         O           -1.867734230542    -0.938796559000    -0.022935538780    15.994914619570
         O           -1.234863230542     1.254295441000    -0.023158538780    15.994914619570
         C            1.335165769458     0.493757441000    -0.023085538780    12.000000000000
         C            2.622310769458    -0.297108559000    -0.022971538780    12.000000000000
         C           -0.964474230542     0.066993441000    -0.023055538780    12.000000000000
         H            1.236603769458     1.127723441000    -0.907928538780     1.007825032230
         H            1.236570769458     1.127927441000     0.861606461220     1.007825032230
         H            3.475738769458     0.386543441000    -0.023034538780     1.007825032230
         H            2.682795769458    -0.930683559000     0.864096461220     1.007825032230
         H            2.682827769458    -0.930889559000    -0.909888538780     1.007825032230
         H           -2.738873230542    -0.497954559000    -0.022968538780     1.007825032230

  Basis Set: AUG-CC-PVTZ
    Blend: AUG-CC-PVTZ
  Basis Set: (AUG-CC-PVTZ AUX)
    Blend: AUG-CC-PVTZ-JKFIT
	 Reference Energy          =    -341.8343345662433990 [Eh]
	 Singles Energy            =      -0.0000000000000000 [Eh]
	 Same-Spin Energy          =      -0.3254809667477105 [Eh]
	 Opposite-Spin Energy      =      -1.0112287682288195 [Eh]
	 Correlation Energy        =      -1.3367097349765300 [Eh]
	 Total Energy              =    -343.1710443012199221 [Eh]

	 ================> DF-SCS-MP2 Energies <==================
	-----------------------------------------------------------
	 SCS Same-Spin Scale       =       0.3333333333333333 [-]
	 SCS Opposite-Spin Scale   =       1.2000000000000000 [-]
	 SCS Same-Spin Energy      =      -0.1084936555825702 [Eh]
	 SCS Opposite-Spin Energy  =      -1.2134745218745833 [Eh]
	 SCS Correlation Energy    =      -1.3219681774571534 [Eh]
	 SCS Total Energy          =    -343.1563027437005644 [Eh]
	-----------------------------------------------------------

  Dipole Moment: [D]
     X:     0.4235      Y:     0.0274      Z:    -0.1631     Total:     0.4546

*** Psi4 exiting successfully. Buy a developer a beer!
