                               Psi4 1.3.2 release

  ==> Input File <==

--------------------------------------------------------------------------
#psi4
#
memory 32 gb

molecule  {
0 1
  O        0.1794810    -0.4898030     0.0000350
  O       -1.9464530    -0.9505490     0.0000960
  O       -1.3135820     1.2425430    -0.0001270
  C        1.2564470     0.4820050    -0.0000540
  C        2.5435920    -0.3088610     0.0000600
  C       -1.0653979     0.1527446    -0.0000325
  H        1.1578850     1.1159710    -0.8848970
  H        1.1578520     1.1161750     0.8846380
  H        3.3970200     0.3747910    -0.0000030
  H        2.6040770    -0.9424360     0.8871280
  H        2.6041090    -0.9426420    -0.8868570
  H       -2.8175920    -0.5097070     0.0000630
units angstrom
no_reorient  #important for SAPT in psi4, default
symmetry c1  #important for SAPT in psi4, default
}

set PROPERTIES_ORIGIN ["COM"]
properties('MP2/aug-cc-pvtz', properties = ['dipole'])
--------------------------------------------------------------------------

    Molecular point group: c1
  Charge       = 0
  Multiplicity = 1
  Basis Set: AUG-CC-PVTZ
    Blend: AUG-CC-PVTZ
  Basis Set: (AUG-CC-PVTZ AUX)
    Blend: AUG-CC-PVTZ-JKFIT

    Orbital Energies [Eh]
    ---------------------

    Doubly Occupied:

       1A    -20.611021     2A    -20.603742     3A    -20.581524
       4A    -11.435380     5A    -11.291950     6A    -11.226148
       7A     -1.525983     8A     -1.406729     9A     -1.373596
      10A     -1.037525    11A     -0.878502    12A     -0.808699
      13A     -0.736966    14A     -0.732937    15A     -0.702132
      16A     -0.638150    17A     -0.633624    18A     -0.593352
      19A     -0.547231    20A     -0.538164    21A     -0.523937
      22A     -0.520608    23A     -0.489216    24A     -0.471872

  @DF-RHF Final Energy:  -341.83111876741191

   => Energetics <=

    Nuclear Repulsion Energy =            246.2078791238744770
    One-Electron Energy =                -956.2600252521190214
    Two-Electron Energy =                 368.2210273608326361
    Total Energy =                       -341.8311187674119083
  Basis Set: (AUG-CC-PVTZ AUX)
    Blend: AUG-CC-PVTZ-RI
    Molecular point group: c1

    Geometry (in Angstrom), charge = 0, multiplicity = 1:

       Center              X                  Y                   Z               Mass
    ------------   -----------------  -----------------  -----------------  -----------------
         O            0.271567960215    -0.500471878781     0.000037015478    15.994914619570
         O           -1.854366039785    -0.961217878781     0.000098015478    15.994914619570
         O           -1.221495039785     1.231874121219    -0.000124984522    15.994914619570
         C            1.348533960215     0.471336121219    -0.000051984522    12.000000000000
         C            2.635678960215    -0.319529878781     0.000062015478    12.000000000000
         C           -0.973310939785     0.142075721219    -0.000030484522    12.000000000000
         H            1.249971960215     1.105302121219    -0.884894984522     1.007825032230
         H            1.249938960215     1.105506121219     0.884640015478     1.007825032230
         H            3.489106960215     0.364122121219    -0.000000984522     1.007825032230
         H            2.696163960215    -0.953104878781     0.887130015478     1.007825032230
         H            2.696195960215    -0.953310878781    -0.886854984522     1.007825032230
         H           -2.725505039785    -0.520375878781     0.000065015478     1.007825032230

  Basis Set: AUG-CC-PVTZ
    Blend: AUG-CC-PVTZ
  Basis Set: (AUG-CC-PVTZ AUX)
    Blend: AUG-CC-PVTZ-JKFIT
	 Reference Energy          =    -341.8311187674119083 [Eh]
	 Singles Energy            =      -0.0000000000000000 [Eh]
	 Same-Spin Energy          =      -0.3234544811351681 [Eh]
	 Opposite-Spin Energy      =      -1.0070306128726290 [Eh]
	 Correlation Energy        =      -1.3304850940077970 [Eh]
	 Total Energy              =    -343.1616038614196782 [Eh]

	 ================> DF-SCS-MP2 Energies <==================
	-----------------------------------------------------------
	 SCS Same-Spin Scale       =       0.3333333333333333 [-]
	 SCS Opposite-Spin Scale   =       1.2000000000000000 [-]
	 SCS Same-Spin Energy      =      -0.1078181603783894 [Eh]
	 SCS Opposite-Spin Energy  =      -1.2084367354471548 [Eh]
	 SCS Correlation Energy    =      -1.3162548958255442 [Eh]
	 SCS Total Energy          =    -343.1473736632374312 [Eh]
	-----------------------------------------------------------

  Dipole Moment: [D]
     X:     0.6292      Y:     0.7015      Z:    -0.0001     Total:     0.9423

*** Psi4 exiting successfully. Buy a developer a beer!
