                               Psi4 1.3.2 release

  ==> Input File <==

--------------------------------------------------------------------------
#psi4
#
memory 32 gb

molecule  {
0 1
  O        0.1469435    -0.4484780    -0.0864828
  O       -1.9464530    -0.9505490     0.0000960
  O       -1.3135820     1.2425430    -0.0001270
  C        1.2564470     0.4820050    -0.0000540
  C        2.5435920    -0.3088610     0.0000600
  C       -1.0431930     0.0552410    -0.0000240
  H        1.1578850     1.1159710    -0.8848970
  H        1.1578520     1.1161750     0.8846380
  H        3.3970200     0.3747910    -0.0000030
  H        2.6040770    -0.9424360     0.8871280
  H        2.6041090    -0.9426420    -0.8868570
  H       -2.8175920    -0.5097070     0.0000630
units angstrom
no_reorient  #important for SAPT in psi4, default
symmetry c1  #important for SAPT in psi4, default
}

set PROPERTIES_ORIGIN ["COM"]
properties('MP2/aug-cc-pvtz', properties = ['dipole'])
--------------------------------------------------------------------------

    Molecular point group: c1
  Charge       = 0
  Multiplicity = 1
  Basis Set: AUG-CC-PVTZ
    Blend: AUG-CC-PVTZ
  Basis Set: (AUG-CC-PVTZ AUX)
    Blend: AUG-CC-PVTZ-JKFIT

    Orbital Energies [Eh]
    ---------------------

    Doubly Occupied:

       1A    -20.621435     2A    -20.616852     3A    -20.544924
       4A    -11.435365     5A    -11.302401     6A    -11.233579
       7A     -1.517140     8A     -1.408257     9A     -1.360530
      10A     -1.056223    11A     -0.904910    12A     -0.815882
      13A     -0.752978    14A     -0.713845    15A     -0.710362
      16A     -0.637406    17A     -0.627868    18A     -0.591194
      19A     -0.559982    20A     -0.549763    21A     -0.524417
      22A     -0.496598    23A     -0.473594    24A     -0.470972

  @DF-RHF Final Energy:  -341.85013577952071

   => Energetics <=

    Nuclear Repulsion Energy =            247.0415409641377380
    One-Electron Energy =                -957.9303994746675244
    Two-Electron Energy =                 369.0387227310090452
    Total Energy =                       -341.8501357795207127
  Basis Set: (AUG-CC-PVTZ AUX)
    Blend: AUG-CC-PVTZ-RI
    Molecular point group: c1

    Geometry (in Angstrom), charge = 0, multiplicity = 1:

       Center              X                  Y                   Z               Mass
    ------------   -----------------  -----------------  -----------------  -----------------
         O            0.241851419401    -0.453492721556    -0.071111276721    15.994914619570
         O           -1.851545080599    -0.955563721556     0.015467523279    15.994914619570
         O           -1.218674080599     1.237528278444     0.015244523279    15.994914619570
         C            1.351354919401     0.476990278444     0.015317523279    12.000000000000
         C            2.638499919401    -0.313875721556     0.015431523279    12.000000000000
         C           -0.948285080599     0.050226278444     0.015347523279    12.000000000000
         H            1.252792919401     1.110956278444    -0.869525476721     1.007825032230
         H            1.252759919401     1.111160278444     0.900009523279     1.007825032230
         H            3.491927919401     0.369776278444     0.015368523279     1.007825032230
         H            2.698984919401    -0.947450721556     0.902499523279     1.007825032230
         H            2.699016919401    -0.947656721556    -0.871485476721     1.007825032230
         H           -2.722684080599    -0.514721721556     0.015434523279     1.007825032230

  Basis Set: AUG-CC-PVTZ
    Blend: AUG-CC-PVTZ
  Basis Set: (AUG-CC-PVTZ AUX)
    Blend: AUG-CC-PVTZ-JKFIT
	 Reference Energy          =    -341.8501357795207127 [Eh]
	 Singles Energy            =      -0.0000000000000000 [Eh]
	 Same-Spin Energy          =      -0.3232016016495663 [Eh]
	 Opposite-Spin Energy      =      -1.0047977154910195 [Eh]
	 Correlation Energy        =      -1.3279993171405857 [Eh]
	 Total Energy              =    -343.1781350966613218 [Eh]

	 ================> DF-SCS-MP2 Energies <==================
	-----------------------------------------------------------
	 SCS Same-Spin Scale       =       0.3333333333333333 [-]
	 SCS Opposite-Spin Scale   =       1.2000000000000000 [-]
	 SCS Same-Spin Energy      =      -0.1077338672165221 [Eh]
	 SCS Opposite-Spin Energy  =      -1.2057572585892233 [Eh]
	 SCS Correlation Energy    =      -1.3134911258057453 [Eh]
	 SCS Total Energy          =    -343.1636269053264527 [Eh]
	-----------------------------------------------------------

  Dipole Moment: [D]
     X:     1.2465      Y:    -0.2800      Z:     0.0970     Total:     1.2812

*** Psi4 exiting successfully. Buy a developer a beer!
