                               Psi4 1.3.2 release

  ==> Input File <==

--------------------------------------------------------------------------
#psi4
#
memory 32 gb

molecule  {
0 1
  O        0.1884420    -0.4994018     0.0216809
  O       -1.9464530    -0.9505490     0.0000960
  O       -1.3135820     1.2425430    -0.0001270
  C        1.2564470     0.4820050    -0.0000540
  C        2.5435920    -0.3088610     0.0000600
  C       -1.0431930     0.0552410    -0.0000240
  H        1.1578850     1.1159710    -0.8848970
  H        1.1578520     1.1161750     0.8846380
  H        3.3970200     0.3747910    -0.0000030
  H        2.6040770    -0.9424360     0.8871280
  H        2.6041090    -0.9426420    -0.8868570
  H       -2.8175920    -0.5097070     0.0000630
units angstrom
no_reorient  #important for SAPT in psi4, default
symmetry c1  #important for SAPT in psi4, default
}

set PROPERTIES_ORIGIN ["COM"]
properties('MP2/aug-cc-pvtz', properties = ['dipole'])
--------------------------------------------------------------------------

    Molecular point group: c1
  Charge       = 0
  Multiplicity = 1
  Basis Set: AUG-CC-PVTZ
    Blend: AUG-CC-PVTZ
  Basis Set: (AUG-CC-PVTZ AUX)
    Blend: AUG-CC-PVTZ-JKFIT

    Orbital Energies [Eh]
    ---------------------

    Doubly Occupied:

       1A    -20.625901     2A    -20.617221     3A    -20.556320
       4A    -11.443813     5A    -11.297706     6A    -11.229345
       7A     -1.505717     8A     -1.402106     9A     -1.367121
      10A     -1.047613    11A     -0.895026    12A     -0.820095
      13A     -0.743146    14A     -0.717992    15A     -0.703014
      16A     -0.635177    17A     -0.630022    18A     -0.593083
      19A     -0.551549    20A     -0.546842    21A     -0.524014
      22A     -0.497094    23A     -0.479595    24A     -0.475078

  @DF-RHF Final Energy:  -341.84792945695648

   => Energetics <=

    Nuclear Repulsion Energy =            245.8020264604316765
    One-Electron Energy =                -955.4907313854607764
    Two-Electron Energy =                 367.8407754680726498
    Total Energy =                       -341.8479294569564786
  Basis Set: (AUG-CC-PVTZ AUX)
    Blend: AUG-CC-PVTZ-RI
    Molecular point group: c1

    Geometry (in Angstrom), charge = 0, multiplicity = 1:

       Center              X                  Y                   Z               Mass
    ------------   -----------------  -----------------  -----------------  -----------------
         O            0.275977349427    -0.495369464943     0.017836199874    15.994914619570
         O           -1.858917650573    -0.946516664943    -0.003748700126    15.994914619570
         O           -1.226046650573     1.246575335057    -0.003971700126    15.994914619570
         C            1.343982349427     0.486037335057    -0.003898700126    12.000000000000
         C            2.631127349427    -0.304828664943    -0.003784700126    12.000000000000
         C           -0.955657650573     0.059273335057    -0.003868700126    12.000000000000
         H            1.245420349427     1.120003335057    -0.888741700126     1.007825032230
         H            1.245387349427     1.120207335057     0.880793299874     1.007825032230
         H            3.484555349427     0.378823335057    -0.003847700126     1.007825032230
         H            2.691612349427    -0.938403664943     0.883283299874     1.007825032230
         H            2.691644349427    -0.938609664943    -0.890701700126     1.007825032230
         H           -2.730056650573    -0.505674664943    -0.003781700126     1.007825032230

  Basis Set: AUG-CC-PVTZ
    Blend: AUG-CC-PVTZ
  Basis Set: (AUG-CC-PVTZ AUX)
    Blend: AUG-CC-PVTZ-JKFIT
	 Reference Energy          =    -341.8479294569564786 [Eh]
	 Singles Energy            =      -0.0000000000000000 [Eh]
	 Same-Spin Energy          =      -0.3241463652384784 [Eh]
	 Opposite-Spin Energy      =      -1.0074924410891519 [Eh]
	 Correlation Energy        =      -1.3316388063276303 [Eh]
	 Total Energy              =    -343.1795682632841249 [Eh]

	 ================> DF-SCS-MP2 Energies <==================
	-----------------------------------------------------------
	 SCS Same-Spin Scale       =       0.3333333333333333 [-]
	 SCS Opposite-Spin Scale   =       1.2000000000000000 [-]
	 SCS Same-Spin Energy      =      -0.1080487884128261 [Eh]
	 SCS Opposite-Spin Energy  =      -1.2089909293069823 [Eh]
	 SCS Correlation Energy    =      -1.3170397177198083 [Eh]
	 SCS Total Energy          =    -343.1649691746762869 [Eh]
	-----------------------------------------------------------

  Dipole Moment: [D]
     X:     0.8666      Y:    -0.1227      Z:    -0.0257     Total:     0.8757

*** Psi4 exiting successfully. Buy a developer a beer!
