                               Psi4 1.3.2 release

  ==> Input File <==

--------------------------------------------------------------------------
#psi4
#
memory 32 gb

molecule  {
0 1
  O        0.1794810    -0.4898030     0.0000350
  O       -1.9464530    -0.9505490     0.0000960
  O       -1.3135820     1.2425430    -0.0001270
  C        1.2564470     0.4820050    -0.0000540
  C        2.5435920    -0.3088610     0.0000600
  C       -1.0086417     0.0231050    -0.0000211
  H        1.1578850     1.1159710    -0.8848970
  H        1.1578520     1.1161750     0.8846380
  H        3.3970200     0.3747910    -0.0000030
  H        2.6040770    -0.9424360     0.8871280
  H        2.6041090    -0.9426420    -0.8868570
  H       -2.8175920    -0.5097070     0.0000630
units angstrom
no_reorient  #important for SAPT in psi4, default
symmetry c1  #important for SAPT in psi4, default
}

set PROPERTIES_ORIGIN ["COM"]
properties('MP2/aug-cc-pvtz', properties = ['dipole'])
--------------------------------------------------------------------------

    Molecular point group: c1
  Charge       = 0
  Multiplicity = 1
  Basis Set: AUG-CC-PVTZ
    Blend: AUG-CC-PVTZ
  Basis Set: (AUG-CC-PVTZ AUX)
    Blend: AUG-CC-PVTZ-JKFIT

    Orbital Energies [Eh]
    ---------------------

    Doubly Occupied:

       1A    -20.628315     2A    -20.622208     3A    -20.542540
       4A    -11.443092     5A    -11.304897     6A    -11.234064
       7A     -1.515690     8A     -1.413281     9A     -1.338211
      10A     -1.058980    11A     -0.905700    12A     -0.822700
      13A     -0.755808    14A     -0.712556    15A     -0.709152
      16A     -0.635589    17A     -0.629046    18A     -0.585695
      19A     -0.558722    20A     -0.551700    21A     -0.529077
      22A     -0.496063    23A     -0.467823    24A     -0.467025

  @DF-RHF Final Energy:  -341.84528882271536

   => Energetics <=

    Nuclear Repulsion Energy =            246.2388533808687043
    One-Electron Energy =                -956.3124179099894491
    Two-Electron Energy =                 368.2282757064053840
    Total Energy =                       -341.8452888227153608
  Basis Set: (AUG-CC-PVTZ AUX)
    Blend: AUG-CC-PVTZ-RI
    Molecular point group: c1

    Geometry (in Angstrom), charge = 0, multiplicity = 1:

       Center              X                  Y                   Z               Mass
    ------------   -----------------  -----------------  -----------------  -----------------
         O            0.264003130882    -0.483192683755     0.000035496014    15.994914619570
         O           -1.861930869118    -0.943938683755     0.000096496014    15.994914619570
         O           -1.229059869118     1.249153316245    -0.000126503986    15.994914619570
         C            1.340969130882     0.488615316245    -0.000053503986    12.000000000000
         C            2.628114130882    -0.302250683755     0.000060496014    12.000000000000
         C           -0.924119569118     0.029715316245    -0.000020603986    12.000000000000
         H            1.242407130882     1.122581316245    -0.884896503986     1.007825032230
         H            1.242374130882     1.122785316245     0.884638496014     1.007825032230
         H            3.481542130882     0.381401316245    -0.000002503986     1.007825032230
         H            2.688599130882    -0.935825683755     0.887128496014     1.007825032230
         H            2.688631130882    -0.936031683755    -0.886856503986     1.007825032230
         H           -2.733069869118    -0.503096683755     0.000063496014     1.007825032230

  Basis Set: AUG-CC-PVTZ
    Blend: AUG-CC-PVTZ
  Basis Set: (AUG-CC-PVTZ AUX)
    Blend: AUG-CC-PVTZ-JKFIT
	 Reference Energy          =    -341.8452888227153608 [Eh]
	 Singles Energy            =      -0.0000000000000000 [Eh]
	 Same-Spin Energy          =      -0.3240737906524880 [Eh]
	 Opposite-Spin Energy      =      -1.0068850414993957 [Eh]
	 Correlation Energy        =      -1.3309588321518837 [Eh]
	 Total Energy              =    -343.1762476548672680 [Eh]

	 ================> DF-SCS-MP2 Energies <==================
	-----------------------------------------------------------
	 SCS Same-Spin Scale       =       0.3333333333333333 [-]
	 SCS Opposite-Spin Scale   =       1.2000000000000000 [-]
	 SCS Same-Spin Energy      =      -0.1080245968841627 [Eh]
	 SCS Opposite-Spin Energy  =      -1.2082620497992749 [Eh]
	 SCS Correlation Energy    =      -1.3162866466834375 [Eh]
	 SCS Total Energy          =    -343.1615754693988265 [Eh]
	-----------------------------------------------------------

  Dipole Moment: [D]
     X:     1.3691      Y:    -0.4056      Z:     0.0000     Total:     1.4279

*** Psi4 exiting successfully. Buy a developer a beer!
