                               Psi4 1.3.2 release

  ==> Input File <==

--------------------------------------------------------------------------
#psi4
#
memory 32 gb

molecule  {
0 1
  O       -1.2481010    -0.6526680     1.0325150
  O       -1.2449750     2.4828510    -0.6861630
  O       -3.2165300     1.5210990     0.7448870
  O       -2.3570290    -3.0668370     0.0949400
  O        1.3605300     2.2470340    -0.0765420
  N        0.8434040     0.0452230     0.2559430
  N        3.1207773     0.7496315    -0.0019861
  N        4.7164630    -0.8366550    -0.5722980
  C       -1.2894840     1.0784300    -0.5920770
  C       -2.7151710     0.6552070    -0.2573930
  C       -0.5254080     0.4815200     0.6000940
  C       -2.5292560    -0.7168860     0.3610560
  C       -2.5283440    -1.8503930    -0.6392900
  C        1.2197750    -1.2614080     0.3112740
  C        1.7555940     1.0674350    -0.0594030
  C        2.5111010    -1.6091400     0.0469950
  C        3.4119830    -0.5506530    -0.2589250
  H       -0.9376060     0.5914040    -1.5148910
  H       -3.3625820     0.6426650    -1.1464650
  H       -0.4402900     1.2218800     1.4039980
  H       -3.2819570    -0.9087340     1.1307830
  H       -1.7133080    -1.7003050    -1.3694640
  H       -3.4855610    -1.8340040    -1.1841350
  H       -0.2975250     2.7131790    -0.5250000
  H       -2.8475560     2.3997430     0.5086630
  H        0.4343110    -1.9634370     0.5690680
  H       -2.4338740    -3.7984320    -0.5432330
  H        2.8291120    -2.6453980     0.0739220
  H        5.1251800    -1.6708610    -0.1624140
  H        5.3198140    -0.0200540    -0.5682940
units angstrom
no_reorient  #important for SAPT in psi4, default
symmetry c1  #important for SAPT in psi4, default
}

set PROPERTIES_ORIGIN ["COM"]
properties('MP2/aug-cc-pvtz', properties = ['dipole'])
--------------------------------------------------------------------------

    Molecular point group: c1
  Charge       = 0
  Multiplicity = 1
  Basis Set: AUG-CC-PVTZ
    Blend: AUG-CC-PVTZ
  Basis Set: (AUG-CC-PVTZ AUX)
    Blend: AUG-CC-PVTZ-JKFIT

    Orbital Energies [Eh]
    ---------------------

    Doubly Occupied:

       1A    -20.582502     2A    -20.582006     3A    -20.558185
       4A    -20.557992     5A    -20.526654     6A    -15.637218
       7A    -15.601231     8A    -15.558952     9A    -11.390638
      10A    -11.361046    11A    -11.342281    12A    -11.327996
      13A    -11.301547    14A    -11.297301    15A    -11.297232
      16A    -11.293410    17A    -11.248902    18A     -1.429603
      19A     -1.396055    20A     -1.380546    21A     -1.373177
      22A     -1.346765    23A     -1.302637    24A     -1.271798
      25A     -1.171428    26A     -1.081208    27A     -1.068136
      28A     -1.021445    29A     -0.934264    30A     -0.909279
      31A     -0.868886    32A     -0.831510    33A     -0.811790
      34A     -0.760549    35A     -0.752114    36A     -0.736345
      37A     -0.720850    38A     -0.703315    39A     -0.698955
      40A     -0.686346    41A     -0.673466    42A     -0.655076
      43A     -0.651406    44A     -0.637098    45A     -0.617280
      46A     -0.614376    47A     -0.606441    48A     -0.596188
      49A     -0.575288    50A     -0.568190    51A     -0.553362
      52A     -0.543763    53A     -0.535687    54A     -0.526293
      55A     -0.500711    56A     -0.478202    57A     -0.475702
      58A     -0.462565    59A     -0.462328    60A     -0.453404
      61A     -0.442043    62A     -0.431631    63A     -0.391855
      64A     -0.348839

  @DF-RHF Final Energy:  -886.35421852648972

   => Energetics <=

    Nuclear Repulsion Energy =           1321.9191748036805620
    One-Electron Energy =               -3841.5002001219932026
    Two-Electron Energy =                1633.2268067918230372
    Total Energy =                       -886.3542185264896034
  Basis Set: (AUG-CC-PVTZ AUX)
    Blend: AUG-CC-PVTZ-RI
    Molecular point group: c1

    Geometry (in Angstrom), charge = 0, multiplicity = 1:

       Center              X                  Y                   Z               Mass
    ------------   -----------------  -----------------  -----------------  -----------------
         O           -1.251761941238    -0.654345952992     1.015709113802    15.994914619570
         O           -1.248635941238     2.481173047008    -0.702968886198    15.994914619570
         O           -3.220190941238     1.519421047008     0.728081113802    15.994914619570
         O           -2.360689941238    -3.068514952992     0.078134113802    15.994914619570
         O            1.356869058762     2.245356047008    -0.093347886198    15.994914619570
         N            0.839743058762     0.043545047008     0.239137113802    14.003074004430
         N            3.117116358762     0.747953547008    -0.018791986198    14.003074004430
         N            4.712802058762    -0.838332952992    -0.589103886198    14.003074004430
         C           -1.293144941238     1.076752047008    -0.608882886198    12.000000000000
         C           -2.718831941238     0.653529047008    -0.274198886198    12.000000000000
         C           -0.529068941238     0.479842047008     0.583288113802    12.000000000000
         C           -2.532916941238    -0.718563952992     0.344250113802    12.000000000000
         C           -2.532004941238    -1.852070952992    -0.656095886198    12.000000000000
         C            1.216114058762    -1.263085952992     0.294468113802    12.000000000000
         C            1.751933058762     1.065757047008    -0.076208886198    12.000000000000
         C            2.507440058762    -1.610817952992     0.030189113802    12.000000000000
         C            3.408322058762    -0.552330952992    -0.275730886198    12.000000000000
         H           -0.941266941238     0.589726047008    -1.531696886198     1.007825032230
         H           -3.366242941238     0.640987047008    -1.163270886198     1.007825032230
         H           -0.443950941238     1.220202047008     1.387192113802     1.007825032230
         H           -3.285617941238    -0.910411952992     1.113977113802     1.007825032230
         H           -1.716968941238    -1.701982952992    -1.386269886198     1.007825032230
         H           -3.489221941238    -1.835681952992    -1.200940886198     1.007825032230
         H           -0.301185941238     2.711501047008    -0.541805886198     1.007825032230
         H           -2.851216941238     2.398065047008     0.491857113802     1.007825032230
         H            0.430650058762    -1.965114952992     0.552262113802     1.007825032230
         H           -2.437534941238    -3.800109952992    -0.560038886198     1.007825032230
         H            2.825451058762    -2.647075952992     0.057116113802     1.007825032230
         H            5.121519058762    -1.672538952992    -0.179219886198     1.007825032230
         H            5.316153058762    -0.021731952992    -0.585099886198     1.007825032230

  Basis Set: AUG-CC-PVTZ
    Blend: AUG-CC-PVTZ
  Basis Set: (AUG-CC-PVTZ AUX)
    Blend: AUG-CC-PVTZ-JKFIT
	 Reference Energy          =    -886.3542185264897171 [Eh]
	 Singles Energy            =      -0.0000000000000000 [Eh]
	 Same-Spin Energy          =      -0.9024545623836500 [Eh]
	 Opposite-Spin Energy      =      -2.7182734154488495 [Eh]
	 Correlation Energy        =      -3.6207279778324994 [Eh]
	 Total Energy              =    -889.9749465043222472 [Eh]

	 ================> DF-SCS-MP2 Energies <==================
	-----------------------------------------------------------
	 SCS Same-Spin Scale       =       0.3333333333333333 [-]
	 SCS Opposite-Spin Scale   =       1.2000000000000000 [-]
	 SCS Same-Spin Energy      =      -0.3008181874612166 [Eh]
	 SCS Opposite-Spin Energy  =      -3.2619280985386192 [Eh]
	 SCS Correlation Energy    =      -3.5627462859998360 [Eh]
	 SCS Total Energy          =    -889.9169648124895957 [Eh]
	-----------------------------------------------------------

  Dipole Moment: [D]
     X:     1.5804      Y:    -5.9023      Z:    -2.2144     Total:     6.4991

*** Psi4 exiting successfully. Buy a developer a beer!
