                               Psi4 1.3.2 release

  ==> Input File <==

--------------------------------------------------------------------------
#psi4
#
memory 32 gb

molecule  {
0 1
  O       -1.2481010    -0.6526680     1.0325150
  O       -1.2449750     2.4828510    -0.6861630
  O       -3.2165300     1.5210990     0.7448870
  O       -2.3570290    -3.0668370     0.0949400
  O        1.3605300     2.2470340    -0.0765420
  N        0.8434040     0.0452230     0.2559430
  N        3.0572260     0.7205030    -0.2937270
  N        4.7164630    -0.8366550    -0.5722980
  C       -1.2894840     1.0784300    -0.5920770
  C       -2.7151710     0.6552070    -0.2573930
  C       -0.5254080     0.4815200     0.6000940
  C       -2.5292560    -0.7168860     0.3610560
  C       -2.5283440    -1.8503930    -0.6392900
  C        1.2197750    -1.2614080     0.3112740
  C        1.7555940     1.0674350    -0.0594030
  C        2.5111010    -1.6091400     0.0469950
  C        3.4119830    -0.5506530    -0.2589250
  H       -0.9376060     0.5914040    -1.5148910
  H       -3.3625820     0.6426650    -1.1464650
  H       -0.4402900     1.2218800     1.4039980
  H       -3.2819570    -0.9087340     1.1307830
  H       -1.7133080    -1.7003050    -1.3694640
  H       -3.4855610    -1.8340040    -1.1841350
  H       -0.2975250     2.7131790    -0.5250000
  H       -2.8475560     2.3997430     0.5086630
  H        0.3779216    -1.9896987     0.3269305
  H       -2.4338740    -3.7984320    -0.5432330
  H        2.8291120    -2.6453980     0.0739220
  H        5.1251800    -1.6708610    -0.1624140
  H        5.3198140    -0.0200540    -0.5682940
units angstrom
no_reorient  #important for SAPT in psi4, default
symmetry c1  #important for SAPT in psi4, default
}

set PROPERTIES_ORIGIN ["COM"]
properties('MP2/aug-cc-pvtz', properties = ['dipole'])
--------------------------------------------------------------------------

    Molecular point group: c1
  Charge       = 0
  Multiplicity = 1
  Basis Set: AUG-CC-PVTZ
    Blend: AUG-CC-PVTZ
  Basis Set: (AUG-CC-PVTZ AUX)
    Blend: AUG-CC-PVTZ-JKFIT

    Orbital Energies [Eh]
    ---------------------

    Doubly Occupied:

       1A    -20.583041     2A    -20.581023     3A    -20.557758
       4A    -20.557210     5A    -20.522032     6A    -15.636459
       7A    -15.600034     8A    -15.553638     9A    -11.388292
      10A    -11.358251    11A    -11.341274    12A    -11.331388
      13A    -11.301910    14A    -11.296913    15A    -11.296575
      16A    -11.292945    17A    -11.249416    18A     -1.428999
      19A     -1.396366    20A     -1.380293    21A     -1.373255
      22A     -1.346263    23A     -1.306156    24A     -1.273721
      25A     -1.182399    26A     -1.081794    27A     -1.067748
      28A     -1.021437    29A     -0.935538    30A     -0.907598
      31A     -0.877488    32A     -0.832059    33A     -0.811885
      34A     -0.767173    35A     -0.750620    36A     -0.736468
      37A     -0.719901    38A     -0.703590    39A     -0.698481
      40A     -0.683462    41A     -0.672439    42A     -0.655410
      43A     -0.651660    44A     -0.639258    45A     -0.617601
      46A     -0.613102    47A     -0.606458    48A     -0.593784
      49A     -0.575922    50A     -0.569811    51A     -0.554797
      52A     -0.545701    53A     -0.537141    54A     -0.531987
      55A     -0.497178    56A     -0.478228    57A     -0.474497
      58A     -0.462064    59A     -0.460116    60A     -0.452730
      61A     -0.439136    62A     -0.433518    63A     -0.395291
      64A     -0.350303

  @DF-RHF Final Energy:  -886.36814925423039

   => Energetics <=

    Nuclear Repulsion Energy =           1323.7285145849157288
    One-Electron Energy =               -3845.1153533301962852
    Two-Electron Energy =                1635.0186894910500541
    Total Energy =                       -886.3681492542302749
  Basis Set: (AUG-CC-PVTZ AUX)
    Blend: AUG-CC-PVTZ-RI
    Molecular point group: c1

    Geometry (in Angstrom), charge = 0, multiplicity = 1:

       Center              X                  Y                   Z               Mass
    ------------   -----------------  -----------------  -----------------  -----------------
         O           -1.247867245232    -0.652559109667     1.033518902049    15.994914619570
         O           -1.244741245232     2.482959890333    -0.685159097951    15.994914619570
         O           -3.216296245232     1.521207890333     0.745890902049    15.994914619570
         O           -2.356795245232    -3.066728109667     0.095943902049    15.994914619570
         O            1.360763754768     2.247142890333    -0.075538097951    15.994914619570
         N            0.843637754768     0.045331890333     0.256946902049    14.003074004430
         N            3.057459754768     0.720611890333    -0.292723097951    14.003074004430
         N            4.716696754768    -0.836546109667    -0.571294097951    14.003074004430
         C           -1.289250245232     1.078538890333    -0.591073097951    12.000000000000
         C           -2.714937245232     0.655315890333    -0.256389097951    12.000000000000
         C           -0.525174245232     0.481628890333     0.601097902049    12.000000000000
         C           -2.529022245232    -0.716777109667     0.362059902049    12.000000000000
         C           -2.528110245232    -1.850284109667    -0.638286097951    12.000000000000
         C            1.220008754768    -1.261299109667     0.312277902049    12.000000000000
         C            1.755827754768     1.067543890333    -0.058399097951    12.000000000000
         C            2.511334754768    -1.609031109667     0.047998902049    12.000000000000
         C            3.412216754768    -0.550544109667    -0.257921097951    12.000000000000
         H           -0.937372245232     0.591512890333    -1.513887097951     1.007825032230
         H           -3.362348245232     0.642773890333    -1.145461097951     1.007825032230
         H           -0.440056245232     1.221988890333     1.405001902049     1.007825032230
         H           -3.281723245232    -0.908625109667     1.131786902049     1.007825032230
         H           -1.713074245232    -1.700196109667    -1.368460097951     1.007825032230
         H           -3.485327245232    -1.833895109667    -1.183131097951     1.007825032230
         H           -0.297291245232     2.713287890333    -0.523996097951     1.007825032230
         H           -2.847322245232     2.399851890333     0.509666902049     1.007825032230
         H            0.378155354768    -1.989589809667     0.327934402049     1.007825032230
         H           -2.433640245232    -3.798323109667    -0.542229097951     1.007825032230
         H            2.829345754768    -2.645289109667     0.074925902049     1.007825032230
         H            5.125413754768    -1.670752109667    -0.161410097951     1.007825032230
         H            5.320047754768    -0.019945109667    -0.567290097951     1.007825032230

  Basis Set: AUG-CC-PVTZ
    Blend: AUG-CC-PVTZ
  Basis Set: (AUG-CC-PVTZ AUX)
    Blend: AUG-CC-PVTZ-JKFIT
	 Reference Energy          =    -886.3681492542303886 [Eh]
	 Singles Energy            =      -0.0000000000000000 [Eh]
	 Same-Spin Energy          =      -0.9016205239234363 [Eh]
	 Opposite-Spin Energy      =      -2.7158108664393792 [Eh]
	 Correlation Energy        =      -3.6174313903628157 [Eh]
	 Total Energy              =    -889.9855806445932558 [Eh]

	 ================> DF-SCS-MP2 Energies <==================
	-----------------------------------------------------------
	 SCS Same-Spin Scale       =       0.3333333333333333 [-]
	 SCS Opposite-Spin Scale   =       1.2000000000000000 [-]
	 SCS Same-Spin Energy      =      -0.3005401746411454 [Eh]
	 SCS Opposite-Spin Energy  =      -3.2589730397272549 [Eh]
	 SCS Correlation Energy    =      -3.5595132143684003 [Eh]
	 SCS Total Energy          =    -889.9276624685987827 [Eh]
	-----------------------------------------------------------

  Dipole Moment: [D]
     X:     1.7097      Y:    -5.9544      Z:    -1.9625     Total:     6.4984

*** Psi4 exiting successfully. Buy a developer a beer!
