                               Psi4 1.3.2 release

  ==> Input File <==

--------------------------------------------------------------------------
#psi4
#
memory 32 gb

molecule  {
0 1
  O       -1.2481010    -0.6526680     1.0325150
  O       -1.2449750     2.4828510    -0.6861630
  O       -3.2165300     1.5210990     0.7448870
  O       -2.3570290    -3.0668370     0.0949400
  O        1.3605300     2.2470340    -0.0765420
  N        0.8434040     0.0452230     0.2559430
  N        3.0572260     0.7205030    -0.2937270
  N        4.7164630    -0.8366550    -0.5722980
  C       -1.2894840     1.0784300    -0.5920770
  C       -2.7151710     0.6552070    -0.2573930
  C       -0.5254080     0.4815200     0.6000940
  C       -2.5292560    -0.7168860     0.3610560
  C       -2.5283440    -1.8503930    -0.6392900
  C        1.2197750    -1.2614080     0.3112740
  C        1.7936874     1.0816518     0.0849811
  C        2.5111010    -1.6091400     0.0469950
  C        3.4119830    -0.5506530    -0.2589250
  H       -0.9376060     0.5914040    -1.5148910
  H       -3.3625820     0.6426650    -1.1464650
  H       -0.4402900     1.2218800     1.4039980
  H       -3.2819570    -0.9087340     1.1307830
  H       -1.7133080    -1.7003050    -1.3694640
  H       -3.4855610    -1.8340040    -1.1841350
  H       -0.2975250     2.7131790    -0.5250000
  H       -2.8475560     2.3997430     0.5086630
  H        0.4343110    -1.9634370     0.5690680
  H       -2.4338740    -3.7984320    -0.5432330
  H        2.8291120    -2.6453980     0.0739220
  H        5.1251800    -1.6708610    -0.1624140
  H        5.3198140    -0.0200540    -0.5682940
units angstrom
no_reorient  #important for SAPT in psi4, default
symmetry c1  #important for SAPT in psi4, default
}

set PROPERTIES_ORIGIN ["COM"]
properties('MP2/aug-cc-pvtz', properties = ['dipole'])
--------------------------------------------------------------------------

    Molecular point group: c1
  Charge       = 0
  Multiplicity = 1
  Basis Set: AUG-CC-PVTZ
    Blend: AUG-CC-PVTZ
  Basis Set: (AUG-CC-PVTZ AUX)
    Blend: AUG-CC-PVTZ-JKFIT

    Orbital Energies [Eh]
    ---------------------

    Doubly Occupied:

       1A    -20.581863     2A    -20.581223     3A    -20.557239
       4A    -20.556482     5A    -20.521900     6A    -15.637092
       7A    -15.599863     8A    -15.554457     9A    -11.390931
      10A    -11.358743    11A    -11.341111    12A    -11.328523
      13A    -11.300668    14A    -11.296353    15A    -11.295375
      16A    -11.292168    17A    -11.248867    18A     -1.428306
      19A     -1.392645    20A     -1.379431    21A     -1.372238
      22A     -1.345513    23A     -1.304014    24A     -1.272668
      25A     -1.182433    26A     -1.081633    27A     -1.066996
      28A     -1.020536    29A     -0.935048    30A     -0.907388
      31A     -0.877284    32A     -0.831480    33A     -0.811298
      34A     -0.766466    35A     -0.751971    36A     -0.734797
      37A     -0.720083    38A     -0.701867    39A     -0.697628
      40A     -0.685526    41A     -0.672414    42A     -0.652961
      43A     -0.650956    44A     -0.638280    45A     -0.621693
      46A     -0.612429    47A     -0.605954    48A     -0.592149
      49A     -0.574890    50A     -0.569277    51A     -0.553041
      52A     -0.546163    53A     -0.536448    54A     -0.530761
      55A     -0.497090    56A     -0.476985    57A     -0.473779
      58A     -0.461462    59A     -0.459133    60A     -0.451950
      61A     -0.439827    62A     -0.434679    63A     -0.392753
      64A     -0.349848

  @DF-RHF Final Energy:  -886.36361672304668

   => Energetics <=

    Nuclear Repulsion Energy =           1322.9330345660512194
    One-Electron Energy =               -3843.5832403686272301
    Two-Electron Energy =                1634.2865890795294490
    Total Energy =                       -886.3636167230467890
  Basis Set: (AUG-CC-PVTZ AUX)
    Blend: AUG-CC-PVTZ-RI
    Molecular point group: c1

    Geometry (in Angstrom), charge = 0, multiplicity = 1:

       Center              X                  Y                   Z               Mass
    ------------   -----------------  -----------------  -----------------  -----------------
         O           -1.249981527678    -0.653369807064     1.025387436919    15.994914619570
         O           -1.246855527678     2.482149192936    -0.693290563081    15.994914619570
         O           -3.218410527678     1.520397192936     0.737759436919    15.994914619570
         O           -2.358909527678    -3.067538807064     0.087812436919    15.994914619570
         O            1.358649472322     2.246332192936    -0.083669563081    15.994914619570
         N            0.841523472322     0.044521192936     0.248815436919    14.003074004430
         N            3.055345472322     0.719801192936    -0.300854563081    14.003074004430
         N            4.714582472322    -0.837356807064    -0.579425563081    14.003074004430
         C           -1.291364527678     1.077728192936    -0.599204563081    12.000000000000
         C           -2.717051527678     0.654505192936    -0.264520563081    12.000000000000
         C           -0.527288527678     0.480818192936     0.592966436919    12.000000000000
         C           -2.531136527678    -0.717587807064     0.353928436919    12.000000000000
         C           -2.530224527678    -1.851094807064    -0.646417563081    12.000000000000
         C            1.217894472322    -1.262109807064     0.304146436919    12.000000000000
         C            1.791806872322     1.080949992936     0.077853536919    12.000000000000
         C            2.509220472322    -1.609841807064     0.039867436919    12.000000000000
         C            3.410102472322    -0.551354807064    -0.266052563081    12.000000000000
         H           -0.939486527678     0.590702192936    -1.522018563081     1.007825032230
         H           -3.364462527678     0.641963192936    -1.153592563081     1.007825032230
         H           -0.442170527678     1.221178192936     1.396870436919     1.007825032230
         H           -3.283837527678    -0.909435807064     1.123655436919     1.007825032230
         H           -1.715188527678    -1.701006807064    -1.376591563081     1.007825032230
         H           -3.487441527678    -1.834705807064    -1.191262563081     1.007825032230
         H           -0.299405527678     2.712477192936    -0.532127563081     1.007825032230
         H           -2.849436527678     2.399041192936     0.501535436919     1.007825032230
         H            0.432430472322    -1.964138807064     0.561940436919     1.007825032230
         H           -2.435754527678    -3.799133807064    -0.550360563081     1.007825032230
         H            2.827231472322    -2.646099807064     0.066794436919     1.007825032230
         H            5.123299472322    -1.671562807064    -0.169541563081     1.007825032230
         H            5.317933472322    -0.020755807064    -0.575421563081     1.007825032230

  Basis Set: AUG-CC-PVTZ
    Blend: AUG-CC-PVTZ
  Basis Set: (AUG-CC-PVTZ AUX)
    Blend: AUG-CC-PVTZ-JKFIT
	 Reference Energy          =    -886.3636167230466754 [Eh]
	 Singles Energy            =      -0.0000000000000000 [Eh]
	 Same-Spin Energy          =      -0.9018281220326045 [Eh]
	 Opposite-Spin Energy      =      -2.7162043345972995 [Eh]
	 Correlation Energy        =      -3.6180324566299040 [Eh]
	 Total Energy              =    -889.9816491796765376 [Eh]

	 ================> DF-SCS-MP2 Energies <==================
	-----------------------------------------------------------
	 SCS Same-Spin Scale       =       0.3333333333333333 [-]
	 SCS Opposite-Spin Scale   =       1.2000000000000000 [-]
	 SCS Same-Spin Energy      =      -0.3006093740108682 [Eh]
	 SCS Opposite-Spin Energy  =      -3.2594452015167592 [Eh]
	 SCS Correlation Energy    =      -3.5600545755276274 [Eh]
	 SCS Total Energy          =    -889.9236712985742770 [Eh]
	-----------------------------------------------------------

  Dipole Moment: [D]
     X:     1.7925      Y:    -5.9523      Z:    -1.6673     Total:     6.4361

*** Psi4 exiting successfully. Buy a developer a beer!
