                               Psi4 1.3.2 release

  ==> Input File <==

--------------------------------------------------------------------------
#psi4
#
memory 32 gb

molecule  {
0 1
  O       -1.2481010    -0.6526680     1.0325150
  O       -1.2449750     2.4828510    -0.6861630
  O       -3.2165300     1.5210990     0.7448870
  O       -2.3570290    -3.0668370     0.0949400
  O        1.3605300     2.2470340    -0.0765420
  N        0.8434040     0.0452230     0.2559430
  N        3.1101854     0.7447767    -0.0506096
  N        4.7164630    -0.8366550    -0.5722980
  C       -1.2894840     1.0784300    -0.5920770
  C       -2.7151710     0.6552070    -0.2573930
  C       -0.5254080     0.4815200     0.6000940
  C       -2.5292560    -0.7168860     0.3610560
  C       -2.5283440    -1.8503930    -0.6392900
  C        1.2197750    -1.2614080     0.3112740
  C        1.7555940     1.0674350    -0.0594030
  C        2.5111010    -1.6091400     0.0469950
  C        3.4119830    -0.5506530    -0.2589250
  H       -0.9376060     0.5914040    -1.5148910
  H       -3.3625820     0.6426650    -1.1464650
  H       -0.4402900     1.2218800     1.4039980
  H       -3.2819570    -0.9087340     1.1307830
  H       -1.7133080    -1.7003050    -1.3694640
  H       -3.4855610    -1.8340040    -1.1841350
  H       -0.2975250     2.7131790    -0.5250000
  H       -2.8475560     2.3997430     0.5086630
  H        0.4343110    -1.9634370     0.5690680
  H       -2.4338740    -3.7984320    -0.5432330
  H        2.8291120    -2.6453980     0.0739220
  H        5.1251800    -1.6708610    -0.1624140
  H        5.3198140    -0.0200540    -0.5682940
units angstrom
no_reorient  #important for SAPT in psi4, default
symmetry c1  #important for SAPT in psi4, default
}

set PROPERTIES_ORIGIN ["COM"]
properties('MP2/aug-cc-pvtz', properties = ['dipole'])
--------------------------------------------------------------------------

    Molecular point group: c1
  Charge       = 0
  Multiplicity = 1
  Basis Set: AUG-CC-PVTZ
    Blend: AUG-CC-PVTZ
  Basis Set: (AUG-CC-PVTZ AUX)
    Blend: AUG-CC-PVTZ-JKFIT

    Orbital Energies [Eh]
    ---------------------

    Doubly Occupied:

       1A    -20.582461     2A    -20.581923     3A    -20.558104
       4A    -20.557813     5A    -20.525494     6A    -15.637177
       7A    -15.600727     8A    -15.557422     9A    -11.390024
      10A    -11.360129    11A    -11.342132    12A    -11.328102
      13A    -11.301486    14A    -11.297228    15A    -11.297121
      16A    -11.293322    17A    -11.248791    18A     -1.429570
      19A     -1.396197    20A     -1.380460    21A     -1.373108
      22A     -1.346667    23A     -1.303552    24A     -1.272374
      25A     -1.174675    26A     -1.081456    27A     -1.068061
      28A     -1.021449    29A     -0.934545    30A     -0.909346
      31A     -0.870994    32A     -0.831837    33A     -0.811857
      34A     -0.762298    35A     -0.752227    36A     -0.736294
      37A     -0.720862    38A     -0.703287    39A     -0.698862
      40A     -0.686359    41A     -0.673341    42A     -0.655280
      43A     -0.651230    44A     -0.637656    45A     -0.617923
      46A     -0.614459    47A     -0.606603    48A     -0.595929
      49A     -0.575356    50A     -0.568544    51A     -0.553513
      52A     -0.543991    53A     -0.535737    54A     -0.528096
      55A     -0.500131    56A     -0.478073    57A     -0.475484
      58A     -0.462299    59A     -0.461889    60A     -0.453304
      61A     -0.441723    62A     -0.431930    63A     -0.393131
      64A     -0.349242

  @DF-RHF Final Energy:  -886.36002519172769

   => Energetics <=

    Nuclear Repulsion Energy =           1322.3903501141830930
    One-Electron Energy =               -3842.4394379645732442
    Two-Electron Energy =                1633.6890626586623512
    Total Energy =                       -886.3600251917278001
  Basis Set: (AUG-CC-PVTZ AUX)
    Blend: AUG-CC-PVTZ-RI
    Molecular point group: c1

    Geometry (in Angstrom), charge = 0, multiplicity = 1:

       Center              X                  Y                   Z               Mass
    ------------   -----------------  -----------------  -----------------  -----------------
         O           -1.251151789061    -0.654066289590     1.018510097042    15.994914619570
         O           -1.248025789061     2.481452710410    -0.700167902958    15.994914619570
         O           -3.219580789061     1.519700710410     0.730882097042    15.994914619570
         O           -2.360079789061    -3.068235289590     0.080935097042    15.994914619570
         O            1.357479210939     2.245635710410    -0.090546902958    15.994914619570
         N            0.840353210939     0.043824710410     0.241938097042    14.003074004430
         N            3.107134610939     0.743378410410    -0.064614502958    14.003074004430
         N            4.713412210939    -0.838053289590    -0.586302902958    14.003074004430
         C           -1.292534789061     1.077031710410    -0.606081902958    12.000000000000
         C           -2.718221789061     0.653808710410    -0.271397902958    12.000000000000
         C           -0.528458789061     0.480121710410     0.586089097042    12.000000000000
         C           -2.532306789061    -0.718284289590     0.347051097042    12.000000000000
         C           -2.531394789061    -1.851791289590    -0.653294902958    12.000000000000
         C            1.216724210939    -1.262806289590     0.297269097042    12.000000000000
         C            1.752543210939     1.066036710410    -0.073407902958    12.000000000000
         C            2.508050210939    -1.610538289590     0.032990097042    12.000000000000
         C            3.408932210939    -0.552051289590    -0.272929902958    12.000000000000
         H           -0.940656789061     0.590005710410    -1.528895902958     1.007825032230
         H           -3.365632789061     0.641266710410    -1.160469902958     1.007825032230
         H           -0.443340789061     1.220481710410     1.389993097042     1.007825032230
         H           -3.285007789061    -0.910132289590     1.116778097042     1.007825032230
         H           -1.716358789061    -1.701703289590    -1.383468902958     1.007825032230
         H           -3.488611789061    -1.835402289590    -1.198139902958     1.007825032230
         H           -0.300575789061     2.711780710410    -0.539004902958     1.007825032230
         H           -2.850606789061     2.398344710410     0.494658097042     1.007825032230
         H            0.431260210939    -1.964835289590     0.555063097042     1.007825032230
         H           -2.436924789061    -3.799830289590    -0.557237902958     1.007825032230
         H            2.826061210939    -2.646796289590     0.059917097042     1.007825032230
         H            5.122129210939    -1.672259289590    -0.176418902958     1.007825032230
         H            5.316763210939    -0.021452289590    -0.582298902958     1.007825032230

  Basis Set: AUG-CC-PVTZ
    Blend: AUG-CC-PVTZ
  Basis Set: (AUG-CC-PVTZ AUX)
    Blend: AUG-CC-PVTZ-JKFIT
	 Reference Energy          =    -886.3600251917276864 [Eh]
	 Singles Energy            =      -0.0000000000000000 [Eh]
	 Same-Spin Energy          =      -0.9021009414071994 [Eh]
	 Opposite-Spin Energy      =      -2.7172472494082838 [Eh]
	 Correlation Energy        =      -3.6193481908154830 [Eh]
	 Total Energy              =    -889.9793733825431445 [Eh]

	 ================> DF-SCS-MP2 Energies <==================
	-----------------------------------------------------------
	 SCS Same-Spin Scale       =       0.3333333333333333 [-]
	 SCS Opposite-Spin Scale   =       1.2000000000000000 [-]
	 SCS Same-Spin Energy      =      -0.3007003138023998 [Eh]
	 SCS Opposite-Spin Energy  =      -3.2606966992899404 [Eh]
	 SCS Correlation Energy    =      -3.5613970130923400 [Eh]
	 SCS Total Energy          =    -889.9214222048200327 [Eh]
	-----------------------------------------------------------

  Dipole Moment: [D]
     X:     1.6004      Y:    -5.9169      Z:    -2.1485     Total:     6.4952

*** Psi4 exiting successfully. Buy a developer a beer!
