                               Psi4 1.3.2 release

  ==> Input File <==

--------------------------------------------------------------------------
#psi4
#
memory 32 gb

molecule  {
0 1
  O       -1.2481010    -0.6526680     1.0325150
  O       -1.2449750     2.4828510    -0.6861630
  O       -3.2165300     1.5210990     0.7448870
  O       -2.3570290    -3.0668370     0.0949400
  O        1.3605300     2.2470340    -0.0765420
  N        0.8434040     0.0452230     0.2559430
  N        3.0572260     0.7205030    -0.2937270
  N        4.7164630    -0.8366550    -0.5722980
  C       -1.2894840     1.0784300    -0.5920770
  C       -2.7151710     0.6552070    -0.2573930
  C       -0.5254080     0.4815200     0.6000940
  C       -2.5292560    -0.7168860     0.3610560
  C       -2.5283440    -1.8503930    -0.6392900
  C        1.2197750    -1.2614080     0.3112740
  C        1.7555940     1.0674350    -0.0594030
  C        2.5111010    -1.6091400     0.0469950
  C        3.4119830    -0.5506530    -0.2589250
  H       -0.9376060     0.5914040    -1.5148910
  H       -3.3625820     0.6426650    -1.1464650
  H       -0.4402900     1.2218800     1.4039980
  H       -3.2819570    -0.9087340     1.1307830
  H       -1.7133080    -1.7003050    -1.3694640
  H       -3.4855610    -1.8340040    -1.1841350
  H       -0.2975250     2.7131790    -0.5250000
  H       -2.8475560     2.3997430     0.5086630
  H        0.4343110    -1.9634370     0.5690680
  H       -2.4338740    -3.7984320    -0.5432330
  H        2.8291120    -2.6453980     0.0739220
  H        5.1251800    -1.6708610    -0.1624140
  H        5.3292120     0.0026698    -0.4713646
units angstrom
no_reorient  #important for SAPT in psi4, default
symmetry c1  #important for SAPT in psi4, default
}

set PROPERTIES_ORIGIN ["COM"]
properties('MP2/aug-cc-pvtz', properties = ['dipole'])
--------------------------------------------------------------------------

    Molecular point group: c1
  Charge       = 0
  Multiplicity = 1
  Basis Set: AUG-CC-PVTZ
    Blend: AUG-CC-PVTZ
  Basis Set: (AUG-CC-PVTZ AUX)
    Blend: AUG-CC-PVTZ-JKFIT

    Orbital Energies [Eh]
    ---------------------

    Doubly Occupied:

       1A    -20.582372     2A    -20.581832     3A    -20.557939
       4A    -20.557422     5A    -20.522353     6A    -15.637428
       7A    -15.602199     8A    -15.553929     9A    -11.388659
      10A    -11.357796    11A    -11.341836    12A    -11.328884
      13A    -11.301320    14A    -11.297094    15A    -11.296851
      16A    -11.293128    17A    -11.248807    18A     -1.429612
      19A     -1.396718    20A     -1.380283    21A     -1.372967
      22A     -1.346472    23A     -1.306068    24A     -1.273428
      25A     -1.181267    26A     -1.082069    27A     -1.067904
      28A     -1.021371    29A     -0.935182    30A     -0.909419
      31A     -0.877145    32A     -0.832346    33A     -0.811806
      34A     -0.764546    35A     -0.752643    36A     -0.736343
      37A     -0.719834    38A     -0.702935    39A     -0.698568
      40A     -0.681164    41A     -0.672023    42A     -0.654467
      43A     -0.651789    44A     -0.638134    45A     -0.620118
      46A     -0.614018    47A     -0.605299    48A     -0.594160
      49A     -0.576061    50A     -0.569650    51A     -0.554438
      52A     -0.546059    53A     -0.538013    54A     -0.532199
      55A     -0.498405    56A     -0.477683    57A     -0.474650
      58A     -0.462422    59A     -0.460366    60A     -0.453017
      61A     -0.440866    62A     -0.433597    63A     -0.396476
      64A     -0.350348

  @DF-RHF Final Energy:  -886.37138858323397

   => Energetics <=

    Nuclear Repulsion Energy =           1323.6171641188782360
    One-Electron Energy =               -3844.8887063075044352
    Two-Electron Energy =                1634.9001536053920063
    Total Energy =                       -886.3713885832339656
  Basis Set: (AUG-CC-PVTZ AUX)
    Blend: AUG-CC-PVTZ-RI
    Molecular point group: c1

    Geometry (in Angstrom), charge = 0, multiplicity = 1:

       Center              X                  Y                   Z               Mass
    ------------   -----------------  -----------------  -----------------  -----------------
         O           -1.248139997753    -0.652762202032     1.032113141193    15.994914619570
         O           -1.245013997753     2.482756797968    -0.686564858807    15.994914619570
         O           -3.216568997753     1.521004797968     0.744485141193    15.994914619570
         O           -2.357067997753    -3.066931202032     0.094538141193    15.994914619570
         O            1.360491002247     2.246939797968    -0.076943858807    15.994914619570
         N            0.843365002247     0.045128797968     0.255541141193    14.003074004430
         N            3.057187002247     0.720408797968    -0.294128858807    14.003074004430
         N            4.716424002247    -0.836749202032    -0.572699858807    14.003074004430
         C           -1.289522997753     1.078335797968    -0.592478858807    12.000000000000
         C           -2.715209997753     0.655112797968    -0.257794858807    12.000000000000
         C           -0.525446997753     0.481425797968     0.599692141193    12.000000000000
         C           -2.529294997753    -0.716980202032     0.360654141193    12.000000000000
         C           -2.528382997753    -1.850487202032    -0.639691858807    12.000000000000
         C            1.219736002247    -1.261502202032     0.310872141193    12.000000000000
         C            1.755555002247     1.067340797968    -0.059804858807    12.000000000000
         C            2.511062002247    -1.609234202032     0.046593141193    12.000000000000
         C            3.411944002247    -0.550747202032    -0.259326858807    12.000000000000
         H           -0.937644997753     0.591309797968    -1.515292858807     1.007825032230
         H           -3.362620997753     0.642570797968    -1.146866858807     1.007825032230
         H           -0.440328997753     1.221785797968     1.403596141193     1.007825032230
         H           -3.281995997753    -0.908828202032     1.130381141193     1.007825032230
         H           -1.713346997753    -1.700399202032    -1.369865858807     1.007825032230
         H           -3.485599997753    -1.834098202032    -1.184536858807     1.007825032230
         H           -0.297563997753     2.713084797968    -0.525401858807     1.007825032230
         H           -2.847594997753     2.399648797968     0.508261141193     1.007825032230
         H            0.434272002247    -1.963531202032     0.568666141193     1.007825032230
         H           -2.433912997753    -3.798526202032    -0.543634858807     1.007825032230
         H            2.829073002247    -2.645492202032     0.073520141193     1.007825032230
         H            5.125141002247    -1.670955202032    -0.162815858807     1.007825032230
         H            5.329173002247     0.002575597968    -0.471766458807     1.007825032230

  Basis Set: AUG-CC-PVTZ
    Blend: AUG-CC-PVTZ
  Basis Set: (AUG-CC-PVTZ AUX)
    Blend: AUG-CC-PVTZ-JKFIT
	 Reference Energy          =    -886.3713885832339656 [Eh]
	 Singles Energy            =      -0.0000000000000000 [Eh]
	 Same-Spin Energy          =      -0.9014565258494679 [Eh]
	 Opposite-Spin Energy      =      -2.7155262239566644 [Eh]
	 Correlation Energy        =      -3.6169827498061324 [Eh]
	 Total Energy              =    -889.9883713330400496 [Eh]

	 ================> DF-SCS-MP2 Energies <==================
	-----------------------------------------------------------
	 SCS Same-Spin Scale       =       0.3333333333333333 [-]
	 SCS Opposite-Spin Scale   =       1.2000000000000000 [-]
	 SCS Same-Spin Energy      =      -0.3004855086164893 [Eh]
	 SCS Opposite-Spin Energy  =      -3.2586314687479971 [Eh]
	 SCS Correlation Energy    =      -3.5591169773644866 [Eh]
	 SCS Total Energy          =    -889.9305055605984762 [Eh]
	-----------------------------------------------------------

  Dipole Moment: [D]
     X:     1.6474      Y:    -5.9305      Z:    -1.6936     Total:     6.3838

*** Psi4 exiting successfully. Buy a developer a beer!
