                               Psi4 1.3.2 release

  ==> Input File <==

--------------------------------------------------------------------------
#psi4
#
memory 32 gb

molecule  {
0 1
  O       -1.2481010    -0.6526680     1.0325150
  O       -1.2449750     2.4828510    -0.6861630
  O       -3.2165300     1.5210990     0.7448870
  O       -2.3570290    -3.0668370     0.0949400
  O        1.3605300     2.2470340    -0.0765420
  N        0.8434040     0.0452230     0.2559430
  N        3.0572260     0.7205030    -0.2937270
  N        4.7164630    -0.8366550    -0.5722980
  C       -1.2894840     1.0784300    -0.5920770
  C       -2.7151710     0.6552070    -0.2573930
  C       -0.5254080     0.4815200     0.6000940
  C       -2.5292560    -0.7168860     0.3610560
  C       -2.5283440    -1.8503930    -0.6392900
  C        1.2197750    -1.2614080     0.3112740
  C        1.7555940     1.0674350    -0.0594030
  C        2.5111010    -1.6091400     0.0469950
  C        3.4119830    -0.5506530    -0.2589250
  H       -0.9376060     0.5914040    -1.5148910
  H       -3.3625820     0.6426650    -1.1464650
  H       -0.4402900     1.2218800     1.4039980
  H       -3.2819570    -0.9087340     1.1307830
  H       -1.7133080    -1.7003050    -1.3694640
  H       -3.4855610    -1.8340040    -1.1841350
  H       -0.2975250     2.7131790    -0.5250000
  H       -2.8475560     2.3997430     0.5086630
  H        0.4343110    -1.9634370     0.5690680
  H       -2.4338740    -3.7984320    -0.5432330
  H        2.8068603    -2.6546280    -0.0231330
  H        5.1251800    -1.6708610    -0.1624140
  H        5.3198140    -0.0200540    -0.5682940
units angstrom
no_reorient  #important for SAPT in psi4, default
symmetry c1  #important for SAPT in psi4, default
}

set PROPERTIES_ORIGIN ["COM"]
properties('MP2/aug-cc-pvtz', properties = ['dipole'])
--------------------------------------------------------------------------

    Molecular point group: c1
  Charge       = 0
  Multiplicity = 1
  Basis Set: AUG-CC-PVTZ
    Blend: AUG-CC-PVTZ
  Basis Set: (AUG-CC-PVTZ AUX)
    Blend: AUG-CC-PVTZ-JKFIT

    Orbital Energies [Eh]
    ---------------------

    Doubly Occupied:

       1A    -20.582340     2A    -20.581663     3A    -20.557845
       4A    -20.557320     5A    -20.522111     6A    -15.637075
       7A    -15.599780     8A    -15.553352     9A    -11.388353
      10A    -11.357842    11A    -11.341605    12A    -11.328700
      13A    -11.301286    14A    -11.297002    15A    -11.296772
      16A    -11.293054    17A    -11.248811    18A     -1.429434
      19A     -1.396476    20A     -1.380195    21A     -1.372900
      22A     -1.346371    23A     -1.306101    24A     -1.273837
      25A     -1.182239    26A     -1.081894    27A     -1.067816
      28A     -1.021397    29A     -0.935493    30A     -0.909489
      31A     -0.877259    32A     -0.832304    33A     -0.811900
      34A     -0.766975    35A     -0.752244    36A     -0.736302
      37A     -0.720265    38A     -0.702990    39A     -0.698502
      40A     -0.685743    41A     -0.672759    42A     -0.654581
      43A     -0.651646    44A     -0.637049    45A     -0.621009
      46A     -0.614646    47A     -0.606924    48A     -0.593392
      49A     -0.575761    50A     -0.569817    51A     -0.553980
      52A     -0.546008    53A     -0.537905    54A     -0.531697
      55A     -0.498118    56A     -0.477492    57A     -0.474377
      58A     -0.462223    59A     -0.459987    60A     -0.452915
      61A     -0.441182    62A     -0.432858    63A     -0.395224
      64A     -0.350030

  @DF-RHF Final Energy:  -886.37298844683392

   => Energetics <=

    Nuclear Repulsion Energy =           1323.7072212964121718
    One-Electron Energy =               -3845.0711822918528924
    Two-Electron Energy =                1634.9909725486068055
    Total Energy =                       -886.3729884468339151
  Basis Set: (AUG-CC-PVTZ AUX)
    Blend: AUG-CC-PVTZ-RI
    Molecular point group: c1

    Geometry (in Angstrom), charge = 0, multiplicity = 1:

       Center              X                  Y                   Z               Mass
    ------------   -----------------  -----------------  -----------------  -----------------
         O           -1.248008779078    -0.652629722567     1.032917394502    15.994914619570
         O           -1.244882779078     2.482889277433    -0.685760605498    15.994914619570
         O           -3.216437779078     1.521137277433     0.745289394502    15.994914619570
         O           -2.356936779078    -3.066798722567     0.095342394502    15.994914619570
         O            1.360622220922     2.247072277433    -0.076139605498    15.994914619570
         N            0.843496220922     0.045261277433     0.256345394502    14.003074004430
         N            3.057318220922     0.720541277433    -0.293324605498    14.003074004430
         N            4.716555220922    -0.836616722567    -0.571895605498    14.003074004430
         C           -1.289391779078     1.078468277433    -0.591674605498    12.000000000000
         C           -2.715078779078     0.655245277433    -0.256990605498    12.000000000000
         C           -0.525315779078     0.481558277433     0.600496394502    12.000000000000
         C           -2.529163779078    -0.716847722567     0.361458394502    12.000000000000
         C           -2.528251779078    -1.850354722567    -0.638887605498    12.000000000000
         C            1.219867220922    -1.261369722567     0.311676394502    12.000000000000
         C            1.755686220922     1.067473277433    -0.059000605498    12.000000000000
         C            2.511193220922    -1.609101722567     0.047397394502    12.000000000000
         C            3.412075220922    -0.550614722567    -0.258522605498    12.000000000000
         H           -0.937513779078     0.591442277433    -1.514488605498     1.007825032230
         H           -3.362489779078     0.642703277433    -1.146062605498     1.007825032230
         H           -0.440197779078     1.221918277433     1.404400394502     1.007825032230
         H           -3.281864779078    -0.908695722567     1.131185394502     1.007825032230
         H           -1.713215779078    -1.700266722567    -1.369061605498     1.007825032230
         H           -3.485468779078    -1.833965722567    -1.183732605498     1.007825032230
         H           -0.297432779078     2.713217277433    -0.524597605498     1.007825032230
         H           -2.847463779078     2.399781277433     0.509065394502     1.007825032230
         H            0.434403220922    -1.963398722567     0.569470394502     1.007825032230
         H           -2.433781779078    -3.798393722567    -0.542830605498     1.007825032230
         H            2.806952520922    -2.654589722567    -0.022730605498     1.007825032230
         H            5.125272220922    -1.670822722567    -0.162011605498     1.007825032230
         H            5.319906220922    -0.020015722567    -0.567891605498     1.007825032230

  Basis Set: AUG-CC-PVTZ
    Blend: AUG-CC-PVTZ
  Basis Set: (AUG-CC-PVTZ AUX)
    Blend: AUG-CC-PVTZ-JKFIT
	 Reference Energy          =    -886.3729884468339151 [Eh]
	 Singles Energy            =      -0.0000000000000000 [Eh]
	 Same-Spin Energy          =      -0.9012633575701792 [Eh]
	 Opposite-Spin Energy      =      -2.7149809173312249 [Eh]
	 Correlation Energy        =      -3.6162442749014039 [Eh]
	 Total Energy              =    -889.9892327217353341 [Eh]

	 ================> DF-SCS-MP2 Energies <==================
	-----------------------------------------------------------
	 SCS Same-Spin Scale       =       0.3333333333333333 [-]
	 SCS Opposite-Spin Scale   =       1.2000000000000000 [-]
	 SCS Same-Spin Energy      =      -0.3004211191900597 [Eh]
	 SCS Opposite-Spin Energy  =      -3.2579771007974698 [Eh]
	 SCS Correlation Energy    =      -3.5583982199875295 [Eh]
	 SCS Total Energy          =    -889.9313866668214814 [Eh]
	-----------------------------------------------------------

  Dipole Moment: [D]
     X:     1.6872      Y:    -5.9470      Z:    -1.8935     Total:     6.4652

*** Psi4 exiting successfully. Buy a developer a beer!
