                               Psi4 1.3.2 release

  ==> Input File <==

--------------------------------------------------------------------------
#psi4
#
memory 32 gb

molecule  {
0 1
  O       -1.2481010    -0.6526680     1.0325150
  O       -1.2449750     2.4828510    -0.6861630
  O       -3.2165300     1.5210990     0.7448870
  O       -2.3570290    -3.0668370     0.0949400
  O        1.3605300     2.2470340    -0.0765420
  N        0.8434040     0.0452230     0.2559430
  N        3.0572260     0.7205030    -0.2937270
  N        4.7164630    -0.8366550    -0.5722980
  C       -1.2894840     1.0784300    -0.5920770
  C       -2.7151710     0.6552070    -0.2573930
  C       -0.5254080     0.4815200     0.6000940
  C       -2.5292560    -0.7168860     0.3610560
  C       -2.5283440    -1.8503930    -0.6392900
  C        1.2197750    -1.2614080     0.3112740
  C        1.7555940     1.0674350    -0.0594030
  C        2.5111010    -1.6091400     0.0469950
  C        3.4119830    -0.5506530    -0.2589250
  H       -0.9376060     0.5914040    -1.5148910
  H       -3.3625820     0.6426650    -1.1464650
  H       -0.4402900     1.2218800     1.4039980
  H       -3.2819570    -0.9087340     1.1307830
  H       -1.7133080    -1.7003050    -1.3694640
  H       -3.4855610    -1.8340040    -1.1841350
  H       -0.2975250     2.7131790    -0.5250000
  H       -2.8475560     2.3997430     0.5086630
  H        0.4343110    -1.9634370     0.5690680
  H       -2.4338740    -3.7984320    -0.5432330
  H        2.8291120    -2.6453980     0.0739220
  H        5.1251800    -1.6708610    -0.1624140
  H        5.3433089     0.0367554    -0.3259705
units angstrom
no_reorient  #important for SAPT in psi4, default
symmetry c1  #important for SAPT in psi4, default
}

set PROPERTIES_ORIGIN ["COM"]
properties('MP2/aug-cc-pvtz', properties = ['dipole'])
--------------------------------------------------------------------------

    Molecular point group: c1
  Charge       = 0
  Multiplicity = 1
  Basis Set: AUG-CC-PVTZ
    Blend: AUG-CC-PVTZ
  Basis Set: (AUG-CC-PVTZ AUX)
    Blend: AUG-CC-PVTZ-JKFIT

    Orbital Energies [Eh]
    ---------------------

    Doubly Occupied:

       1A    -20.582573     2A    -20.582178     3A    -20.558180
       4A    -20.557704     5A    -20.522857     6A    -15.638219
       7A    -15.606583     8A    -15.554713     9A    -11.389177
      10A    -11.357688    11A    -11.342264    12A    -11.329438
      13A    -11.301537    14A    -11.297357    15A    -11.297173
      16A    -11.293389    17A    -11.249202    18A     -1.429996
      19A     -1.397186    20A     -1.380544    21A     -1.373207
      22A     -1.346737    23A     -1.305875    24A     -1.272421
      25A     -1.179122    26A     -1.082139    27A     -1.068172
      28A     -1.021318    29A     -0.934740    30A     -0.909243
      31A     -0.876824    32A     -0.832363    33A     -0.811778
      34A     -0.761031    35A     -0.752997    36A     -0.736567
      37A     -0.719158    38A     -0.702940    39A     -0.698769
      40A     -0.677012    41A     -0.667962    42A     -0.653954
      43A     -0.652117    44A     -0.637646    45A     -0.619116
      46A     -0.613087    47A     -0.600487    48A     -0.594521
      49A     -0.576494    50A     -0.569110    51A     -0.554987
      52A     -0.546371    53A     -0.538607    54A     -0.532486
      55A     -0.498861    56A     -0.477964    57A     -0.474965
      58A     -0.462779    59A     -0.460791    60A     -0.453298
      61A     -0.441119    62A     -0.434192    63A     -0.398287
      64A     -0.350831

  @DF-RHF Final Energy:  -886.36345919174084

   => Energetics <=

    Nuclear Repulsion Energy =           1323.4177224937257051
    One-Electron Energy =               -3844.4815550445282497
    Two-Electron Energy =                1634.7003733590615866
    Total Energy =                       -886.3634591917409580
  Basis Set: (AUG-CC-PVTZ AUX)
    Blend: AUG-CC-PVTZ-RI
    Molecular point group: c1

    Geometry (in Angstrom), charge = 0, multiplicity = 1:

       Center              X                  Y                   Z               Mass
    ------------   -----------------  -----------------  -----------------  -----------------
         O           -1.248198443063    -0.652903519872     1.031510341762    15.994914619570
         O           -1.245072443063     2.482615480128    -0.687167658238    15.994914619570
         O           -3.216627443063     1.520863480128     0.743882341762    15.994914619570
         O           -2.357126443063    -3.067072519872     0.093935341762    15.994914619570
         O            1.360432556937     2.246798480128    -0.077546658238    15.994914619570
         N            0.843306556937     0.044987480128     0.254938341762    14.003074004430
         N            3.057128556937     0.720267480128    -0.294731658238    14.003074004430
         N            4.716365556937    -0.836890519872    -0.573302658238    14.003074004430
         C           -1.289581443063     1.078194480128    -0.593081658238    12.000000000000
         C           -2.715268443063     0.654971480128    -0.258397658238    12.000000000000
         C           -0.525505443063     0.481284480128     0.599089341762    12.000000000000
         C           -2.529353443063    -0.717121519872     0.360051341762    12.000000000000
         C           -2.528441443063    -1.850628519872    -0.640294658238    12.000000000000
         C            1.219677556937    -1.261643519872     0.310269341762    12.000000000000
         C            1.755496556937     1.067199480128    -0.060407658238    12.000000000000
         C            2.511003556937    -1.609375519872     0.045990341762    12.000000000000
         C            3.411885556937    -0.550888519872    -0.259929658238    12.000000000000
         H           -0.937703443063     0.591168480128    -1.515895658238     1.007825032230
         H           -3.362679443063     0.642429480128    -1.147469658238     1.007825032230
         H           -0.440387443063     1.221644480128     1.402993341762     1.007825032230
         H           -3.282054443063    -0.908969519872     1.129778341762     1.007825032230
         H           -1.713405443063    -1.700540519872    -1.370468658238     1.007825032230
         H           -3.485658443063    -1.834239519872    -1.185139658238     1.007825032230
         H           -0.297622443063     2.712943480128    -0.526004658238     1.007825032230
         H           -2.847653443063     2.399507480128     0.507658341762     1.007825032230
         H            0.434213556937    -1.963672519872     0.568063341762     1.007825032230
         H           -2.433971443063    -3.798667519872    -0.544237658238     1.007825032230
         H            2.829014556937    -2.645633519872     0.072917341762     1.007825032230
         H            5.125082556937    -1.671096519872    -0.163418658238     1.007825032230
         H            5.343211456937     0.036519880128    -0.326975158238     1.007825032230

  Basis Set: AUG-CC-PVTZ
    Blend: AUG-CC-PVTZ
  Basis Set: (AUG-CC-PVTZ AUX)
    Blend: AUG-CC-PVTZ-JKFIT
	 Reference Energy          =    -886.3634591917408443 [Eh]
	 Singles Energy            =      -0.0000000000000000 [Eh]
	 Same-Spin Energy          =      -0.9019253427829106 [Eh]
	 Opposite-Spin Energy      =      -2.7168127143712999 [Eh]
	 Correlation Energy        =      -3.6187380571542107 [Eh]
	 Total Energy              =    -889.9821972488950905 [Eh]

	 ================> DF-SCS-MP2 Energies <==================
	-----------------------------------------------------------
	 SCS Same-Spin Scale       =       0.3333333333333333 [-]
	 SCS Opposite-Spin Scale   =       1.2000000000000000 [-]
	 SCS Same-Spin Energy      =      -0.3006417809276368 [Eh]
	 SCS Opposite-Spin Energy  =      -3.2601752572455598 [Eh]
	 SCS Correlation Energy    =      -3.5608170381731967 [Eh]
	 SCS Total Energy          =    -889.9242762299140850 [Eh]
	-----------------------------------------------------------

  Dipole Moment: [D]
     X:     1.5375      Y:    -5.9071      Z:    -1.5119     Total:     6.2884

*** Psi4 exiting successfully. Buy a developer a beer!
