                               Psi4 1.3.2 release

  ==> Input File <==

--------------------------------------------------------------------------
#psi4
#
memory 32 gb

molecule  {
0 1
  O       -1.2481010    -0.6526680     1.0325150
  O       -1.2449750     2.4828510    -0.6861630
  O       -3.2165300     1.5210990     0.7448870
  O       -2.3570290    -3.0668370     0.0949400
  O        1.3605300     2.2470340    -0.0765420
  N        0.8434040     0.0452230     0.2559430
  N        3.0572260     0.7205030    -0.2937270
  N        4.7164630    -0.8366550    -0.5722980
  C       -1.2894840     1.0784300    -0.5920770
  C       -2.7151710     0.6552070    -0.2573930
  C       -0.5254080     0.4815200     0.6000940
  C       -2.5292560    -0.7168860     0.3610560
  C       -2.5283440    -1.8503930    -0.6392900
  C        1.2197750    -1.2614080     0.3112740
  C        1.7555940     1.0674350    -0.0594030
  C        2.5111010    -1.6091400     0.0469950
  C        3.4119830    -0.5506530    -0.2589250
  H       -0.9376060     0.5914040    -1.5148910
  H       -3.3625820     0.6426650    -1.1464650
  H       -0.4402900     1.2218800     1.4039980
  H       -3.2819570    -0.9087340     1.1307830
  H       -1.7133080    -1.7003050    -1.3694640
  H       -3.4855610    -1.8340040    -1.1841350
  H       -0.2975250     2.7131790    -0.5250000
  H       -2.8475560     2.3997430     0.5086630
  H        0.4343110    -1.9634370     0.5690680
  H       -2.4338740    -3.7984320    -0.5432330
  H        2.7734828    -2.6684731    -0.1687154
  H        5.1251800    -1.6708610    -0.1624140
  H        5.3198140    -0.0200540    -0.5682940
units angstrom
no_reorient  #important for SAPT in psi4, default
symmetry c1  #important for SAPT in psi4, default
}

set PROPERTIES_ORIGIN ["COM"]
properties('MP2/aug-cc-pvtz', properties = ['dipole'])
--------------------------------------------------------------------------

    Molecular point group: c1
  Charge       = 0
  Multiplicity = 1
  Basis Set: AUG-CC-PVTZ
    Blend: AUG-CC-PVTZ
  Basis Set: (AUG-CC-PVTZ AUX)
    Blend: AUG-CC-PVTZ-JKFIT

    Orbital Energies [Eh]
    ---------------------

    Doubly Occupied:

       1A    -20.582523     2A    -20.581882     3A    -20.558037
       4A    -20.557588     5A    -20.522602     6A    -15.637644
       7A    -15.599611     8A    -15.553449     9A    -11.388740
      10A    -11.357838    11A    -11.341845    12A    -11.329389
      13A    -11.301509    14A    -11.297216    15A    -11.297107
      16A    -11.293303    17A    -11.250418    18A     -1.429707
      19A     -1.396836    20A     -1.380422    21A     -1.373105
      22A     -1.346603    23A     -1.306300    24A     -1.274027
      25A     -1.182269    26A     -1.081522    27A     -1.068048
      28A     -1.021417    29A     -0.935611    30A     -0.909488
      31A     -0.877133    32A     -0.832210    33A     -0.812102
      34A     -0.767027    35A     -0.751459    36A     -0.736440
      37A     -0.720381    38A     -0.703120    39A     -0.698634
      40A     -0.685844    41A     -0.672511    42A     -0.654848
      43A     -0.650619    44A     -0.633854    45A     -0.621558
      46A     -0.614959    47A     -0.607316    48A     -0.591524
      49A     -0.575820    50A     -0.569916    51A     -0.553957
      52A     -0.546509    53A     -0.538467    54A     -0.531508
      55A     -0.498246    56A     -0.477561    57A     -0.474370
      58A     -0.462452    59A     -0.459965    60A     -0.453160
      61A     -0.441949    62A     -0.432480    63A     -0.395297
      64A     -0.350048

  @DF-RHF Final Energy:  -886.36999310599413

   => Energetics <=

    Nuclear Repulsion Energy =           1323.6333154971187014
    One-Electron Energy =               -3844.9080242209965945
    Two-Electron Energy =                1634.9047156178835394
    Total Energy =                       -886.3699931059941264
  Basis Set: (AUG-CC-PVTZ AUX)
    Blend: AUG-CC-PVTZ-RI
    Molecular point group: c1

    Geometry (in Angstrom), charge = 0, multiplicity = 1:

       Center              X                  Y                   Z               Mass
    ------------   -----------------  -----------------  -----------------  -----------------
         O           -1.247870396998    -0.652572321212     1.033520974619    15.994914619570
         O           -1.244744396998     2.482946678788    -0.685157025381    15.994914619570
         O           -3.216299396998     1.521194678788     0.745892974619    15.994914619570
         O           -2.356798396998    -3.066741321212     0.095945974619    15.994914619570
         O            1.360760603002     2.247129678788    -0.075536025381    15.994914619570
         N            0.843634603002     0.045318678788     0.256948974619    14.003074004430
         N            3.057456603002     0.720598678788    -0.292721025381    14.003074004430
         N            4.716693603002    -0.836559321212    -0.571292025381    14.003074004430
         C           -1.289253396998     1.078525678788    -0.591071025381    12.000000000000
         C           -2.714940396998     0.655302678788    -0.256387025381    12.000000000000
         C           -0.525177396998     0.481615678788     0.601099974619    12.000000000000
         C           -2.529025396998    -0.716790321212     0.362061974619    12.000000000000
         C           -2.528113396998    -1.850297321212    -0.638284025381    12.000000000000
         C            1.220005603002    -1.261312321212     0.312279974619    12.000000000000
         C            1.755824603002     1.067530678788    -0.058397025381    12.000000000000
         C            2.511331603002    -1.609044321212     0.048000974619    12.000000000000
         C            3.412213603002    -0.550557321212    -0.257919025381    12.000000000000
         H           -0.937375396998     0.591499678788    -1.513885025381     1.007825032230
         H           -3.362351396998     0.642760678788    -1.145459025381     1.007825032230
         H           -0.440059396998     1.221975678788     1.405003974619     1.007825032230
         H           -3.281726396998    -0.908638321212     1.131788974619     1.007825032230
         H           -1.713077396998    -1.700209321212    -1.368458025381     1.007825032230
         H           -3.485330396998    -1.833908321212    -1.183129025381     1.007825032230
         H           -0.297294396998     2.713274678788    -0.523994025381     1.007825032230
         H           -2.847325396998     2.399838678788     0.509668974619     1.007825032230
         H            0.434541603002    -1.963341321212     0.570073974619     1.007825032230
         H           -2.433643396998    -3.798336321212    -0.542227025381     1.007825032230
         H            2.773713403002    -2.668377421212    -0.167709425381     1.007825032230
         H            5.125410603002    -1.670765321212    -0.161408025381     1.007825032230
         H            5.320044603002    -0.019958321212    -0.567288025381     1.007825032230

  Basis Set: AUG-CC-PVTZ
    Blend: AUG-CC-PVTZ
  Basis Set: (AUG-CC-PVTZ AUX)
    Blend: AUG-CC-PVTZ-JKFIT
	 Reference Energy          =    -886.3699931059941264 [Eh]
	 Singles Energy            =      -0.0000000000000000 [Eh]
	 Same-Spin Energy          =      -0.9013661078581738 [Eh]
	 Opposite-Spin Energy      =      -2.7152409315251669 [Eh]
	 Correlation Energy        =      -3.6166070393833407 [Eh]
	 Total Energy              =    -889.9866001453774516 [Eh]

	 ================> DF-SCS-MP2 Energies <==================
	-----------------------------------------------------------
	 SCS Same-Spin Scale       =       0.3333333333333333 [-]
	 SCS Opposite-Spin Scale   =       1.2000000000000000 [-]
	 SCS Same-Spin Energy      =      -0.3004553692860579 [Eh]
	 SCS Opposite-Spin Energy  =      -3.2582891178302003 [Eh]
	 SCS Correlation Energy    =      -3.5587444871162583 [Eh]
	 SCS Total Energy          =    -889.9287375931104407 [Eh]
	-----------------------------------------------------------

  Dipole Moment: [D]
     X:     1.6397      Y:    -5.9085      Z:    -1.9989     Total:     6.4494

*** Psi4 exiting successfully. Buy a developer a beer!
