                               Psi4 1.3.2 release

  ==> Input File <==

--------------------------------------------------------------------------
#psi4
#
memory 32 gb

molecule  {
0 1
  O       -1.2481010    -0.6526680     1.0325150
  O       -1.2449750     2.4828510    -0.6861630
  O       -3.2165300     1.5210990     0.7448870
  O       -2.3570290    -3.0668370     0.0949400
  O        1.3605300     2.2470340    -0.0765420
  N        0.8434040     0.0452230     0.2559430
  N        3.0572260     0.7205030    -0.2937270
  N        4.7164630    -0.8366550    -0.5722980
  C       -1.2894840     1.0784300    -0.5920770
  C       -2.7151710     0.6552070    -0.2573930
  C       -0.5254080     0.4815200     0.6000940
  C       -2.5292560    -0.7168860     0.3610560
  C       -2.5283440    -1.8503930    -0.6392900
  C        1.2197750    -1.2614080     0.3112740
  C        1.7555940     1.0674350    -0.0594030
  C        2.5111010    -1.6091400     0.0469950
  C        3.4119830    -0.5506530    -0.2589250
  H       -0.9376060     0.5914040    -1.5148910
  H       -3.3625820     0.6426650    -1.1464650
  H       -0.4402900     1.2218800     1.4039980
  H       -3.2819570    -0.9087340     1.1307830
  H       -1.7133080    -1.7003050    -1.3694640
  H       -3.4855610    -1.8340040    -1.1841350
  H       -0.2975250     2.7131790    -0.5250000
  H       -2.8475560     2.3997430     0.5086630
  H        0.4004773    -1.9791940     0.4237855
  H       -2.4338740    -3.7984320    -0.5432330
  H        2.8291120    -2.6453980     0.0739220
  H        5.1251800    -1.6708610    -0.1624140
  H        5.3198140    -0.0200540    -0.5682940
units angstrom
no_reorient  #important for SAPT in psi4, default
symmetry c1  #important for SAPT in psi4, default
}

set PROPERTIES_ORIGIN ["COM"]
properties('MP2/aug-cc-pvtz', properties = ['dipole'])
--------------------------------------------------------------------------

    Molecular point group: c1
  Charge       = 0
  Multiplicity = 1
  Basis Set: AUG-CC-PVTZ
    Blend: AUG-CC-PVTZ
  Basis Set: (AUG-CC-PVTZ AUX)
    Blend: AUG-CC-PVTZ-JKFIT

    Orbital Energies [Eh]
    ---------------------

    Doubly Occupied:

       1A    -20.582778     2A    -20.581357     3A    -20.557795
       4A    -20.557239     5A    -20.522009     6A    -15.636696
       7A    -15.599920     8A    -15.553455     9A    -11.388267
      10A    -11.358042    11A    -11.341436    12A    -11.329716
      13A    -11.301650    14A    -11.296965    15A    -11.296630
      16A    -11.292983    17A    -11.248930    18A     -1.429213
      19A     -1.396386    20A     -1.380251    21A     -1.373138
      22A     -1.346300    23A     -1.306106    24A     -1.273772
      25A     -1.182310    26A     -1.081941    27A     -1.067786
      28A     -1.021433    29A     -0.935552    30A     -0.908830
      31A     -0.877399    32A     -0.832212    33A     -0.811924
      34A     -0.767083    35A     -0.751655    36A     -0.736386
      37A     -0.720256    38A     -0.703419    39A     -0.698504
      40A     -0.684642    41A     -0.672679    42A     -0.655130
      43A     -0.651591    44A     -0.638905    45A     -0.618446
      46A     -0.614336    47A     -0.607155    48A     -0.593849
      49A     -0.576001    50A     -0.569855    51A     -0.554549
      52A     -0.545720    53A     -0.537340    54A     -0.531940
      55A     -0.497713    56A     -0.477989    57A     -0.474518
      58A     -0.462216    59A     -0.460082    60A     -0.452808
      61A     -0.439801    62A     -0.433441    63A     -0.395243
      64A     -0.350187

  @DF-RHF Final Energy:  -886.37153752445170

   => Energetics <=

    Nuclear Repulsion Energy =           1323.7531995494989587
    One-Electron Energy =               -3845.1617509905058796
    Two-Electron Energy =                1635.0370139165554519
    Total Energy =                       -886.3715375244516963
  Basis Set: (AUG-CC-PVTZ AUX)
    Blend: AUG-CC-PVTZ-RI
    Molecular point group: c1

    Geometry (in Angstrom), charge = 0, multiplicity = 1:

       Center              X                  Y                   Z               Mass
    ------------   -----------------  -----------------  -----------------  -----------------
         O           -1.247960760465    -0.652602661828     1.033117344222    15.994914619570
         O           -1.244834760465     2.482916338172    -0.685560655778    15.994914619570
         O           -3.216389760465     1.521164338172     0.745489344222    15.994914619570
         O           -2.356888760465    -3.066771661828     0.095542344222    15.994914619570
         O            1.360670239535     2.247099338172    -0.075939655778    15.994914619570
         N            0.843544239535     0.045288338172     0.256545344222    14.003074004430
         N            3.057366239535     0.720568338172    -0.293124655778    14.003074004430
         N            4.716603239535    -0.836589661828    -0.571695655778    14.003074004430
         C           -1.289343760465     1.078495338172    -0.591474655778    12.000000000000
         C           -2.715030760465     0.655272338172    -0.256790655778    12.000000000000
         C           -0.525267760465     0.481585338172     0.600696344222    12.000000000000
         C           -2.529115760465    -0.716820661828     0.361658344222    12.000000000000
         C           -2.528203760465    -1.850327661828    -0.638687655778    12.000000000000
         C            1.219915239535    -1.261342661828     0.311876344222    12.000000000000
         C            1.755734239535     1.067500338172    -0.058800655778    12.000000000000
         C            2.511241239535    -1.609074661828     0.047597344222    12.000000000000
         C            3.412123239535    -0.550587661828    -0.258322655778    12.000000000000
         H           -0.937465760465     0.591469338172    -1.514288655778     1.007825032230
         H           -3.362441760465     0.642730338172    -1.145862655778     1.007825032230
         H           -0.440149760465     1.221945338172     1.404600344222     1.007825032230
         H           -3.281816760465    -0.908668661828     1.131385344222     1.007825032230
         H           -1.713167760465    -1.700239661828    -1.368861655778     1.007825032230
         H           -3.485420760465    -1.833938661828    -1.183532655778     1.007825032230
         H           -0.297384760465     2.713244338172    -0.524397655778     1.007825032230
         H           -2.847415760465     2.399808338172     0.509265344222     1.007825032230
         H            0.400617539535    -1.979128661828     0.424387844222     1.007825032230
         H           -2.433733760465    -3.798366661828    -0.542630655778     1.007825032230
         H            2.829252239535    -2.645332661828     0.074524344222     1.007825032230
         H            5.125320239535    -1.670795661828    -0.161811655778     1.007825032230
         H            5.319954239535    -0.019988661828    -0.567691655778     1.007825032230

  Basis Set: AUG-CC-PVTZ
    Blend: AUG-CC-PVTZ
  Basis Set: (AUG-CC-PVTZ AUX)
    Blend: AUG-CC-PVTZ-JKFIT
	 Reference Energy          =    -886.3715375244516963 [Eh]
	 Singles Energy            =      -0.0000000000000000 [Eh]
	 Same-Spin Energy          =      -0.9013826340894057 [Eh]
	 Opposite-Spin Energy      =      -2.7152804064711655 [Eh]
	 Correlation Energy        =      -3.6166630405605713 [Eh]
	 Total Energy              =    -889.9882005650122210 [Eh]

	 ================> DF-SCS-MP2 Energies <==================
	-----------------------------------------------------------
	 SCS Same-Spin Scale       =       0.3333333333333333 [-]
	 SCS Opposite-Spin Scale   =       1.2000000000000000 [-]
	 SCS Same-Spin Energy      =      -0.3004608780298019 [Eh]
	 SCS Opposite-Spin Energy  =      -3.2583364877653986 [Eh]
	 SCS Correlation Energy    =      -3.5587973657952006 [Eh]
	 SCS Total Energy          =    -889.9303348902468542 [Eh]
	-----------------------------------------------------------

  Dipole Moment: [D]
     X:     1.7015      Y:    -5.9557      Z:    -1.9060     Total:     6.4806

*** Psi4 exiting successfully. Buy a developer a beer!
