                               Psi4 1.3.2 release

  ==> Input File <==

--------------------------------------------------------------------------
#psi4
#
memory 32 gb

molecule  {
0 1
  O       -1.2481010    -0.6526680     1.0325150
  O       -1.2449750     2.4828510    -0.6861630
  O       -3.2165300     1.5210990     0.7448870
  O       -2.3570290    -3.0668370     0.0949400
  O        1.3605300     2.2470340    -0.0765420
  N        0.8434040     0.0452230     0.2559430
  N        3.0572260     0.7205030    -0.2937270
  N        4.7164630    -0.8366550    -0.5722980
  C       -1.2894840     1.0784300    -0.5920770
  C       -2.7151710     0.6552070    -0.2573930
  C       -0.5254080     0.4815200     0.6000940
  C       -2.5292560    -0.7168860     0.3610560
  C       -2.5283440    -1.8503930    -0.6392900
  C        1.2197750    -1.2614080     0.3112740
  C        1.7682918     1.0721739    -0.0112750
  C        2.5111010    -1.6091400     0.0469950
  C        3.4119830    -0.5506530    -0.2589250
  H       -0.9376060     0.5914040    -1.5148910
  H       -3.3625820     0.6426650    -1.1464650
  H       -0.4402900     1.2218800     1.4039980
  H       -3.2819570    -0.9087340     1.1307830
  H       -1.7133080    -1.7003050    -1.3694640
  H       -3.4855610    -1.8340040    -1.1841350
  H       -0.2975250     2.7131790    -0.5250000
  H       -2.8475560     2.3997430     0.5086630
  H        0.4343110    -1.9634370     0.5690680
  H       -2.4338740    -3.7984320    -0.5432330
  H        2.8291120    -2.6453980     0.0739220
  H        5.1251800    -1.6708610    -0.1624140
  H        5.3198140    -0.0200540    -0.5682940
units angstrom
no_reorient  #important for SAPT in psi4, default
symmetry c1  #important for SAPT in psi4, default
}

set PROPERTIES_ORIGIN ["COM"]
properties('MP2/aug-cc-pvtz', properties = ['dipole'])
--------------------------------------------------------------------------

    Molecular point group: c1
  Charge       = 0
  Multiplicity = 1
  Basis Set: AUG-CC-PVTZ
    Blend: AUG-CC-PVTZ
  Basis Set: (AUG-CC-PVTZ AUX)
    Blend: AUG-CC-PVTZ-JKFIT

    Orbital Energies [Eh]
    ---------------------

    Doubly Occupied:

       1A    -20.582138     2A    -20.581540     3A    -20.557620
       4A    -20.557011     5A    -20.521713     6A    -15.636888
       7A    -15.599875     8A    -15.553464     9A    -11.388451
      10A    -11.358242    11A    -11.341482    12A    -11.328623
      13A    -11.301033    14A    -11.296766    15A    -11.296233
      16A    -11.292716    17A    -11.248636    18A     -1.429150
      19A     -1.395826    20A     -1.379921    21A     -1.372665
      22A     -1.346077    23A     -1.305861    24A     -1.273677
      25A     -1.182692    26A     -1.081979    27A     -1.067518
      28A     -1.021194    29A     -0.935404    30A     -0.909150
      31A     -0.877456    32A     -0.832175    33A     -0.811689
      34A     -0.767203    35A     -0.752344    36A     -0.735791
      37A     -0.720210    38A     -0.702629    39A     -0.698201
      40A     -0.685720    41A     -0.672707    42A     -0.654230
      43A     -0.651517    44A     -0.638598    45A     -0.621071
      46A     -0.614022    47A     -0.606534    48A     -0.593480
      49A     -0.575514    50A     -0.569652    51A     -0.553726
      52A     -0.545890    53A     -0.537308    54A     -0.531620
      55A     -0.498033    56A     -0.477360    57A     -0.474254
      58A     -0.462021    59A     -0.459867    60A     -0.452562
      61A     -0.440453    62A     -0.433840    63A     -0.394713
      64A     -0.350084

  @DF-RHF Final Energy:  -886.37287641642172

   => Energetics <=

    Nuclear Repulsion Energy =           1323.5446493916845156
    One-Electron Energy =               -3844.7630115916936120
    Two-Electron Energy =                1634.8454857835877192
    Total Energy =                       -886.3728764164216045
  Basis Set: (AUG-CC-PVTZ AUX)
    Blend: AUG-CC-PVTZ-RI
    Molecular point group: c1

    Geometry (in Angstrom), charge = 0, multiplicity = 1:

       Center              X                  Y                   Z               Mass
    ------------   -----------------  -----------------  -----------------  -----------------
         O           -1.248727865183    -0.652901927283     1.030139152272    15.994914619570
         O           -1.245601865183     2.482617072717    -0.688538847728    15.994914619570
         O           -3.217156865183     1.520865072717     0.742511152272    15.994914619570
         O           -2.357655865183    -3.067070927283     0.092564152272    15.994914619570
         O            1.359903134817     2.246800072717    -0.078917847728    15.994914619570
         N            0.842777134817     0.044989072717     0.253567152272    14.003074004430
         N            3.056599134817     0.720269072717    -0.296102847728    14.003074004430
         N            4.715836134817    -0.836888927283    -0.574673847728    14.003074004430
         C           -1.290110865183     1.078196072717    -0.594452847728    12.000000000000
         C           -2.715797865183     0.654973072717    -0.259768847728    12.000000000000
         C           -0.526034865183     0.481286072717     0.597718152272    12.000000000000
         C           -2.529882865183    -0.717119927283     0.358680152272    12.000000000000
         C           -2.528970865183    -1.850626927283    -0.641665847728    12.000000000000
         C            1.219148134817    -1.261641927283     0.308898152272    12.000000000000
         C            1.767664934817     1.071939972717    -0.013650847728    12.000000000000
         C            2.510474134817    -1.609373927283     0.044619152272    12.000000000000
         C            3.411356134817    -0.550886927283    -0.261300847728    12.000000000000
         H           -0.938232865183     0.591170072717    -1.517266847728     1.007825032230
         H           -3.363208865183     0.642431072717    -1.148840847728     1.007825032230
         H           -0.440916865183     1.221646072717     1.401622152272     1.007825032230
         H           -3.282583865183    -0.908967927283     1.128407152272     1.007825032230
         H           -1.713934865183    -1.700538927283    -1.371839847728     1.007825032230
         H           -3.486187865183    -1.834237927283    -1.186510847728     1.007825032230
         H           -0.298151865183     2.712945072717    -0.527375847728     1.007825032230
         H           -2.848182865183     2.399509072717     0.506287152272     1.007825032230
         H            0.433684134817    -1.963670927283     0.566692152272     1.007825032230
         H           -2.434500865183    -3.798665927283    -0.545608847728     1.007825032230
         H            2.828485134817    -2.645631927283     0.071546152272     1.007825032230
         H            5.124553134817    -1.671094927283    -0.164789847728     1.007825032230
         H            5.319187134817    -0.020287927283    -0.570669847728     1.007825032230

  Basis Set: AUG-CC-PVTZ
    Blend: AUG-CC-PVTZ
  Basis Set: (AUG-CC-PVTZ AUX)
    Blend: AUG-CC-PVTZ-JKFIT
	 Reference Energy          =    -886.3728764164217182 [Eh]
	 Singles Energy            =      -0.0000000000000000 [Eh]
	 Same-Spin Energy          =      -0.9012466583242967 [Eh]
	 Opposite-Spin Energy      =      -2.7149517212931005 [Eh]
	 Correlation Energy        =      -3.6161983796173973 [Eh]
	 Total Energy              =    -889.9890747960390627 [Eh]

	 ================> DF-SCS-MP2 Energies <==================
	-----------------------------------------------------------
	 SCS Same-Spin Scale       =       0.3333333333333333 [-]
	 SCS Opposite-Spin Scale   =       1.2000000000000000 [-]
	 SCS Same-Spin Energy      =      -0.3004155527747656 [Eh]
	 SCS Opposite-Spin Energy  =      -3.2579420655517204 [Eh]
	 SCS Correlation Energy    =      -3.5583576183264860 [Eh]
	 SCS Total Energy          =    -889.9312340347481722 [Eh]
	-----------------------------------------------------------

  Dipole Moment: [D]
     X:     1.7361      Y:    -5.9513      Z:    -1.7699     Total:     6.4471

*** Psi4 exiting successfully. Buy a developer a beer!
