                               Psi4 1.3.2 release

  ==> Input File <==

--------------------------------------------------------------------------
#psi4
#
memory 32 gb

molecule  {
0 1
  O       -1.2481010    -0.6526680     1.0325150
  O       -1.2449750     2.4828510    -0.6861630
  O       -3.2165300     1.5210990     0.7448870
  O       -2.3570290    -3.0668370     0.0949400
  O        1.3605300     2.2470340    -0.0765420
  N        0.8434040     0.0452230     0.2559430
  N        3.0784098     0.7302125    -0.1964800
  N        4.7164630    -0.8366550    -0.5722980
  C       -1.2894840     1.0784300    -0.5920770
  C       -2.7151710     0.6552070    -0.2573930
  C       -0.5254080     0.4815200     0.6000940
  C       -2.5292560    -0.7168860     0.3610560
  C       -2.5283440    -1.8503930    -0.6392900
  C        1.2197750    -1.2614080     0.3112740
  C        1.7555940     1.0674350    -0.0594030
  C        2.5111010    -1.6091400     0.0469950
  C        3.4119830    -0.5506530    -0.2589250
  H       -0.9376060     0.5914040    -1.5148910
  H       -3.3625820     0.6426650    -1.1464650
  H       -0.4402900     1.2218800     1.4039980
  H       -3.2819570    -0.9087340     1.1307830
  H       -1.7133080    -1.7003050    -1.3694640
  H       -3.4855610    -1.8340040    -1.1841350
  H       -0.2975250     2.7131790    -0.5250000
  H       -2.8475560     2.3997430     0.5086630
  H        0.4343110    -1.9634370     0.5690680
  H       -2.4338740    -3.7984320    -0.5432330
  H        2.8291120    -2.6453980     0.0739220
  H        5.1251800    -1.6708610    -0.1624140
  H        5.3198140    -0.0200540    -0.5682940
units angstrom
no_reorient  #important for SAPT in psi4, default
symmetry c1  #important for SAPT in psi4, default
}

set PROPERTIES_ORIGIN ["COM"]
properties('MP2/aug-cc-pvtz', properties = ['dipole'])
--------------------------------------------------------------------------

    Molecular point group: c1
  Charge       = 0
  Multiplicity = 1
  Basis Set: AUG-CC-PVTZ
    Blend: AUG-CC-PVTZ
  Basis Set: (AUG-CC-PVTZ AUX)
    Blend: AUG-CC-PVTZ-JKFIT

    Orbital Energies [Eh]
    ---------------------

    Doubly Occupied:

       1A    -20.582334     2A    -20.581713     3A    -20.557894
       4A    -20.557398     5A    -20.522899     6A    -15.637032
       7A    -15.599842     8A    -15.554255     9A    -11.388666
      10A    -11.358249    11A    -11.341747    12A    -11.328398
      13A    -11.301305    14A    -11.297035    15A    -11.296817
      16A    -11.293089    17A    -11.248575    18A     -1.429459
      19A     -1.396461    20A     -1.380235    21A     -1.372920
      22A     -1.346425    23A     -1.305588    24A     -1.273522
      25A     -1.180871    26A     -1.081885    27A     -1.067854
      28A     -1.021430    29A     -0.935258    30A     -0.909480
      31A     -0.875929    32A     -0.832368    33A     -0.811912
      34A     -0.766005    35A     -0.752386    36A     -0.736211
      37A     -0.720597    38A     -0.703119    39A     -0.698603
      40A     -0.686061    41A     -0.673002    42A     -0.655129
      43A     -0.651170    44A     -0.638594    45A     -0.619705
      46A     -0.614559    47A     -0.606800    48A     -0.594783
      49A     -0.575597    50A     -0.569425    51A     -0.553881
      52A     -0.544909    53A     -0.536577    54A     -0.531322
      55A     -0.498712    56A     -0.477710    57A     -0.474835
      58A     -0.462192    59A     -0.460496    60A     -0.453014
      61A     -0.440907    62A     -0.432705    63A     -0.395307
      64A     -0.349930

  @DF-RHF Final Energy:  -886.37099691009644

   => Energetics <=

    Nuclear Repulsion Energy =           1323.3984218547695946
    One-Electron Energy =               -3844.4526576962116451
    Two-Electron Energy =                1634.6832389313458407
    Total Energy =                       -886.3709969100964372
  Basis Set: (AUG-CC-PVTZ AUX)
    Blend: AUG-CC-PVTZ-RI
    Molecular point group: c1

    Geometry (in Angstrom), charge = 0, multiplicity = 1:

       Center              X                  Y                   Z               Mass
    ------------   -----------------  -----------------  -----------------  -----------------
         O           -1.249321338290    -0.653227310905     1.026913041001    15.994914619570
         O           -1.246195338290     2.482291689095    -0.691764958999    15.994914619570
         O           -3.217750338290     1.520539689095     0.739285041001    15.994914619570
         O           -2.358249338290    -3.067396310905     0.089338041001    15.994914619570
         O            1.359309661710     2.246474689095    -0.082143958999    15.994914619570
         N            0.842183661710     0.044663689095     0.250341041001    14.003074004430
         N            3.077189461710     0.729653189095    -0.202081958999    14.003074004430
         N            4.715242661710    -0.837214310905    -0.577899958999    14.003074004430
         C           -1.290704338290     1.077870689095    -0.597678958999    12.000000000000
         C           -2.716391338290     0.654647689095    -0.262994958999    12.000000000000
         C           -0.526628338290     0.480960689095     0.594492041001    12.000000000000
         C           -2.530476338290    -0.717445310905     0.355454041001    12.000000000000
         C           -2.529564338290    -1.850952310905    -0.644891958999    12.000000000000
         C            1.218554661710    -1.261967310905     0.305672041001    12.000000000000
         C            1.754373661710     1.066875689095    -0.065004958999    12.000000000000
         C            2.509880661710    -1.609699310905     0.041393041001    12.000000000000
         C            3.410762661710    -0.551212310905    -0.264526958999    12.000000000000
         H           -0.938826338290     0.590844689095    -1.520492958999     1.007825032230
         H           -3.363802338290     0.642105689095    -1.152066958999     1.007825032230
         H           -0.441510338290     1.221320689095     1.398396041001     1.007825032230
         H           -3.283177338290    -0.909293310905     1.125181041001     1.007825032230
         H           -1.714528338290    -1.700864310905    -1.375065958999     1.007825032230
         H           -3.486781338290    -1.834563310905    -1.189736958999     1.007825032230
         H           -0.298745338290     2.712619689095    -0.530601958999     1.007825032230
         H           -2.848776338290     2.399183689095     0.503061041001     1.007825032230
         H            0.433090661710    -1.963996310905     0.563466041001     1.007825032230
         H           -2.435094338290    -3.798991310905    -0.548834958999     1.007825032230
         H            2.827891661710    -2.645957310905     0.068320041001     1.007825032230
         H            5.123959661710    -1.671420310905    -0.168015958999     1.007825032230
         H            5.318593661710    -0.020613310905    -0.573895958999     1.007825032230

  Basis Set: AUG-CC-PVTZ
    Blend: AUG-CC-PVTZ
  Basis Set: (AUG-CC-PVTZ AUX)
    Blend: AUG-CC-PVTZ-JKFIT
	 Reference Energy          =    -886.3709969100964372 [Eh]
	 Singles Energy            =      -0.0000000000000000 [Eh]
	 Same-Spin Energy          =      -0.9014145446417080 [Eh]
	 Opposite-Spin Energy      =      -2.7153550501681560 [Eh]
	 Correlation Energy        =      -3.6167695948098642 [Eh]
	 Total Energy              =    -889.9877665049062898 [Eh]

	 ================> DF-SCS-MP2 Energies <==================
	-----------------------------------------------------------
	 SCS Same-Spin Scale       =       0.3333333333333333 [-]
	 SCS Opposite-Spin Scale   =       1.2000000000000000 [-]
	 SCS Same-Spin Energy      =      -0.3004715148805693 [Eh]
	 SCS Opposite-Spin Energy  =      -3.2584260602017872 [Eh]
	 SCS Correlation Energy    =      -3.5588975750823564 [Eh]
	 SCS Total Energy          =    -889.9298944851788065 [Eh]
	-----------------------------------------------------------

  Dipole Moment: [D]
     X:     1.6648      Y:    -5.9445      Z:    -1.9514     Total:     6.4743

*** Psi4 exiting successfully. Buy a developer a beer!
