                               Psi4 1.3.2 release

  ==> Input File <==

--------------------------------------------------------------------------
#psi4
#
memory 32 gb

molecule  {
0 1
  O       -1.2481010    -0.6526680     1.0325150
  O       -1.2449750     2.4828510    -0.6861630
  O       -3.2165300     1.5210990     0.7448870
  O       -2.3570290    -3.0668370     0.0949400
  O        1.3605300     2.2470340    -0.0765420
  N        0.8434040     0.0452230     0.2559430
  N        3.0572260     0.7205030    -0.2937270
  N        4.7164630    -0.8366550    -0.5722980
  C       -1.2894840     1.0784300    -0.5920770
  C       -2.7151710     0.6552070    -0.2573930
  C       -0.5254080     0.4815200     0.6000940
  C       -2.5292560    -0.7168860     0.3610560
  C       -2.5283440    -1.8503930    -0.6392900
  C        1.2197750    -1.2614080     0.3112740
  C        1.8190830     1.0911297     0.1812372
  C        2.5111010    -1.6091400     0.0469950
  C        3.4119830    -0.5506530    -0.2589250
  H       -0.9376060     0.5914040    -1.5148910
  H       -3.3625820     0.6426650    -1.1464650
  H       -0.4402900     1.2218800     1.4039980
  H       -3.2819570    -0.9087340     1.1307830
  H       -1.7133080    -1.7003050    -1.3694640
  H       -3.4855610    -1.8340040    -1.1841350
  H       -0.2975250     2.7131790    -0.5250000
  H       -2.8475560     2.3997430     0.5086630
  H        0.4343110    -1.9634370     0.5690680
  H       -2.4338740    -3.7984320    -0.5432330
  H        2.8291120    -2.6453980     0.0739220
  H        5.1251800    -1.6708610    -0.1624140
  H        5.3198140    -0.0200540    -0.5682940
units angstrom
no_reorient  #important for SAPT in psi4, default
symmetry c1  #important for SAPT in psi4, default
}

set PROPERTIES_ORIGIN ["COM"]
properties('MP2/aug-cc-pvtz', properties = ['dipole'])
--------------------------------------------------------------------------

    Molecular point group: c1
  Charge       = 0
  Multiplicity = 1
  Basis Set: AUG-CC-PVTZ
    Blend: AUG-CC-PVTZ
  Basis Set: (AUG-CC-PVTZ AUX)
    Blend: AUG-CC-PVTZ-JKFIT

    Orbital Energies [Eh]
    ---------------------

    Doubly Occupied:

       1A    -20.581527     2A    -20.580685     3A    -20.556807
       4A    -20.555888     5A    -20.523050     6A    -15.637642
       7A    -15.599795     8A    -15.556421     9A    -11.395907
      10A    -11.358913    11A    -11.340468    12A    -11.328090
      13A    -11.300239    14A    -11.295835    15A    -11.294511
      16A    -11.291570    17A    -11.249262    18A     -1.427082
      19A     -1.386932    20A     -1.378767    21A     -1.371599
      22A     -1.344799    23A     -1.300506    24A     -1.270562
      25A     -1.180705    26A     -1.080861    27A     -1.066371
      28A     -1.019519    29A     -0.934344    30A     -0.904320
      31A     -0.876432    32A     -0.830354    33A     -0.810800
      34A     -0.764136    35A     -0.751265    36A     -0.733623
      37A     -0.719870    38A     -0.700994    39A     -0.696988
      40A     -0.684834    41A     -0.672050    42A     -0.651055
      43A     -0.649647    44A     -0.637217    45A     -0.622102
      46A     -0.609997    47A     -0.605006    48A     -0.589906
      49A     -0.574098    50A     -0.568650    51A     -0.552253
      52A     -0.546233    53A     -0.535319    54A     -0.529264
      55A     -0.495071    56A     -0.476517    57A     -0.473194
      58A     -0.460740    59A     -0.457899    60A     -0.451279
      61A     -0.439015    62A     -0.434649    63A     -0.389664
      64A     -0.349130

  @DF-RHF Final Energy:  -886.34356125242039

   => Energetics <=

    Nuclear Repulsion Energy =           1321.9617642658124623
    One-Electron Energy =               -3841.7061932775377500
    Two-Electron Energy =                1633.4008677593051289
    Total Energy =                       -886.3435612524203862
  Basis Set: (AUG-CC-PVTZ AUX)
    Blend: AUG-CC-PVTZ-RI
    Molecular point group: c1

    Geometry (in Angstrom), charge = 0, multiplicity = 1:

       Center              X                  Y                   Z               Mass
    ------------   -----------------  -----------------  -----------------  -----------------
         O           -1.251235190172    -0.653837686844     1.020635721566    15.994914619570
         O           -1.248109190172     2.481681313156    -0.698042278434    15.994914619570
         O           -3.219664190172     1.519929313156     0.733007721566    15.994914619570
         O           -2.360163190172    -3.068006686844     0.083060721566    15.994914619570
         O            1.357395809828     2.245864313156    -0.088421278434    15.994914619570
         N            0.840269809828     0.044053313156     0.244063721566    14.003074004430
         N            3.054091809828     0.719333313156    -0.305606278434    14.003074004430
         N            4.713328809828    -0.837824686844    -0.584177278434    14.003074004430
         C           -1.292618190172     1.077260313156    -0.603956278434    12.000000000000
         C           -2.718305190172     0.654037313156    -0.269272278434    12.000000000000
         C           -0.528542190172     0.480350313156     0.588214721566    12.000000000000
         C           -2.532390190172    -0.718055686844     0.349176721566    12.000000000000
         C           -2.531478190172    -1.851562686844    -0.651169278434    12.000000000000
         C            1.216640809828    -1.262577686844     0.299394721566    12.000000000000
         C            1.815948809828     1.089960013156     0.169357921566    12.000000000000
         C            2.507966809828    -1.610309686844     0.035115721566    12.000000000000
         C            3.408848809828    -0.551822686844    -0.270804278434    12.000000000000
         H           -0.940740190172     0.590234313156    -1.526770278434     1.007825032230
         H           -3.365716190172     0.641495313156    -1.158344278434     1.007825032230
         H           -0.443424190172     1.220710313156     1.392118721566     1.007825032230
         H           -3.285091190172    -0.909903686844     1.118903721566     1.007825032230
         H           -1.716442190172    -1.701474686844    -1.381343278434     1.007825032230
         H           -3.488695190172    -1.835173686844    -1.196014278434     1.007825032230
         H           -0.300659190172     2.712009313156    -0.536879278434     1.007825032230
         H           -2.850690190172     2.398573313156     0.496783721566     1.007825032230
         H            0.431176809828    -1.964606686844     0.557188721566     1.007825032230
         H           -2.437008190172    -3.799601686844    -0.555112278434     1.007825032230
         H            2.825977809828    -2.646567686844     0.062042721566     1.007825032230
         H            5.122045809828    -1.672030686844    -0.174293278434     1.007825032230
         H            5.316679809828    -0.021223686844    -0.580173278434     1.007825032230

  Basis Set: AUG-CC-PVTZ
    Blend: AUG-CC-PVTZ
  Basis Set: (AUG-CC-PVTZ AUX)
    Blend: AUG-CC-PVTZ-JKFIT
	 Reference Energy          =    -886.3435612524203862 [Eh]
	 Singles Energy            =      -0.0000000000000000 [Eh]
	 Same-Spin Energy          =      -0.9031783360768103 [Eh]
	 Opposite-Spin Energy      =      -2.7193603667298336 [Eh]
	 Correlation Energy        =      -3.6225387028066440 [Eh]
	 Total Energy              =    -889.9660999552270368 [Eh]

	 ================> DF-SCS-MP2 Energies <==================
	-----------------------------------------------------------
	 SCS Same-Spin Scale       =       0.3333333333333333 [-]
	 SCS Opposite-Spin Scale   =       1.2000000000000000 [-]
	 SCS Same-Spin Energy      =      -0.3010594453589368 [Eh]
	 SCS Opposite-Spin Energy  =      -3.2632324400758002 [Eh]
	 SCS Correlation Energy    =      -3.5642918854347370 [Eh]
	 SCS Total Energy          =    -889.9078531378551133 [Eh]
	-----------------------------------------------------------

  Dipole Moment: [D]
     X:     1.8517      Y:    -5.9548      Z:    -1.5760     Total:     6.4321

*** Psi4 exiting successfully. Buy a developer a beer!
