                               Psi4 1.3.2 release

  ==> Input File <==

--------------------------------------------------------------------------
#psi4
#
memory 32 gb

molecule  {
0 1
  O       -1.2481010    -0.6526680     1.0325150
  O       -1.2449750     2.4828510    -0.6861630
  O       -3.2165300     1.5210990     0.7448870
  O       -2.3570290    -3.0668370     0.0949400
  O        1.3605300     2.2470340    -0.0765420
  N        0.8434040     0.0452230     0.2559430
  N        3.0572260     0.7205030    -0.2937270
  N        4.7164630    -0.8366550    -0.5722980
  C       -1.2894840     1.0784300    -0.5920770
  C       -2.7151710     0.6552070    -0.2573930
  C       -0.5254080     0.4815200     0.6000940
  C       -2.5292560    -0.7168860     0.3610560
  C       -2.5283440    -1.8503930    -0.6392900
  C        1.2197750    -1.2614080     0.3112740
  C        1.7555940     1.0674350    -0.0594030
  C        2.5111010    -1.6091400     0.0469950
  C        3.4119830    -0.5506530    -0.2589250
  H       -0.9376060     0.5914040    -1.5148910
  H       -3.3625820     0.6426650    -1.1464650
  H       -0.4402900     1.2218800     1.4039980
  H       -3.2819570    -0.9087340     1.1307830
  H       -1.7133080    -1.7003050    -1.3694640
  H       -3.4855610    -1.8340040    -1.1841350
  H       -0.2975250     2.7131790    -0.5250000
  H       -2.8475560     2.3997430     0.5086630
  H        0.4343110    -1.9634370     0.5690680
  H       -2.4338740    -3.7984320    -0.5432330
  H        2.7846086    -2.6638581    -0.1201880
  H        5.1251800    -1.6708610    -0.1624140
  H        5.3198140    -0.0200540    -0.5682940
units angstrom
no_reorient  #important for SAPT in psi4, default
symmetry c1  #important for SAPT in psi4, default
}

set PROPERTIES_ORIGIN ["COM"]
properties('MP2/aug-cc-pvtz', properties = ['dipole'])
--------------------------------------------------------------------------

    Molecular point group: c1
  Charge       = 0
  Multiplicity = 1
  Basis Set: AUG-CC-PVTZ
    Blend: AUG-CC-PVTZ
  Basis Set: (AUG-CC-PVTZ AUX)
    Blend: AUG-CC-PVTZ-JKFIT

    Orbital Energies [Eh]
    ---------------------

    Doubly Occupied:

       1A    -20.582457     2A    -20.581791     3A    -20.557960
       4A    -20.557480     5A    -20.522398     6A    -15.637409
       7A    -15.599673     8A    -15.553403     9A    -11.388577
      10A    -11.357832    11A    -11.341742    12A    -11.329102
      13A    -11.301425    14A    -11.297131    15A    -11.296977
      16A    -11.293206    17A    -11.249722    18A     -1.429594
      19A     -1.396686    20A     -1.380332    21A     -1.373027
      22A     -1.346510    23A     -1.306213    24A     -1.273945
      25A     -1.182251    26A     -1.081674    27A     -1.067957
      28A     -1.021411    29A     -0.935564    30A     -0.909487
      31A     -0.877182    32A     -0.832244    33A     -0.812021
      34A     -0.767002    35A     -0.751776    36A     -0.736396
      37A     -0.720332    38A     -0.703065    39A     -0.698581
      40A     -0.685817    41A     -0.672602    42A     -0.654742
      43A     -0.651057    44A     -0.635077    45A     -0.621373
      46A     -0.614854    47A     -0.607175    48A     -0.592325
      49A     -0.575796    50A     -0.569886    51A     -0.553962
      52A     -0.546339    53A     -0.538277    54A     -0.531575
      55A     -0.498191    56A     -0.477527    57A     -0.474360
      58A     -0.462351    59A     -0.459966    60A     -0.453062
      61A     -0.441690    62A     -0.432599    63A     -0.395265
      64A     -0.350042

  @DF-RHF Final Energy:  -886.37134355422063

   => Energetics <=

    Nuclear Repulsion Energy =           1323.6667626403964277
    One-Electron Energy =               -3844.9813227028594156
    Two-Electron Energy =                1634.9432165082423580
    Total Energy =                       -886.3713435542206298
  Basis Set: (AUG-CC-PVTZ AUX)
    Blend: AUG-CC-PVTZ-RI
    Molecular point group: c1

    Geometry (in Angstrom), charge = 0, multiplicity = 1:

       Center              X                  Y                   Z               Mass
    ------------   -----------------  -----------------  -----------------  -----------------
         O           -1.247916524220    -0.652591454859     1.033319781523    15.994914619570
         O           -1.244790524220     2.482927545141    -0.685358218477    15.994914619570
         O           -3.216345524220     1.521175545141     0.745691781523    15.994914619570
         O           -2.356844524220    -3.066760454859     0.095744781523    15.994914619570
         O            1.360714475780     2.247110545141    -0.075737218477    15.994914619570
         N            0.843588475780     0.045299545141     0.256747781523    14.003074004430
         N            3.057410475780     0.720579545141    -0.292922218477    14.003074004430
         N            4.716647475780    -0.836578454859    -0.571493218477    14.003074004430
         C           -1.289299524220     1.078506545141    -0.591272218477    12.000000000000
         C           -2.714986524220     0.655283545141    -0.256588218477    12.000000000000
         C           -0.525223524220     0.481596545141     0.600898781523    12.000000000000
         C           -2.529071524220    -0.716809454859     0.361860781523    12.000000000000
         C           -2.528159524220    -1.850316454859    -0.638485218477    12.000000000000
         C            1.219959475780    -1.261331454859     0.312078781523    12.000000000000
         C            1.755778475780     1.067511545141    -0.058598218477    12.000000000000
         C            2.511285475780    -1.609063454859     0.047799781523    12.000000000000
         C            3.412167475780    -0.550576454859    -0.258120218477    12.000000000000
         H           -0.937421524220     0.591480545141    -1.514086218477     1.007825032230
         H           -3.362397524220     0.642741545141    -1.145660218477     1.007825032230
         H           -0.440105524220     1.221956545141     1.404802781523     1.007825032230
         H           -3.281772524220    -0.908657454859     1.131587781523     1.007825032230
         H           -1.713123524220    -1.700228454859    -1.368659218477     1.007825032230
         H           -3.485376524220    -1.833927454859    -1.183330218477     1.007825032230
         H           -0.297340524220     2.713255545141    -0.524195218477     1.007825032230
         H           -2.847371524220     2.399819545141     0.509467781523     1.007825032230
         H            0.434495475780    -1.963360454859     0.569872781523     1.007825032230
         H           -2.433689524220    -3.798355454859    -0.542428218477     1.007825032230
         H            2.784793075780    -2.663781554859    -0.119383218477     1.007825032230
         H            5.125364475780    -1.670784454859    -0.161609218477     1.007825032230
         H            5.319998475780    -0.019977454859    -0.567489218477     1.007825032230

  Basis Set: AUG-CC-PVTZ
    Blend: AUG-CC-PVTZ
  Basis Set: (AUG-CC-PVTZ AUX)
    Blend: AUG-CC-PVTZ-JKFIT
	 Reference Energy          =    -886.3713435542206298 [Eh]
	 Singles Energy            =      -0.0000000000000000 [Eh]
	 Same-Spin Energy          =      -0.9013223457261154 [Eh]
	 Opposite-Spin Energy      =      -2.7151229894119595 [Eh]
	 Correlation Energy        =      -3.6164453351380748 [Eh]
	 Total Energy              =    -889.9877888893587397 [Eh]

	 ================> DF-SCS-MP2 Energies <==================
	-----------------------------------------------------------
	 SCS Same-Spin Scale       =       0.3333333333333333 [-]
	 SCS Opposite-Spin Scale   =       1.2000000000000000 [-]
	 SCS Same-Spin Energy      =      -0.3004407819087051 [Eh]
	 SCS Opposite-Spin Energy  =      -3.2581475872943515 [Eh]
	 SCS Correlation Energy    =      -3.5585883692030564 [Eh]
	 SCS Total Energy          =    -889.9299319234237373 [Eh]
	-----------------------------------------------------------

  Dipole Moment: [D]
     X:     1.6572      Y:    -5.9256      Z:    -1.9641     Total:     6.4588

*** Psi4 exiting successfully. Buy a developer a beer!
