                               Psi4 1.3.2 release

  ==> Input File <==

--------------------------------------------------------------------------
#psi4
#
memory 32 gb

molecule  {
0 1
  O       -1.2481010    -0.6526680     1.0325150
  O       -1.2449750     2.4828510    -0.6861630
  O       -3.2165300     1.5210990     0.7448870
  O       -2.3570290    -3.0668370     0.0949400
  O        1.3605300     2.2470340    -0.0765420
  N        0.8434040     0.0452230     0.2559430
  N        3.0572260     0.7205030    -0.2937270
  N        4.7164630    -0.8366550    -0.5722980
  C       -1.2894840     1.0784300    -0.5920770
  C       -2.7151710     0.6552070    -0.2573930
  C       -0.5254080     0.4815200     0.6000940
  C       -2.5292560    -0.7168860     0.3610560
  C       -2.5283440    -1.8503930    -0.6392900
  C        1.2197750    -1.2614080     0.3112740
  C        1.7555940     1.0674350    -0.0594030
  C        2.4506574    -1.6303141    -0.1946623
  C        3.4119830    -0.5506530    -0.2589250
  H       -0.9376060     0.5914040    -1.5148910
  H       -3.3625820     0.6426650    -1.1464650
  H       -0.4402900     1.2218800     1.4039980
  H       -3.2819570    -0.9087340     1.1307830
  H       -1.7133080    -1.7003050    -1.3694640
  H       -3.4855610    -1.8340040    -1.1841350
  H       -0.2975250     2.7131790    -0.5250000
  H       -2.8475560     2.3997430     0.5086630
  H        0.4343110    -1.9634370     0.5690680
  H       -2.4338740    -3.7984320    -0.5432330
  H        2.8291120    -2.6453980     0.0739220
  H        5.1251800    -1.6708610    -0.1624140
  H        5.3198140    -0.0200540    -0.5682940
units angstrom
no_reorient  #important for SAPT in psi4, default
symmetry c1  #important for SAPT in psi4, default
}

set PROPERTIES_ORIGIN ["COM"]
properties('MP2/aug-cc-pvtz', properties = ['dipole'])
--------------------------------------------------------------------------

    Molecular point group: c1
  Charge       = 0
  Multiplicity = 1
  Basis Set: AUG-CC-PVTZ
    Blend: AUG-CC-PVTZ
  Basis Set: (AUG-CC-PVTZ AUX)
    Blend: AUG-CC-PVTZ-JKFIT

    Orbital Energies [Eh]
    ---------------------

    Doubly Occupied:

       1A    -20.582335     2A    -20.582064     3A    -20.558246
       4A    -20.558020     5A    -20.524541     6A    -15.638911
       7A    -15.600398     8A    -15.553801     9A    -11.390233
      10A    -11.359937    11A    -11.342406    12A    -11.333469
      13A    -11.301034    14A    -11.297447    15A    -11.297288
      16A    -11.293501    17A    -11.252826    18A     -1.430276
      19A     -1.397889    20A     -1.380584    21A     -1.372928
      22A     -1.346928    23A     -1.306312    24A     -1.274657
      25A     -1.182811    26A     -1.078278    27A     -1.068140
      28A     -1.020893    29A     -0.935021    30A     -0.908491
      31A     -0.877185    32A     -0.832037    33A     -0.811825
      34A     -0.763908    35A     -0.750838    36A     -0.736572
      37A     -0.719797    38A     -0.702857    39A     -0.698767
      40A     -0.687244    41A     -0.672289    42A     -0.655358
      43A     -0.645890    44A     -0.639244    45A     -0.616951
      46A     -0.613976    47A     -0.606500    48A     -0.588813
      49A     -0.575185    50A     -0.570671    51A     -0.552657
      52A     -0.545366    53A     -0.536467    54A     -0.531960
      55A     -0.497178    56A     -0.477699    57A     -0.474965
      58A     -0.463153    59A     -0.460287    60A     -0.453435
      61A     -0.441065    62A     -0.433488    63A     -0.395383
      64A     -0.351129

  @DF-RHF Final Energy:  -886.35811007712437

   => Energetics <=

    Nuclear Repulsion Energy =           1323.3561050122816596
    One-Electron Energy =               -3844.3288282763560346
    Two-Electron Energy =                1634.6146131869500095
    Total Energy =                       -886.3581100771243655
  Basis Set: (AUG-CC-PVTZ AUX)
    Blend: AUG-CC-PVTZ-RI
    Molecular point group: c1

    Geometry (in Angstrom), charge = 0, multiplicity = 1:

       Center              X                  Y                   Z               Mass
    ------------   -----------------  -----------------  -----------------  -----------------
         O           -1.245117214915    -0.651622723161     1.044444502885    15.994914619570
         O           -1.241991214915     2.483896276839    -0.674233497115    15.994914619570
         O           -3.213546214915     1.522144276839     0.756816502885    15.994914619570
         O           -2.354045214915    -3.065791723161     0.106869502885    15.994914619570
         O            1.363513785085     2.248079276839    -0.064612497115    15.994914619570
         N            0.846387785085     0.046268276839     0.267872502885    14.003074004430
         N            3.060209785085     0.721548276839    -0.281797497115    14.003074004430
         N            4.719446785085    -0.835609723161    -0.560368497115    14.003074004430
         C           -1.286500214915     1.079475276839    -0.580147497115    12.000000000000
         C           -2.712187214915     0.656252276839    -0.245463497115    12.000000000000
         C           -0.522424214915     0.482565276839     0.612023502885    12.000000000000
         C           -2.526272214915    -0.715840723161     0.372985502885    12.000000000000
         C           -2.525360214915    -1.849347723161    -0.627360497115    12.000000000000
         C            1.222758785085    -1.260362723161     0.323203502885    12.000000000000
         C            1.758577785085     1.068480276839    -0.047473497115    12.000000000000
         C            2.453641185085    -1.629268823161    -0.182732797115    12.000000000000
         C            3.414966785085    -0.549607723161    -0.246995497115    12.000000000000
         H           -0.934622214915     0.592449276839    -1.502961497115     1.007825032230
         H           -3.359598214915     0.643710276839    -1.134535497115     1.007825032230
         H           -0.437306214915     1.222925276839     1.415927502885     1.007825032230
         H           -3.278973214915    -0.907688723161     1.142712502885     1.007825032230
         H           -1.710324214915    -1.699259723161    -1.357534497115     1.007825032230
         H           -3.482577214915    -1.832958723161    -1.172205497115     1.007825032230
         H           -0.294541214915     2.714224276839    -0.513070497115     1.007825032230
         H           -2.844572214915     2.400788276839     0.520592502885     1.007825032230
         H            0.437294785085    -1.962391723161     0.580997502885     1.007825032230
         H           -2.430890214915    -3.797386723161    -0.531303497115     1.007825032230
         H            2.832095785085    -2.644352723161     0.085851502885     1.007825032230
         H            5.128163785085    -1.669815723161    -0.150484497115     1.007825032230
         H            5.322797785085    -0.019008723161    -0.556364497115     1.007825032230

  Basis Set: AUG-CC-PVTZ
    Blend: AUG-CC-PVTZ
  Basis Set: (AUG-CC-PVTZ AUX)
    Blend: AUG-CC-PVTZ-JKFIT
	 Reference Energy          =    -886.3581100771243655 [Eh]
	 Singles Energy            =      -0.0000000000000000 [Eh]
	 Same-Spin Energy          =      -0.9017260071189390 [Eh]
	 Opposite-Spin Energy      =      -2.7166752696681185 [Eh]
	 Correlation Energy        =      -3.6184012767870577 [Eh]
	 Total Energy              =    -889.9765113539114054 [Eh]

	 ================> DF-SCS-MP2 Energies <==================
	-----------------------------------------------------------
	 SCS Same-Spin Scale       =       0.3333333333333333 [-]
	 SCS Opposite-Spin Scale   =       1.2000000000000000 [-]
	 SCS Same-Spin Energy      =      -0.3005753357063130 [Eh]
	 SCS Opposite-Spin Energy  =      -3.2600103236017421 [Eh]
	 SCS Correlation Energy    =      -3.5605856593080549 [Eh]
	 SCS Total Energy          =    -889.9186957364323689 [Eh]
	-----------------------------------------------------------

  Dipole Moment: [D]
     X:     1.7042      Y:    -5.7508      Z:    -1.6473     Total:     6.2201

*** Psi4 exiting successfully. Buy a developer a beer!
