                               Psi4 1.3.2 release

  ==> Input File <==

--------------------------------------------------------------------------
#psi4
#
memory 32 gb

molecule  {
0 1
  O       -1.2481010    -0.6526680     1.0325150
  O       -1.2449750     2.4828510    -0.6861630
  O       -3.2165300     1.5210990     0.7448870
  O       -2.3570290    -3.0668370     0.0949400
  O        1.3605300     2.2470340    -0.0765420
  N        0.8434040     0.0452230     0.2559430
  N        3.0572260     0.7205030    -0.2937270
  N        4.7164630    -0.8366550    -0.5722980
  C       -1.2894840     1.0784300    -0.5920770
  C       -2.7151710     0.6552070    -0.2573930
  C       -0.5254080     0.4815200     0.6000940
  C       -2.5292560    -0.7168860     0.3610560
  C       -2.5283440    -1.8503930    -0.6392900
  C        1.2197750    -1.2614080     0.3112740
  C        1.7555940     1.0674350    -0.0594030
  C        2.5111010    -1.6091400     0.0469950
  C        3.4119830    -0.5506530    -0.2589250
  H       -0.9376060     0.5914040    -1.5148910
  H       -3.3625820     0.6426650    -1.1464650
  H       -0.4402900     1.2218800     1.4039980
  H       -3.2819570    -0.9087340     1.1307830
  H       -1.7133080    -1.7003050    -1.3694640
  H       -3.4855610    -1.8340040    -1.1841350
  H       -0.2975250     2.7131790    -0.5250000
  H       -2.8475560     2.3997430     0.5086630
  H        0.3891995    -1.9844463     0.3753580
  H       -2.4338740    -3.7984320    -0.5432330
  H        2.8291120    -2.6453980     0.0739220
  H        5.1251800    -1.6708610    -0.1624140
  H        5.3198140    -0.0200540    -0.5682940
units angstrom
no_reorient  #important for SAPT in psi4, default
symmetry c1  #important for SAPT in psi4, default
}

set PROPERTIES_ORIGIN ["COM"]
properties('MP2/aug-cc-pvtz', properties = ['dipole'])
--------------------------------------------------------------------------

    Molecular point group: c1
  Charge       = 0
  Multiplicity = 1
  Basis Set: AUG-CC-PVTZ
    Blend: AUG-CC-PVTZ
  Basis Set: (AUG-CC-PVTZ AUX)
    Blend: AUG-CC-PVTZ-JKFIT

    Orbital Energies [Eh]
    ---------------------

    Doubly Occupied:

       1A    -20.582919     2A    -20.581206     3A    -20.557780
       4A    -20.557227     5A    -20.522019     6A    -15.636584
       7A    -15.599970     8A    -15.553535     9A    -11.388276
      10A    -11.358137    11A    -11.341362    12A    -11.330468
      13A    -11.301785    14A    -11.296946    15A    -11.296606
      16A    -11.292969    17A    -11.249149    18A     -1.429117
      19A     -1.396377    20A     -1.380276    21A     -1.373206
      22A     -1.346285    23A     -1.306128    24A     -1.273749
      25A     -1.182349    26A     -1.081878    27A     -1.067774
      28A     -1.021438    29A     -0.935552    30A     -0.908284
      31A     -0.877441    32A     -0.832141    33A     -0.811914
      34A     -0.767125    35A     -0.751179    36A     -0.736432
      37A     -0.720110    38A     -0.703518    39A     -0.698498
      40A     -0.684094    41A     -0.672577    42A     -0.655282
      43A     -0.651621    44A     -0.639079    45A     -0.617905
      46A     -0.613837    47A     -0.606952    48A     -0.593826
      49A     -0.575986    50A     -0.569846    51A     -0.554682
      52A     -0.545714    53A     -0.537247    54A     -0.531967
      55A     -0.497471    56A     -0.478117    57A     -0.474514
      58A     -0.462156    59A     -0.460098    60A     -0.452775
      61A     -0.439474    62A     -0.433493    63A     -0.395264
      64A     -0.350245

  @DF-RHF Final Energy:  -886.37007643127833

   => Energetics <=

    Nuclear Repulsion Energy =           1323.7459539818826215
    One-Electron Energy =               -3845.1481991903601738
    Two-Electron Energy =                1635.0321687771991037
    Total Energy =                       -886.3700764312782212
  Basis Set: (AUG-CC-PVTZ AUX)
    Blend: AUG-CC-PVTZ-RI
    Molecular point group: c1

    Geometry (in Angstrom), charge = 0, multiplicity = 1:

       Center              X                  Y                   Z               Mass
    ------------   -----------------  -----------------  -----------------  -----------------
         O           -1.247914003056    -0.652580885955     1.033318123135    15.994914619570
         O           -1.244788003056     2.482938114045    -0.685359876865    15.994914619570
         O           -3.216343003056     1.521186114045     0.745690123135    15.994914619570
         O           -2.356842003056    -3.066749885955     0.095743123135    15.994914619570
         O            1.360716996944     2.247121114045    -0.075738876865    15.994914619570
         N            0.843590996944     0.045310114045     0.256746123135    14.003074004430
         N            3.057412996944     0.720590114045    -0.292923876865    14.003074004430
         N            4.716649996944    -0.836567885955    -0.571494876865    14.003074004430
         C           -1.289297003056     1.078517114045    -0.591273876865    12.000000000000
         C           -2.714984003056     0.655294114045    -0.256589876865    12.000000000000
         C           -0.525221003056     0.481607114045     0.600897123135    12.000000000000
         C           -2.529069003056    -0.716798885955     0.361859123135    12.000000000000
         C           -2.528157003056    -1.850305885955    -0.638486876865    12.000000000000
         C            1.219961996944    -1.261320885955     0.312077123135    12.000000000000
         C            1.755780996944     1.067522114045    -0.058599876865    12.000000000000
         C            2.511287996944    -1.609052885955     0.047798123135    12.000000000000
         C            3.412169996944    -0.550565885955    -0.258121876865    12.000000000000
         H           -0.937419003056     0.591491114045    -1.514087876865     1.007825032230
         H           -3.362395003056     0.642752114045    -1.145661876865     1.007825032230
         H           -0.440103003056     1.221967114045     1.404801123135     1.007825032230
         H           -3.281770003056    -0.908646885955     1.131586123135     1.007825032230
         H           -1.713121003056    -1.700217885955    -1.368660876865     1.007825032230
         H           -3.485374003056    -1.833916885955    -1.183331876865     1.007825032230
         H           -0.297338003056     2.713266114045    -0.524196876865     1.007825032230
         H           -2.847369003056     2.399830114045     0.509466123135     1.007825032230
         H            0.389386496944    -1.984359185955     0.376161123135     1.007825032230
         H           -2.433687003056    -3.798344885955    -0.542429876865     1.007825032230
         H            2.829298996944    -2.645310885955     0.074725123135     1.007825032230
         H            5.125366996944    -1.670773885955    -0.161610876865     1.007825032230
         H            5.320000996944    -0.019966885955    -0.567490876865     1.007825032230

  Basis Set: AUG-CC-PVTZ
    Blend: AUG-CC-PVTZ
  Basis Set: (AUG-CC-PVTZ AUX)
    Blend: AUG-CC-PVTZ-JKFIT
	 Reference Energy          =    -886.3700764312783349 [Eh]
	 Singles Energy            =      -0.0000000000000000 [Eh]
	 Same-Spin Energy          =      -0.9014873886245465 [Eh]
	 Opposite-Spin Energy      =      -2.7155142170272955 [Eh]
	 Correlation Energy        =      -3.6170016056518417 [Eh]
	 Total Energy              =    -889.9870780369301428 [Eh]

	 ================> DF-SCS-MP2 Energies <==================
	-----------------------------------------------------------
	 SCS Same-Spin Scale       =       0.3333333333333333 [-]
	 SCS Opposite-Spin Scale   =       1.2000000000000000 [-]
	 SCS Same-Spin Energy      =      -0.3004957962081821 [Eh]
	 SCS Opposite-Spin Energy  =      -3.2586170604327545 [Eh]
	 SCS Correlation Energy    =      -3.5591128566409367 [Eh]
	 SCS Total Energy          =    -889.9291892879192574 [Eh]
	-----------------------------------------------------------

  Dipole Moment: [D]
     X:     1.7042      Y:    -5.9556      Z:    -1.9342     Total:     6.4895

*** Psi4 exiting successfully. Buy a developer a beer!
