                               Psi4 1.3.2 release

  ==> Input File <==

--------------------------------------------------------------------------
#psi4
#
memory 32 gb

molecule  {
0 1
  O       -1.2481010    -0.6526680     1.0325150
  O       -1.2449750     2.4828510    -0.6861630
  O       -3.2165300     1.5210990     0.7448870
  O       -2.3570290    -3.0668370     0.0949400
  O        1.3605300     2.2470340    -0.0765420
  N        0.8434040     0.0452230     0.2559430
  N        3.0890017     0.7350672    -0.1478565
  N        4.7164630    -0.8366550    -0.5722980
  C       -1.2894840     1.0784300    -0.5920770
  C       -2.7151710     0.6552070    -0.2573930
  C       -0.5254080     0.4815200     0.6000940
  C       -2.5292560    -0.7168860     0.3610560
  C       -2.5283440    -1.8503930    -0.6392900
  C        1.2197750    -1.2614080     0.3112740
  C        1.7555940     1.0674350    -0.0594030
  C        2.5111010    -1.6091400     0.0469950
  C        3.4119830    -0.5506530    -0.2589250
  H       -0.9376060     0.5914040    -1.5148910
  H       -3.3625820     0.6426650    -1.1464650
  H       -0.4402900     1.2218800     1.4039980
  H       -3.2819570    -0.9087340     1.1307830
  H       -1.7133080    -1.7003050    -1.3694640
  H       -3.4855610    -1.8340040    -1.1841350
  H       -0.2975250     2.7131790    -0.5250000
  H       -2.8475560     2.3997430     0.5086630
  H        0.4343110    -1.9634370     0.5690680
  H       -2.4338740    -3.7984320    -0.5432330
  H        2.8291120    -2.6453980     0.0739220
  H        5.1251800    -1.6708610    -0.1624140
  H        5.3198140    -0.0200540    -0.5682940
units angstrom
no_reorient  #important for SAPT in psi4, default
symmetry c1  #important for SAPT in psi4, default
}

set PROPERTIES_ORIGIN ["COM"]
properties('MP2/aug-cc-pvtz', properties = ['dipole'])
--------------------------------------------------------------------------

    Molecular point group: c1
  Charge       = 0
  Multiplicity = 1
  Basis Set: AUG-CC-PVTZ
    Blend: AUG-CC-PVTZ
  Basis Set: (AUG-CC-PVTZ AUX)
    Blend: AUG-CC-PVTZ-JKFIT

    Orbital Energies [Eh]
    ---------------------

    Doubly Occupied:

       1A    -20.582377     2A    -20.581776     3A    -20.557958
       4A    -20.557514     5A    -20.523606     6A    -15.637082
       7A    -15.600022     8A    -15.555069     9A    -11.389026
      10A    -11.358713    11A    -11.341862    12A    -11.328308
      13A    -11.301365    14A    -11.297095    15A    -11.296912
      16A    -11.293161    17A    -11.248622    18A     -1.429499
      19A     -1.396413    20A     -1.380304    21A     -1.372979
      22A     -1.346497    23A     -1.305061    24A     -1.273237
      25A     -1.179374    26A     -1.081785    27A     -1.067919
      28A     -1.021443    29A     -0.935060    30A     -0.909450
      31A     -0.874606    32A     -0.832269    33A     -0.811917
      34A     -0.765059    35A     -0.752354    36A     -0.736228
      37A     -0.720728    38A     -0.703187    39A     -0.698685
      40A     -0.686210    41A     -0.673108    42A     -0.655289
      43A     -0.651102    44A     -0.638422    45A     -0.619148
      46A     -0.614558    47A     -0.606779    48A     -0.595211
      49A     -0.575512    50A     -0.569173    51A     -0.553775
      52A     -0.544562    53A     -0.536169    54A     -0.530634
      55A     -0.499123    56A     -0.477825    57A     -0.475047
      58A     -0.462220    59A     -0.460860    60A     -0.453109
      61A     -0.441134    62A     -0.432453    63A     -0.394884
      64A     -0.349780

  @DF-RHF Final Energy:  -886.36835526096922

   => Energetics <=

    Nuclear Repulsion Energy =           1323.1326162208711139
    One-Electron Energy =               -3843.9207270382939896
    Two-Electron Energy =                1634.4197555564537652
    Total Energy =                       -886.3683552609691105
  Basis Set: (AUG-CC-PVTZ AUX)
    Blend: AUG-CC-PVTZ-RI
    Molecular point group: c1

    Geometry (in Angstrom), charge = 0, multiplicity = 1:

       Center              X                  Y                   Z               Mass
    ------------   -----------------  -----------------  -----------------  -----------------
         O           -1.249931490467    -0.653506968546     1.024112057761    15.994914619570
         O           -1.246805490467     2.482012031454    -0.694565942239    15.994914619570
         O           -3.218360490467     1.520260031454     0.736484057761    15.994914619570
         O           -2.358859490467    -3.067675968546     0.086537057761    15.994914619570
         O            1.358699509533     2.246195031454    -0.084944942239    15.994914619570
         N            0.841573509533     0.044384031454     0.247540057761    14.003074004430
         N            3.087171209533     0.734228231454    -0.156259442239    14.003074004430
         N            4.714632509533    -0.837493968546    -0.580700942239    14.003074004430
         C           -1.291314490467     1.077591031454    -0.600479942239    12.000000000000
         C           -2.717001490467     0.654368031454    -0.265795942239    12.000000000000
         C           -0.527238490467     0.480681031454     0.591691057761    12.000000000000
         C           -2.531086490467    -0.717724968546     0.352653057761    12.000000000000
         C           -2.530174490467    -1.851231968546    -0.647692942239    12.000000000000
         C            1.217944509533    -1.262246968546     0.302871057761    12.000000000000
         C            1.753763509533     1.066596031454    -0.067805942239    12.000000000000
         C            2.509270509533    -1.609978968546     0.038592057761    12.000000000000
         C            3.410152509533    -0.551491968546    -0.267327942239    12.000000000000
         H           -0.939436490467     0.590565031454    -1.523293942239     1.007825032230
         H           -3.364412490467     0.641826031454    -1.154867942239     1.007825032230
         H           -0.442120490467     1.221041031454     1.395595057761     1.007825032230
         H           -3.283787490467    -0.909572968546     1.122380057761     1.007825032230
         H           -1.715138490467    -1.701143968546    -1.377866942239     1.007825032230
         H           -3.487391490467    -1.834842968546    -1.192537942239     1.007825032230
         H           -0.299355490467     2.712340031454    -0.533402942239     1.007825032230
         H           -2.849386490467     2.398904031454     0.500260057761     1.007825032230
         H            0.432480509533    -1.964275968546     0.560665057761     1.007825032230
         H           -2.435704490467    -3.799270968546    -0.551635942239     1.007825032230
         H            2.827281509533    -2.646236968546     0.065519057761     1.007825032230
         H            5.123349509533    -1.671699968546    -0.170816942239     1.007825032230
         H            5.317983509533    -0.020892968546    -0.576696942239     1.007825032230

  Basis Set: AUG-CC-PVTZ
    Blend: AUG-CC-PVTZ
  Basis Set: (AUG-CC-PVTZ AUX)
    Blend: AUG-CC-PVTZ-JKFIT
	 Reference Energy          =    -886.3683552609692242 [Eh]
	 Singles Energy            =      -0.0000000000000000 [Eh]
	 Same-Spin Energy          =      -0.9015835083491460 [Eh]
	 Opposite-Spin Energy      =      -2.7157976724911257 [Eh]
	 Correlation Energy        =      -3.6173811808402716 [Eh]
	 Total Energy              =    -889.9857364418095358 [Eh]

	 ================> DF-SCS-MP2 Energies <==================
	-----------------------------------------------------------
	 SCS Same-Spin Scale       =       0.3333333333333333 [-]
	 SCS Opposite-Spin Scale   =       1.2000000000000000 [-]
	 SCS Same-Spin Energy      =      -0.3005278361163820 [Eh]
	 SCS Opposite-Spin Energy  =      -3.2589572069893507 [Eh]
	 SCS Correlation Energy    =      -3.5594850431057328 [Eh]
	 SCS Total Energy          =    -889.9278403040749481 [Eh]
	-----------------------------------------------------------

  Dipole Moment: [D]
     X:     1.6428      Y:    -5.9378      Z:    -2.0167     Total:     6.4826

*** Psi4 exiting successfully. Buy a developer a beer!
