                               Psi4 1.3.2 release

  ==> Input File <==

--------------------------------------------------------------------------
#psi4
#
memory 32 gb

molecule  {
0 1
  O       -1.2481010    -0.6526680     1.0325150
  O       -1.2449750     2.4828510    -0.6861630
  O       -3.2165300     1.5210990     0.7448870
  O       -2.3570290    -3.0668370     0.0949400
  O        1.3605300     2.2470340    -0.0765420
  N        0.8434040     0.0452230     0.2559430
  N        3.0572260     0.7205030    -0.2937270
  N        4.7164630    -0.8366550    -0.5722980
  C       -1.2894840     1.0784300    -0.5920770
  C       -2.7151710     0.6552070    -0.2573930
  C       -0.5254080     0.4815200     0.6000940
  C       -2.5292560    -0.7168860     0.3610560
  C       -2.5283440    -1.8503930    -0.6392900
  C        1.2197750    -1.2614080     0.3112740
  C        1.7555940     1.0674350    -0.0594030
  C        2.5111010    -1.6091400     0.0469950
  C        3.4119830    -0.5506530    -0.2589250
  H       -0.9376060     0.5914040    -1.5148910
  H       -3.3625820     0.6426650    -1.1464650
  H       -0.4402900     1.2218800     1.4039980
  H       -3.2819570    -0.9087340     1.1307830
  H       -1.7133080    -1.7003050    -1.3694640
  H       -3.4855610    -1.8340040    -1.1841350
  H       -0.2975250     2.7131790    -0.5250000
  H       -2.8475560     2.3997430     0.5086630
  H        0.4230331    -1.9686893     0.5206405
  H       -2.4338740    -3.7984320    -0.5432330
  H        2.8291120    -2.6453980     0.0739220
  H        5.1251800    -1.6708610    -0.1624140
  H        5.3198140    -0.0200540    -0.5682940
units angstrom
no_reorient  #important for SAPT in psi4, default
symmetry c1  #important for SAPT in psi4, default
}

set PROPERTIES_ORIGIN ["COM"]
properties('MP2/aug-cc-pvtz', properties = ['dipole'])
--------------------------------------------------------------------------

    Molecular point group: c1
  Charge       = 0
  Multiplicity = 1
  Basis Set: AUG-CC-PVTZ
    Blend: AUG-CC-PVTZ
  Basis Set: (AUG-CC-PVTZ AUX)
    Blend: AUG-CC-PVTZ-JKFIT

    Orbital Energies [Eh]
    ---------------------

    Doubly Occupied:

       1A    -20.582442     2A    -20.581560     3A    -20.557798
       4A    -20.557246     5A    -20.521999     6A    -15.636874
       7A    -15.599866     8A    -15.553365     9A    -11.388265
      10A    -11.357908    11A    -11.341537    12A    -11.328746
      13A    -11.301352    14A    -11.296956    15A    -11.296651
      16A    -11.292981    17A    -11.248640    18A     -1.429338
      19A     -1.396394    20A     -1.380171    21A     -1.372942
      22A     -1.346309    23A     -1.306078    24A     -1.273802
      25A     -1.182265    26A     -1.081993    27A     -1.067768
      28A     -1.021401    29A     -0.935502    30A     -0.909441
      31A     -0.877326    32A     -0.832310    33A     -0.811886
      34A     -0.767008    35A     -0.752278    36A     -0.736271
      37A     -0.720324    38A     -0.703138    39A     -0.698484
      40A     -0.685427    41A     -0.672796    42A     -0.654762
      43A     -0.651555    44A     -0.638592    45A     -0.619945
      46A     -0.614565    47A     -0.607000    48A     -0.593863
      49A     -0.575889    50A     -0.569805    51A     -0.554221
      52A     -0.545708    53A     -0.537487    54A     -0.531865
      55A     -0.498028    56A     -0.477684    57A     -0.474483
      58A     -0.462234    59A     -0.460057    60A     -0.452840
      61A     -0.440414    62A     -0.433265    63A     -0.395216
      64A     -0.350074

  @DF-RHF Final Energy:  -886.37320637948244

   => Energetics <=

    Nuclear Repulsion Energy =           1323.7355949255045289
    One-Electron Energy =               -3845.1288204307720662
    Two-Electron Energy =                1635.0200191257854385
    Total Energy =                       -886.3732063794823262
  Basis Set: (AUG-CC-PVTZ AUX)
    Blend: AUG-CC-PVTZ-RI
    Molecular point group: c1

    Geometry (in Angstrom), charge = 0, multiplicity = 1:

       Center              X                  Y                   Z               Mass
    ------------   -----------------  -----------------  -----------------  -----------------
         O           -1.248054276113    -0.652646213988     1.032715786394    15.994914619570
         O           -1.244928276113     2.482872786012    -0.685962213606    15.994914619570
         O           -3.216483276113     1.521120786012     0.745087786394    15.994914619570
         O           -2.356982276113    -3.066815213988     0.095140786394    15.994914619570
         O            1.360576723887     2.247055786012    -0.076341213606    15.994914619570
         N            0.843450723887     0.045244786012     0.256143786394    14.003074004430
         N            3.057272723887     0.720524786012    -0.293526213606    14.003074004430
         N            4.716509723887    -0.836633213988    -0.572097213606    14.003074004430
         C           -1.289437276113     1.078451786012    -0.591876213606    12.000000000000
         C           -2.715124276113     0.655228786012    -0.257192213606    12.000000000000
         C           -0.525361276113     0.481541786012     0.600294786394    12.000000000000
         C           -2.529209276113    -0.716864213988     0.361256786394    12.000000000000
         C           -2.528297276113    -1.850371213988    -0.639089213606    12.000000000000
         C            1.219821723887    -1.261386213988     0.311474786394    12.000000000000
         C            1.755640723887     1.067456786012    -0.059202213606    12.000000000000
         C            2.511147723887    -1.609118213988     0.047195786394    12.000000000000
         C            3.412029723887    -0.550631213988    -0.258724213606    12.000000000000
         H           -0.937559276113     0.591425786012    -1.514690213606     1.007825032230
         H           -3.362535276113     0.642686786012    -1.146264213606     1.007825032230
         H           -0.440243276113     1.221901786012     1.404198786394     1.007825032230
         H           -3.281910276113    -0.908712213988     1.130983786394     1.007825032230
         H           -1.713261276113    -1.700283213988    -1.369263213606     1.007825032230
         H           -3.485514276113    -1.833982213988    -1.183934213606     1.007825032230
         H           -0.297478276113     2.713200786012    -0.524799213606     1.007825032230
         H           -2.847509276113     2.399764786012     0.508863786394     1.007825032230
         H            0.423079823887    -1.968667513988     0.520841286394     1.007825032230
         H           -2.433827276113    -3.798410213988    -0.543032213606     1.007825032230
         H            2.829158723887    -2.645376213988     0.074122786394     1.007825032230
         H            5.125226723887    -1.670839213988    -0.162213213606     1.007825032230
         H            5.319860723887    -0.020032213988    -0.568093213606     1.007825032230

  Basis Set: AUG-CC-PVTZ
    Blend: AUG-CC-PVTZ
  Basis Set: (AUG-CC-PVTZ AUX)
    Blend: AUG-CC-PVTZ-JKFIT
	 Reference Energy          =    -886.3732063794824398 [Eh]
	 Singles Energy            =      -0.0000000000000000 [Eh]
	 Same-Spin Energy          =      -0.9012604062007917 [Eh]
	 Opposite-Spin Energy      =      -2.7149958041847304 [Eh]
	 Correlation Energy        =      -3.6162562103855223 [Eh]
	 Total Energy              =    -889.9894625898679124 [Eh]

	 ================> DF-SCS-MP2 Energies <==================
	-----------------------------------------------------------
	 SCS Same-Spin Scale       =       0.3333333333333333 [-]
	 SCS Opposite-Spin Scale   =       1.2000000000000000 [-]
	 SCS Same-Spin Energy      =      -0.3004201354002639 [Eh]
	 SCS Opposite-Spin Energy  =      -3.2579949650216764 [Eh]
	 SCS Correlation Energy    =      -3.5584151004219402 [Eh]
	 SCS Total Energy          =    -889.9316214799043792 [Eh]
	-----------------------------------------------------------

  Dipole Moment: [D]
     X:     1.7043      Y:    -5.9531      Z:    -1.8503     Total:     6.4628

*** Psi4 exiting successfully. Buy a developer a beer!
