                               Psi4 1.3.2 release

  ==> Input File <==

--------------------------------------------------------------------------
#psi4
#
memory 32 gb

molecule  {
0 1
  O       -1.2481010    -0.6526680     1.0325150
  O       -1.2449750     2.4828510    -0.6861630
  O       -3.2165300     1.5210990     0.7448870
  O       -2.3570290    -3.0668370     0.0949400
  O        1.3605300     2.2470340    -0.0765420
  N        0.8434040     0.0452230     0.2559430
  N        3.0572260     0.7205030    -0.2937270
  N        4.7164630    -0.8366550    -0.5722980
  C       -1.2894840     1.0784300    -0.5920770
  C       -2.7151710     0.6552070    -0.2573930
  C       -0.5254080     0.4815200     0.6000940
  C       -2.5292560    -0.7168860     0.3610560
  C       -2.5283440    -1.8503930    -0.6392900
  C        1.2197750    -1.2614080     0.3112740
  C        1.7555940     1.0674350    -0.0594030
  C        2.5111010    -1.6091400     0.0469950
  C        3.4119830    -0.5506530    -0.2589250
  H       -0.9376060     0.5914040    -1.5148910
  H       -3.3625820     0.6426650    -1.1464650
  H       -0.4402900     1.2218800     1.4039980
  H       -3.2819570    -0.9087340     1.1307830
  H       -1.7133080    -1.7003050    -1.3694640
  H       -3.4855610    -1.8340040    -1.1841350
  H       -0.2975250     2.7131790    -0.5250000
  H       -2.8475560     2.3997430     0.5086630
  H        0.4343110    -1.9634370     0.5690680
  H       -2.4338740    -3.7984320    -0.5432330
  H        2.8179862    -2.6500130     0.0253945
  H        5.1251800    -1.6708610    -0.1624140
  H        5.3198140    -0.0200540    -0.5682940
units angstrom
no_reorient  #important for SAPT in psi4, default
symmetry c1  #important for SAPT in psi4, default
}

set PROPERTIES_ORIGIN ["COM"]
properties('MP2/aug-cc-pvtz', properties = ['dipole'])
--------------------------------------------------------------------------

    Molecular point group: c1
  Charge       = 0
  Multiplicity = 1
  Basis Set: AUG-CC-PVTZ
    Blend: AUG-CC-PVTZ
  Basis Set: (AUG-CC-PVTZ AUX)
    Blend: AUG-CC-PVTZ-JKFIT

    Orbital Energies [Eh]
    ---------------------

    Doubly Occupied:

       1A    -20.582291     2A    -20.581628     3A    -20.557809
       4A    -20.557270     5A    -20.522032     6A    -15.636981
       7A    -15.599824     8A    -15.553347     9A    -11.388293
      10A    -11.357853    11A    -11.341572    12A    -11.328588
      13A    -11.301231    14A    -11.296958    15A    -11.296700
      16A    -11.293002    17A    -11.248605    18A     -1.429388
      19A     -1.396419    20A     -1.380148    21A     -1.372852
      22A     -1.346327    23A     -1.306076    24A     -1.273812
      25A     -1.182245    26A     -1.081954    27A     -1.067768
      28A     -1.021387    29A     -0.935467    30A     -0.909488
      31A     -0.877283    32A     -0.832323    33A     -0.811861
      34A     -0.766972    35A     -0.752365    36A     -0.736253
      37A     -0.720245    38A     -0.702968    39A     -0.698476
      40A     -0.685696    41A     -0.672804    42A     -0.654545
      43A     -0.651702    44A     -0.637818    45A     -0.620834
      46A     -0.614545    47A     -0.606814    48A     -0.593695
      49A     -0.575756    50A     -0.569781    51A     -0.553997
      52A     -0.545847    53A     -0.537722    54A     -0.531757
      55A     -0.498100    56A     -0.477493    57A     -0.474404
      58A     -0.462196    59A     -0.460011    60A     -0.452868
      61A     -0.440936    62A     -0.432998    63A     -0.395213
      64A     -0.350024

  @DF-RHF Final Energy:  -886.37336025476088

   => Energetics <=

    Nuclear Repulsion Energy =           1323.7135268767997331
    One-Electron Energy =               -3845.0865387282651682
    Two-Electron Energy =                1634.9996515967045525
    Total Energy =                       -886.3733602547608825
  Basis Set: (AUG-CC-PVTZ AUX)
    Blend: AUG-CC-PVTZ-RI
    Molecular point group: c1

    Geometry (in Angstrom), charge = 0, multiplicity = 1:

       Center              X                  Y                   Z               Mass
    ------------   -----------------  -----------------  -----------------  -----------------
         O           -1.248054906714    -0.652648856214     1.032716200991    15.994914619570
         O           -1.244928906714     2.482870143786    -0.685961799009    15.994914619570
         O           -3.216483906714     1.521118143786     0.745088200991    15.994914619570
         O           -2.356982906714    -3.066817856214     0.095141200991    15.994914619570
         O            1.360576093286     2.247053143786    -0.076340799009    15.994914619570
         N            0.843450093286     0.045242143786     0.256144200991    14.003074004430
         N            3.057272093286     0.720522143786    -0.293525799009    14.003074004430
         N            4.716509093286    -0.836635856214    -0.572096799009    14.003074004430
         C           -1.289437906714     1.078449143786    -0.591875799009    12.000000000000
         C           -2.715124906714     0.655226143786    -0.257191799009    12.000000000000
         C           -0.525361906714     0.481539143786     0.600295200991    12.000000000000
         C           -2.529209906714    -0.716866856214     0.361257200991    12.000000000000
         C           -2.528297906714    -1.850373856214    -0.639088799009    12.000000000000
         C            1.219821093286    -1.261388856214     0.311475200991    12.000000000000
         C            1.755640093286     1.067454143786    -0.059201799009    12.000000000000
         C            2.511147093286    -1.609120856214     0.047196200991    12.000000000000
         C            3.412029093286    -0.550633856214    -0.258723799009    12.000000000000
         H           -0.937559906714     0.591423143786    -1.514689799009     1.007825032230
         H           -3.362535906714     0.642684143786    -1.146263799009     1.007825032230
         H           -0.440243906714     1.221899143786     1.404199200991     1.007825032230
         H           -3.281910906714    -0.908714856214     1.130984200991     1.007825032230
         H           -1.713261906714    -1.700285856214    -1.369262799009     1.007825032230
         H           -3.485514906714    -1.833984856214    -1.183933799009     1.007825032230
         H           -0.297478906714     2.713198143786    -0.524798799009     1.007825032230
         H           -2.847509906714     2.399762143786     0.508864200991     1.007825032230
         H            0.434357093286    -1.963417856214     0.569269200991     1.007825032230
         H           -2.433827906714    -3.798412856214    -0.543031799009     1.007825032230
         H            2.818032293286    -2.649993856214     0.025595700991     1.007825032230
         H            5.125226093286    -1.670841856214    -0.162212799009     1.007825032230
         H            5.319860093286    -0.020034856214    -0.568092799009     1.007825032230

  Basis Set: AUG-CC-PVTZ
    Blend: AUG-CC-PVTZ
  Basis Set: (AUG-CC-PVTZ AUX)
    Blend: AUG-CC-PVTZ-JKFIT
	 Reference Energy          =    -886.3733602547608825 [Eh]
	 Singles Energy            =      -0.0000000000000000 [Eh]
	 Same-Spin Energy          =      -0.9012485234649255 [Eh]
	 Opposite-Spin Energy      =      -2.7149504232087089 [Eh]
	 Correlation Energy        =      -3.6161989466736344 [Eh]
	 Total Energy              =    -889.9895592014345311 [Eh]

	 ================> DF-SCS-MP2 Energies <==================
	-----------------------------------------------------------
	 SCS Same-Spin Scale       =       0.3333333333333333 [-]
	 SCS Opposite-Spin Scale   =       1.2000000000000000 [-]
	 SCS Same-Spin Energy      =      -0.3004161744883085 [Eh]
	 SCS Opposite-Spin Energy  =      -3.2579405078504506 [Eh]
	 SCS Correlation Energy    =      -3.5583566823387591 [Eh]
	 SCS Total Energy          =    -889.9317169370996226 [Eh]
	-----------------------------------------------------------

  Dipole Moment: [D]
     X:     1.6996      Y:    -5.9510      Z:    -1.8581     Total:     6.4619

*** Psi4 exiting successfully. Buy a developer a beer!
