                               Psi4 1.3.2 release

  ==> Input File <==

--------------------------------------------------------------------------
#psi4
#
memory 32 gb

molecule  {
0 1
  O       -1.2481010    -0.6526680     1.0325150
  O       -1.2449750     2.4828510    -0.6861630
  O       -3.2165300     1.5210990     0.7448870
  O       -2.3570290    -3.0668370     0.0949400
  O        1.3605300     2.2470340    -0.0765420
  N        0.8434040     0.0452230     0.2559430
  N        3.0572260     0.7205030    -0.2937270
  N        4.7164630    -0.8366550    -0.5722980
  C       -1.2894840     1.0784300    -0.5920770
  C       -2.7151710     0.6552070    -0.2573930
  C       -0.5254080     0.4815200     0.6000940
  C       -2.5292560    -0.7168860     0.3610560
  C       -2.5283440    -1.8503930    -0.6392900
  C        1.2197750    -1.2614080     0.3112740
  C        1.7555940     1.0674350    -0.0594030
  C        2.5111010    -1.6091400     0.0469950
  C        3.4119830    -0.5506530    -0.2589250
  H       -0.9376060     0.5914040    -1.5148910
  H       -3.3625820     0.6426650    -1.1464650
  H       -0.4402900     1.2218800     1.4039980
  H       -3.2819570    -0.9087340     1.1307830
  H       -1.7133080    -1.7003050    -1.3694640
  H       -3.4855610    -1.8340040    -1.1841350
  H       -0.2975250     2.7131790    -0.5250000
  H       -2.8475560     2.3997430     0.5086630
  H        0.4343110    -1.9634370     0.5690680
  H       -2.4338740    -3.7984320    -0.5432330
  H        2.7957345    -2.6592431    -0.0716605
  H        5.1251800    -1.6708610    -0.1624140
  H        5.3198140    -0.0200540    -0.5682940
units angstrom
no_reorient  #important for SAPT in psi4, default
symmetry c1  #important for SAPT in psi4, default
}

set PROPERTIES_ORIGIN ["COM"]
properties('MP2/aug-cc-pvtz', properties = ['dipole'])
--------------------------------------------------------------------------

    Molecular point group: c1
  Charge       = 0
  Multiplicity = 1
  Basis Set: AUG-CC-PVTZ
    Blend: AUG-CC-PVTZ
  Basis Set: (AUG-CC-PVTZ AUX)
    Blend: AUG-CC-PVTZ-JKFIT

    Orbital Energies [Eh]
    ---------------------

    Doubly Occupied:

       1A    -20.582396     2A    -20.581718     3A    -20.557896
       4A    -20.557390     5A    -20.522234     6A    -15.637219
       7A    -15.599730     8A    -15.553370     9A    -11.388448
      10A    -11.357834    11A    -11.341662    12A    -11.328872
      13A    -11.301351    14A    -11.297060    15A    -11.296865
      16A    -11.293123    17A    -11.249185    18A     -1.429503
      19A     -1.396566    20A     -1.380256    21A     -1.372958
      22A     -1.346432    23A     -1.306147    24A     -1.273881
      25A     -1.182241    26A     -1.081800    27A     -1.067879
      28A     -1.021405    29A     -0.935525    30A     -0.909489
      31A     -0.877225    32A     -0.832276    33A     -0.811953
      34A     -0.766985    35A     -0.752043    36A     -0.736350
      37A     -0.720294    38A     -0.703022    39A     -0.698537
      40A     -0.685784    41A     -0.672688    42A     -0.654650
      43A     -0.651415    44A     -0.636141    45A     -0.621190
      46A     -0.614749    47A     -0.607044    48A     -0.592940
      49A     -0.575776    50A     -0.569852    51A     -0.553969
      52A     -0.546172    53A     -0.538089    54A     -0.531637
      55A     -0.498148    56A     -0.477504    57A     -0.474362
      58A     -0.462275    59A     -0.459972    60A     -0.452980
      61A     -0.441434    62A     -0.432725    63A     -0.395241
      64A     -0.350036

  @DF-RHF Final Energy:  -886.37232766526540

   => Energetics <=

    Nuclear Repulsion Energy =           1323.6915323428190732
    One-Electron Energy =               -3845.0359382371871106
    Two-Electron Energy =                1634.9720782291024079
    Total Energy =                       -886.3723276652654022
  Basis Set: (AUG-CC-PVTZ AUX)
    Blend: AUG-CC-PVTZ-RI
    Molecular point group: c1

    Geometry (in Angstrom), charge = 0, multiplicity = 1:

       Center              X                  Y                   Z               Mass
    ------------   -----------------  -----------------  -----------------  -----------------
         O           -1.247962651856    -0.652610588506     1.033118588012    15.994914619570
         O           -1.244836651856     2.482908411494    -0.685559411988    15.994914619570
         O           -3.216391651856     1.521156411494     0.745490588012    15.994914619570
         O           -2.356890651856    -3.066779588506     0.095543588012    15.994914619570
         O            1.360668348144     2.247091411494    -0.075938411988    15.994914619570
         N            0.843542348144     0.045280411494     0.256546588012    14.003074004430
         N            3.057364348144     0.720560411494    -0.293123411988    14.003074004430
         N            4.716601348144    -0.836597588506    -0.571694411988    14.003074004430
         C           -1.289345651856     1.078487411494    -0.591473411988    12.000000000000
         C           -2.715032651856     0.655264411494    -0.256789411988    12.000000000000
         C           -0.525269651856     0.481577411494     0.600697588012    12.000000000000
         C           -2.529117651856    -0.716828588506     0.361659588012    12.000000000000
         C           -2.528205651856    -1.850335588506    -0.638686411988    12.000000000000
         C            1.219913348144    -1.261350588506     0.311877588012    12.000000000000
         C            1.755732348144     1.067492411494    -0.058799411988    12.000000000000
         C            2.511239348144    -1.609082588506     0.047598588012    12.000000000000
         C            3.412121348144    -0.550595588506    -0.258321411988    12.000000000000
         H           -0.937467651856     0.591461411494    -1.514287411988     1.007825032230
         H           -3.362443651856     0.642722411494    -1.145861411988     1.007825032230
         H           -0.440151651856     1.221937411494     1.404601588012     1.007825032230
         H           -3.281818651856    -0.908676588506     1.131386588012     1.007825032230
         H           -1.713169651856    -1.700247588506    -1.368860411988     1.007825032230
         H           -3.485422651856    -1.833946588506    -1.183531411988     1.007825032230
         H           -0.297386651856     2.713236411494    -0.524396411988     1.007825032230
         H           -2.847417651856     2.399800411494     0.509266588012     1.007825032230
         H            0.434449348144    -1.963379588506     0.569671588012     1.007825032230
         H           -2.433735651856    -3.798374588506    -0.542629411988     1.007825032230
         H            2.795872848144    -2.659185688506    -0.071056911988     1.007825032230
         H            5.125318348144    -1.670803588506    -0.161810411988     1.007825032230
         H            5.319952348144    -0.019996588506    -0.567690411988     1.007825032230

  Basis Set: AUG-CC-PVTZ
    Blend: AUG-CC-PVTZ
  Basis Set: (AUG-CC-PVTZ AUX)
    Blend: AUG-CC-PVTZ-JKFIT
	 Reference Energy          =    -886.3723276652654022 [Eh]
	 Singles Energy            =      -0.0000000000000000 [Eh]
	 Same-Spin Energy          =      -0.9012880075050937 [Eh]
	 Opposite-Spin Energy      =      -2.7150373218459110 [Eh]
	 Correlation Energy        =      -3.6163253293510049 [Eh]
	 Total Energy              =    -889.9886529946163591 [Eh]

	 ================> DF-SCS-MP2 Energies <==================
	-----------------------------------------------------------
	 SCS Same-Spin Scale       =       0.3333333333333333 [-]
	 SCS Opposite-Spin Scale   =       1.2000000000000000 [-]
	 SCS Same-Spin Energy      =      -0.3004293358350312 [Eh]
	 SCS Opposite-Spin Energy  =      -3.2580447862150930 [Eh]
	 SCS Correlation Energy    =      -3.5584741220501241 [Eh]
	 SCS Total Energy          =    -889.9308017873155450 [Eh]
	-----------------------------------------------------------

  Dipole Moment: [D]
     X:     1.6731      Y:    -5.9385      Z:    -1.9289     Total:     6.4641

*** Psi4 exiting successfully. Buy a developer a beer!
