                               Psi4 1.3.2 release

  ==> Input File <==

--------------------------------------------------------------------------
#psi4
#
memory 32 gb

molecule  {
0 1
  O       -1.2481010    -0.6526680     1.0325150
  O       -1.2449750     2.4828510    -0.6861630
  O       -3.2165300     1.5210990     0.7448870
  O       -2.3570290    -3.0668370     0.0949400
  O        1.3605300     2.2470340    -0.0765420
  N        0.8434040     0.0452230     0.2559430
  N        3.0572260     0.7205030    -0.2937270
  N        4.7164630    -0.8366550    -0.5722980
  C       -1.2894840     1.0784300    -0.5920770
  C       -2.7151710     0.6552070    -0.2573930
  C       -0.5254080     0.4815200     0.6000940
  C       -2.5292560    -0.7168860     0.3610560
  C       -2.5283440    -1.8503930    -0.6392900
  C        1.2197750    -1.2614080     0.3112740
  C        1.7555940     1.0674350    -0.0594030
  C        2.4627461    -1.6260793    -0.1463308
  C        3.4119830    -0.5506530    -0.2589250
  H       -0.9376060     0.5914040    -1.5148910
  H       -3.3625820     0.6426650    -1.1464650
  H       -0.4402900     1.2218800     1.4039980
  H       -3.2819570    -0.9087340     1.1307830
  H       -1.7133080    -1.7003050    -1.3694640
  H       -3.4855610    -1.8340040    -1.1841350
  H       -0.2975250     2.7131790    -0.5250000
  H       -2.8475560     2.3997430     0.5086630
  H        0.4343110    -1.9634370     0.5690680
  H       -2.4338740    -3.7984320    -0.5432330
  H        2.8291120    -2.6453980     0.0739220
  H        5.1251800    -1.6708610    -0.1624140
  H        5.3198140    -0.0200540    -0.5682940
units angstrom
no_reorient  #important for SAPT in psi4, default
symmetry c1  #important for SAPT in psi4, default
}

set PROPERTIES_ORIGIN ["COM"]
properties('MP2/aug-cc-pvtz', properties = ['dipole'])
--------------------------------------------------------------------------

    Molecular point group: c1
  Charge       = 0
  Multiplicity = 1
  Basis Set: AUG-CC-PVTZ
    Blend: AUG-CC-PVTZ
  Basis Set: (AUG-CC-PVTZ AUX)
    Blend: AUG-CC-PVTZ-JKFIT

    Orbital Energies [Eh]
    ---------------------

    Doubly Occupied:

       1A    -20.582041     2A    -20.582030     3A    -20.558041
       4A    -20.557701     5A    -20.523627     6A    -15.638106
       7A    -15.600314     8A    -15.553714     9A    -11.389530
      10A    -11.359235    11A    -11.342033    12A    -11.331516
      13A    -11.300986    14A    -11.297135    15A    -11.297088
      16A    -11.293268    17A    -11.251281    18A     -1.429903
      19A     -1.397336    20A     -1.380362    21A     -1.372817
      22A     -1.346665    23A     -1.306229    24A     -1.274357
      25A     -1.182664    26A     -1.079677    27A     -1.067936
      28A     -1.021036    29A     -0.935101    30A     -0.908761
      31A     -0.877240    32A     -0.832073    33A     -0.811793
      34A     -0.764933    35A     -0.751244    36A     -0.736362
      37A     -0.719838    38A     -0.702787    39A     -0.698593
      40A     -0.686816    41A     -0.672321    42A     -0.655111
      43A     -0.647006    44A     -0.639885    45A     -0.617924
      46A     -0.614076    47A     -0.606613    48A     -0.590671
      49A     -0.575296    50A     -0.570465    51A     -0.552951
      52A     -0.545385    53A     -0.536678    54A     -0.531933
      55A     -0.497477    56A     -0.477582    57A     -0.474772
      58A     -0.462742    59A     -0.460199    60A     -0.453177
      61A     -0.441036    62A     -0.433499    63A     -0.395327
      64A     -0.350675

  @DF-RHF Final Energy:  -886.36374029442436

   => Energetics <=

    Nuclear Repulsion Energy =           1323.5466560765362374
    One-Electron Energy =               -3844.7308493707464550
    Two-Electron Energy =                1634.8204529997858572
    Total Energy =                       -886.3637402944243604
  Basis Set: (AUG-CC-PVTZ AUX)
    Blend: AUG-CC-PVTZ-RI
    Molecular point group: c1

    Geometry (in Angstrom), charge = 0, multiplicity = 1:

       Center              X                  Y                   Z               Mass
    ------------   -----------------  -----------------  -----------------  -----------------
         O           -1.245713977732    -0.651831775513     1.042058601829    15.994914619570
         O           -1.242587977732     2.483687224487    -0.676619398171    15.994914619570
         O           -3.214142977732     1.521935224487     0.754430601829    15.994914619570
         O           -2.354641977732    -3.066000775513     0.104483601829    15.994914619570
         O            1.362917022268     2.247870224487    -0.066998398171    15.994914619570
         N            0.845791022268     0.046059224487     0.265486601829    14.003074004430
         N            3.059613022268     0.721339224487    -0.284183398171    14.003074004430
         N            4.718850022268    -0.835818775513    -0.562754398171    14.003074004430
         C           -1.287096977732     1.079266224487    -0.582533398171    12.000000000000
         C           -2.712783977732     0.656043224487    -0.247849398171    12.000000000000
         C           -0.523020977732     0.482356224487     0.609637601829    12.000000000000
         C           -2.526868977732    -0.716049775513     0.370599601829    12.000000000000
         C           -2.525956977732    -1.849556775513    -0.629746398171    12.000000000000
         C            1.222162022268    -1.260571775513     0.320817601829    12.000000000000
         C            1.757981022268     1.068271224487    -0.049859398171    12.000000000000
         C            2.465133122268    -1.625243075513    -0.136787198171    12.000000000000
         C            3.414370022268    -0.549816775513    -0.249381398171    12.000000000000
         H           -0.935218977732     0.592240224487    -1.505347398171     1.007825032230
         H           -3.360194977732     0.643501224487    -1.136921398171     1.007825032230
         H           -0.437902977732     1.222716224487     1.413541601829     1.007825032230
         H           -3.279569977732    -0.907897775513     1.140326601829     1.007825032230
         H           -1.710920977732    -1.699468775513    -1.359920398171     1.007825032230
         H           -3.483173977732    -1.833167775513    -1.174591398171     1.007825032230
         H           -0.295137977732     2.714015224487    -0.515456398171     1.007825032230
         H           -2.845168977732     2.400579224487     0.518206601829     1.007825032230
         H            0.436698022268    -1.962600775513     0.578611601829     1.007825032230
         H           -2.431486977732    -3.797595775513    -0.533689398171     1.007825032230
         H            2.831499022268    -2.644561775513     0.083465601829     1.007825032230
         H            5.127567022268    -1.670024775513    -0.152870398171     1.007825032230
         H            5.322201022268    -0.019217775513    -0.558750398171     1.007825032230

  Basis Set: AUG-CC-PVTZ
    Blend: AUG-CC-PVTZ
  Basis Set: (AUG-CC-PVTZ AUX)
    Blend: AUG-CC-PVTZ-JKFIT
	 Reference Energy          =    -886.3637402944243604 [Eh]
	 Singles Energy            =      -0.0000000000000000 [Eh]
	 Same-Spin Energy          =      -0.9015585597161779 [Eh]
	 Opposite-Spin Energy      =      -2.7160032504908207 [Eh]
	 Correlation Energy        =      -3.6175618102069986 [Eh]
	 Total Energy              =    -889.9813021046313679 [Eh]

	 ================> DF-SCS-MP2 Energies <==================
	-----------------------------------------------------------
	 SCS Same-Spin Scale       =       0.3333333333333333 [-]
	 SCS Opposite-Spin Scale   =       1.2000000000000000 [-]
	 SCS Same-Spin Energy      =      -0.3005195199053926 [Eh]
	 SCS Opposite-Spin Energy  =      -3.2592039005889846 [Eh]
	 SCS Correlation Energy    =      -3.5597234204943771 [Eh]
	 SCS Total Energy          =    -889.9234637149187392 [Eh]
	-----------------------------------------------------------

  Dipole Moment: [D]
     X:     1.7165      Y:    -5.8190      Z:    -1.6833     Total:     6.2960

*** Psi4 exiting successfully. Buy a developer a beer!
