                               Psi4 1.3.2 release

  ==> Input File <==

--------------------------------------------------------------------------
#psi4
#
memory 32 gb

molecule  {
0 1
  O       -1.2481010    -0.6526680     1.0325150
  O       -1.2449750     2.4828510    -0.6861630
  O       -3.2165300     1.5210990     0.7448870
  O       -2.3570290    -3.0668370     0.0949400
  O        1.3605300     2.2470340    -0.0765420
  N        0.8434040     0.0452230     0.2559430
  N        3.0572260     0.7205030    -0.2937270
  N        4.7164630    -0.8366550    -0.5722980
  C       -1.2894840     1.0784300    -0.5920770
  C       -2.7151710     0.6552070    -0.2573930
  C       -0.5254080     0.4815200     0.6000940
  C       -2.5292560    -0.7168860     0.3610560
  C       -2.5283440    -1.8503930    -0.6392900
  C        1.2197750    -1.2614080     0.3112740
  C        1.7555940     1.0674350    -0.0594030
  C        2.5111010    -1.6091400     0.0469950
  C        3.4119830    -0.5506530    -0.2589250
  H       -0.9376060     0.5914040    -1.5148910
  H       -3.3625820     0.6426650    -1.1464650
  H       -0.4402900     1.2218800     1.4039980
  H       -3.2819570    -0.9087340     1.1307830
  H       -1.7133080    -1.7003050    -1.3694640
  H       -3.4855610    -1.8340040    -1.1841350
  H       -0.2975250     2.7131790    -0.5250000
  H       -2.8475560     2.3997430     0.5086630
  H        0.4117552    -1.9739417     0.4722130
  H       -2.4338740    -3.7984320    -0.5432330
  H        2.8291120    -2.6453980     0.0739220
  H        5.1251800    -1.6708610    -0.1624140
  H        5.3198140    -0.0200540    -0.5682940
units angstrom
no_reorient  #important for SAPT in psi4, default
symmetry c1  #important for SAPT in psi4, default
}

set PROPERTIES_ORIGIN ["COM"]
properties('MP2/aug-cc-pvtz', properties = ['dipole'])
--------------------------------------------------------------------------

    Molecular point group: c1
  Charge       = 0
  Multiplicity = 1
  Basis Set: AUG-CC-PVTZ
    Blend: AUG-CC-PVTZ
  Basis Set: (AUG-CC-PVTZ AUX)
    Blend: AUG-CC-PVTZ-JKFIT

    Orbital Energies [Eh]
    ---------------------

    Doubly Occupied:

       1A    -20.582619     2A    -20.581475     3A    -20.557801
       4A    -20.557246     5A    -20.522003     6A    -15.636794
       7A    -15.599886     8A    -15.553399     9A    -11.388264
      10A    -11.357966    11A    -11.341494    12A    -11.329140
      13A    -11.301506    14A    -11.296968    15A    -11.296645
      16A    -11.292988    17A    -11.248761    18A     -1.429287
      19A     -1.396392    20A     -1.380216    21A     -1.373050
      22A     -1.346308    23A     -1.306089    24A     -1.273790
      25A     -1.182283    26A     -1.081980    27A     -1.067784
      28A     -1.021421    29A     -0.935536    30A     -0.909220
      31A     -0.877361    32A     -0.832269    33A     -0.811915
      34A     -0.767043    35A     -0.752027    36A     -0.736332
      37A     -0.720329    38A     -0.703292    39A     -0.698500
      40A     -0.685090    41A     -0.672751    42A     -0.654956
      43A     -0.651569    44A     -0.638740    45A     -0.619169
      46A     -0.614554    47A     -0.607155    48A     -0.593860
      49A     -0.575969    50A     -0.569841    51A     -0.554395
      52A     -0.545718    53A     -0.537420    54A     -0.531906
      55A     -0.497899    56A     -0.477845    57A     -0.474507
      58A     -0.462242    59A     -0.460069    60A     -0.452830
      61A     -0.440115    62A     -0.433364    63A     -0.395227
      64A     -0.350130

  @DF-RHF Final Energy:  -886.37257053344410

   => Energetics <=

    Nuclear Repulsion Energy =           1323.7498462311014009
    One-Electron Energy =               -3845.1554291282868689
    Two-Electron Energy =                1635.0330123637413635
    Total Energy =                       -886.3725705334441045
  Basis Set: (AUG-CC-PVTZ AUX)
    Blend: AUG-CC-PVTZ-RI
    Molecular point group: c1

    Geometry (in Angstrom), charge = 0, multiplicity = 1:

       Center              X                  Y                   Z               Mass
    ------------   -----------------  -----------------  -----------------  -----------------
         O           -1.248007518289    -0.652624437701     1.032916565308    15.994914619570
         O           -1.244881518289     2.482894562299    -0.685761434692    15.994914619570
         O           -3.216436518289     1.521142562299     0.745288565308    15.994914619570
         O           -2.356935518289    -3.066793437701     0.095341565308    15.994914619570
         O            1.360623481711     2.247077562299    -0.076140434692    15.994914619570
         N            0.843497481711     0.045266562299     0.256344565308    14.003074004430
         N            3.057319481711     0.720546562299    -0.293325434692    14.003074004430
         N            4.716556481711    -0.836611437701    -0.571896434692    14.003074004430
         C           -1.289390518289     1.078473562299    -0.591675434692    12.000000000000
         C           -2.715077518289     0.655250562299    -0.256991434692    12.000000000000
         C           -0.525314518289     0.481563562299     0.600495565308    12.000000000000
         C           -2.529162518289    -0.716842437701     0.361457565308    12.000000000000
         C           -2.528250518289    -1.850349437701    -0.638888434692    12.000000000000
         C            1.219868481711    -1.261364437701     0.311675565308    12.000000000000
         C            1.755687481711     1.067478562299    -0.059001434692    12.000000000000
         C            2.511194481711    -1.609096437701     0.047396565308    12.000000000000
         C            3.412076481711    -0.550609437701    -0.258523434692    12.000000000000
         H           -0.937512518289     0.591447562299    -1.514489434692     1.007825032230
         H           -3.362488518289     0.642708562299    -1.146063434692     1.007825032230
         H           -0.440196518289     1.221923562299     1.404399565308     1.007825032230
         H           -3.281863518289    -0.908690437701     1.131184565308     1.007825032230
         H           -1.713214518289    -1.700261437701    -1.369062434692     1.007825032230
         H           -3.485467518289    -1.833960437701    -1.183733434692     1.007825032230
         H           -0.297431518289     2.713222562299    -0.524598434692     1.007825032230
         H           -2.847462518289     2.399786562299     0.509064565308     1.007825032230
         H            0.411848681711    -1.973898137701     0.472614565308     1.007825032230
         H           -2.433780518289    -3.798388437701    -0.542831434692     1.007825032230
         H            2.829205481711    -2.645354437701     0.074323565308     1.007825032230
         H            5.125273481711    -1.670817437701    -0.162012434692     1.007825032230
         H            5.319907481711    -0.020010437701    -0.567892434692     1.007825032230

  Basis Set: AUG-CC-PVTZ
    Blend: AUG-CC-PVTZ
  Basis Set: (AUG-CC-PVTZ AUX)
    Blend: AUG-CC-PVTZ-JKFIT
	 Reference Energy          =    -886.3725705334441045 [Eh]
	 Singles Energy            =      -0.0000000000000000 [Eh]
	 Same-Spin Energy          =      -0.9013068507259834 [Eh]
	 Opposite-Spin Energy      =      -2.7151080488946415 [Eh]
	 Correlation Energy        =      -3.6164148996206249 [Eh]
	 Total Energy              =    -889.9889854330647267 [Eh]

	 ================> DF-SCS-MP2 Energies <==================
	-----------------------------------------------------------
	 SCS Same-Spin Scale       =       0.3333333333333333 [-]
	 SCS Opposite-Spin Scale   =       1.2000000000000000 [-]
	 SCS Same-Spin Energy      =      -0.3004356169086611 [Eh]
	 SCS Opposite-Spin Energy  =      -3.2581296586735697 [Eh]
	 SCS Correlation Energy    =      -3.5585652755822310 [Eh]
	 SCS Total Energy          =    -889.9311358090263866 [Eh]
	-----------------------------------------------------------

  Dipole Moment: [D]
     X:     1.7015      Y:    -5.9548      Z:    -1.8781     Total:     6.4717

*** Psi4 exiting successfully. Buy a developer a beer!
