                               Psi4 1.3.2 release

  ==> Input File <==

--------------------------------------------------------------------------
#psi4
#
memory 32 gb

molecule  {
0 1
  O       -1.2481010    -0.6526680     1.0325150
  O       -1.2449750     2.4828510    -0.6861630
  O       -3.2165300     1.5210990     0.7448870
  O       -2.3570290    -3.0668370     0.0949400
  O        1.3605300     2.2470340    -0.0765420
  N        0.8434040     0.0452230     0.2559430
  N        3.0572260     0.7205030    -0.2937270
  N        4.7164630    -0.8366550    -0.5722980
  C       -1.2894840     1.0784300    -0.5920770
  C       -2.7151710     0.6552070    -0.2573930
  C       -0.5254080     0.4815200     0.6000940
  C       -2.5292560    -0.7168860     0.3610560
  C       -2.5283440    -1.8503930    -0.6392900
  C        1.2197750    -1.2614080     0.3112740
  C        1.7555940     1.0674350    -0.0594030
  C        2.5111010    -1.6091400     0.0469950
  C        3.4119830    -0.5506530    -0.2589250
  H       -0.9376060     0.5914040    -1.5148910
  H       -3.3625820     0.6426650    -1.1464650
  H       -0.4402900     1.2218800     1.4039980
  H       -3.2819570    -0.9087340     1.1307830
  H       -1.7133080    -1.7003050    -1.3694640
  H       -3.4855610    -1.8340040    -1.1841350
  H       -0.2975250     2.7131790    -0.5250000
  H       -2.8475560     2.3997430     0.5086630
  H        0.4343110    -1.9634370     0.5690680
  H       -2.4338740    -3.7984320    -0.5432330
  H        2.8291120    -2.6453980     0.0739220
  H        5.1251800    -1.6708610    -0.1624140
  H        5.3245130    -0.0086921    -0.5198293
units angstrom
no_reorient  #important for SAPT in psi4, default
symmetry c1  #important for SAPT in psi4, default
}

set PROPERTIES_ORIGIN ["COM"]
properties('MP2/aug-cc-pvtz', properties = ['dipole'])
--------------------------------------------------------------------------

    Molecular point group: c1
  Charge       = 0
  Multiplicity = 1
  Basis Set: AUG-CC-PVTZ
    Blend: AUG-CC-PVTZ
  Basis Set: (AUG-CC-PVTZ AUX)
    Blend: AUG-CC-PVTZ-JKFIT

    Orbital Energies [Eh]
    ---------------------

    Doubly Occupied:

       1A    -20.582309     2A    -20.581720     3A    -20.557861
       4A    -20.557329     5A    -20.522175     6A    -15.637176
       7A    -15.600963     8A    -15.553644     9A    -11.388467
      10A    -11.357835    11A    -11.341698    12A    -11.328708
      13A    -11.301252    14A    -11.297009    15A    -11.296748
      16A    -11.293045    17A    -11.248686    18A     -1.429487
      19A     -1.396555    20A     -1.380199    21A     -1.372890
      22A     -1.346385    23A     -1.306087    24A     -1.273654
      25A     -1.181818    26A     -1.082029    27A     -1.067818
      28A     -1.021377    29A     -0.935322    30A     -0.909460
      31A     -0.877229    32A     -0.832341    33A     -0.811822
      34A     -0.765779    35A     -0.752521    36A     -0.736272
      37A     -0.720046    38A     -0.702943    39A     -0.698509
      40A     -0.683379    41A     -0.672538    42A     -0.654526
      43A     -0.651669    44A     -0.638302    45A     -0.620418
      46A     -0.614259    47A     -0.606125    48A     -0.594012
      49A     -0.575911    50A     -0.569718    51A     -0.554234
      52A     -0.545889    53A     -0.537783    54A     -0.532030
      55A     -0.498250    56A     -0.477593    57A     -0.474546
      58A     -0.462305    59A     -0.460209    60A     -0.452926
      61A     -0.440781    62A     -0.433375    63A     -0.395844
      64A     -0.350183

  @DF-RHF Final Energy:  -886.37269534663676

   => Energetics <=

    Nuclear Repulsion Energy =           1323.6683302491555878
    One-Electron Energy =               -3844.9941096921397730
    Two-Electron Energy =                1634.9530840963473111
    Total Energy =                       -886.3726953466368741
  Basis Set: (AUG-CC-PVTZ AUX)
    Blend: AUG-CC-PVTZ-RI
    Molecular point group: c1

    Geometry (in Angstrom), charge = 0, multiplicity = 1:

       Center              X                  Y                   Z               Mass
    ------------   -----------------  -----------------  -----------------  -----------------
         O           -1.248120515845    -0.652715095946     1.032314074337    15.994914619570
         O           -1.244994515845     2.482803904054    -0.686363925663    15.994914619570
         O           -3.216549515845     1.521051904054     0.744686074337    15.994914619570
         O           -2.357048515845    -3.066884095946     0.094739074337    15.994914619570
         O            1.360510484155     2.246986904054    -0.076742925663    15.994914619570
         N            0.843384484155     0.045175904054     0.255742074337    14.003074004430
         N            3.057206484155     0.720455904054    -0.293927925663    14.003074004430
         N            4.716443484155    -0.836702095946    -0.572498925663    14.003074004430
         C           -1.289503515845     1.078382904054    -0.592277925663    12.000000000000
         C           -2.715190515845     0.655159904054    -0.257593925663    12.000000000000
         C           -0.525427515845     0.481472904054     0.599893074337    12.000000000000
         C           -2.529275515845    -0.716933095946     0.360855074337    12.000000000000
         C           -2.528363515845    -1.850440095946    -0.639490925663    12.000000000000
         C            1.219755484155    -1.261455095946     0.311073074337    12.000000000000
         C            1.755574484155     1.067387904054    -0.059603925663    12.000000000000
         C            2.511081484155    -1.609187095946     0.046794074337    12.000000000000
         C            3.411963484155    -0.550700095946    -0.259125925663    12.000000000000
         H           -0.937625515845     0.591356904054    -1.515091925663     1.007825032230
         H           -3.362601515845     0.642617904054    -1.146665925663     1.007825032230
         H           -0.440309515845     1.221832904054     1.403797074337     1.007825032230
         H           -3.281976515845    -0.908781095946     1.130582074337     1.007825032230
         H           -1.713327515845    -1.700352095946    -1.369664925663     1.007825032230
         H           -3.485580515845    -1.834051095946    -1.184335925663     1.007825032230
         H           -0.297544515845     2.713131904054    -0.525200925663     1.007825032230
         H           -2.847575515845     2.399695904054     0.508462074337     1.007825032230
         H            0.434291484155    -1.963484095946     0.568867074337     1.007825032230
         H           -2.433893515845    -3.798479095946    -0.543433925663     1.007825032230
         H            2.829092484155    -2.645445095946     0.073721074337     1.007825032230
         H            5.125160484155    -1.670908095946    -0.162614925663     1.007825032230
         H            5.324493484155    -0.008739195946    -0.520030225663     1.007825032230

  Basis Set: AUG-CC-PVTZ
    Blend: AUG-CC-PVTZ
  Basis Set: (AUG-CC-PVTZ AUX)
    Blend: AUG-CC-PVTZ-JKFIT
	 Reference Energy          =    -886.3726953466367604 [Eh]
	 Singles Energy            =      -0.0000000000000000 [Eh]
	 Same-Spin Energy          =      -0.9013392360043189 [Eh]
	 Opposite-Spin Energy      =      -2.7152070827085151 [Eh]
	 Correlation Energy        =      -3.6165463187128339 [Eh]
	 Total Energy              =    -889.9892416653495957 [Eh]

	 ================> DF-SCS-MP2 Energies <==================
	-----------------------------------------------------------
	 SCS Same-Spin Scale       =       0.3333333333333333 [-]
	 SCS Opposite-Spin Scale   =       1.2000000000000000 [-]
	 SCS Same-Spin Energy      =      -0.3004464120014396 [Eh]
	 SCS Opposite-Spin Energy  =      -3.2582484992502181 [Eh]
	 SCS Correlation Energy    =      -3.5586949112516577 [Eh]
	 SCS Total Energy          =    -889.9313902578884381 [Eh]
	-----------------------------------------------------------

  Dipole Moment: [D]
     X:     1.6800      Y:    -5.9401      Z:    -1.7574     Total:     6.4184

*** Psi4 exiting successfully. Buy a developer a beer!
