                               Psi4 1.3.2 release

  ==> Input File <==

--------------------------------------------------------------------------
#psi4
#
memory 32 gb

molecule  {
0 1
  O       -1.2481010    -0.6526680     1.0325150
  O       -1.2449750     2.4828510    -0.6861630
  O       -3.2165300     1.5210990     0.7448870
  O       -2.3570290    -3.0668370     0.0949400
  O        1.3605300     2.2470340    -0.0765420
  N        0.8434040     0.0452230     0.2559430
  N        3.0572260     0.7205030    -0.2937270
  N        4.7164630    -0.8366550    -0.5722980
  C       -1.2894840     1.0784300    -0.5920770
  C       -2.7151710     0.6552070    -0.2573930
  C       -0.5254080     0.4815200     0.6000940
  C       -2.5292560    -0.7168860     0.3610560
  C       -2.5283440    -1.8503930    -0.6392900
  C        1.2197750    -1.2614080     0.3112740
  C        1.7555940     1.0674350    -0.0594030
  C        2.4385687    -1.6345490    -0.2429937
  C        3.4119830    -0.5506530    -0.2589250
  H       -0.9376060     0.5914040    -1.5148910
  H       -3.3625820     0.6426650    -1.1464650
  H       -0.4402900     1.2218800     1.4039980
  H       -3.2819570    -0.9087340     1.1307830
  H       -1.7133080    -1.7003050    -1.3694640
  H       -3.4855610    -1.8340040    -1.1841350
  H       -0.2975250     2.7131790    -0.5250000
  H       -2.8475560     2.3997430     0.5086630
  H        0.4343110    -1.9634370     0.5690680
  H       -2.4338740    -3.7984320    -0.5432330
  H        2.8291120    -2.6453980     0.0739220
  H        5.1251800    -1.6708610    -0.1624140
  H        5.3198140    -0.0200540    -0.5682940
units angstrom
no_reorient  #important for SAPT in psi4, default
symmetry c1  #important for SAPT in psi4, default
}

set PROPERTIES_ORIGIN ["COM"]
properties('MP2/aug-cc-pvtz', properties = ['dipole'])
--------------------------------------------------------------------------

    Molecular point group: c1
  Charge       = 0
  Multiplicity = 1
  Basis Set: AUG-CC-PVTZ
    Blend: AUG-CC-PVTZ
  Basis Set: (AUG-CC-PVTZ AUX)
    Blend: AUG-CC-PVTZ-JKFIT

    Orbital Energies [Eh]
    ---------------------

    Doubly Occupied:

       1A    -20.582718     2A    -20.582114     3A    -20.558506
       4A    -20.558420     5A    -20.525653     6A    -15.639927
       7A    -15.600477     8A    -15.553902     9A    -11.391087
      10A    -11.360745    11A    -11.342880    12A    -11.335843
      13A    -11.301118    14A    -11.297852    15A    -11.297530
      16A    -11.293795    17A    -11.254696    18A     -1.430744
      19A     -1.398567    20A     -1.380870    21A     -1.373079
      22A     -1.347259    23A     -1.306429    24A     -1.275013
      25A     -1.182978    26A     -1.076578    27A     -1.068403
      28A     -1.020698    29A     -0.934967    30A     -0.908190
      31A     -0.877125    32A     -0.832029    33A     -0.811886
      34A     -0.762725    35A     -0.750465    36A     -0.736861
      37A     -0.719790    38A     -0.702970    39A     -0.699001
      40A     -0.687728    41A     -0.672341    42A     -0.655641
      43A     -0.645330    44A     -0.637921    45A     -0.616111
      46A     -0.613698    47A     -0.606326    48A     -0.586448
      49A     -0.574988    50A     -0.570886    51A     -0.552288
      52A     -0.545391    53A     -0.536235    54A     -0.531960
      55A     -0.496820    56A     -0.477853    57A     -0.475203
      58A     -0.463689    59A     -0.460393    60A     -0.453760
      61A     -0.441086    62A     -0.433385    63A     -0.395451
      64A     -0.351737

  @DF-RHF Final Energy:  -886.35111383394712

   => Energetics <=

    Nuclear Repulsion Energy =           1323.1095314893316299
    One-Electron Energy =               -3843.8081720987843255
    Two-Electron Energy =                1634.3475267755056848
    Total Energy =                       -886.3511138339472382
  Basis Set: (AUG-CC-PVTZ AUX)
    Blend: AUG-CC-PVTZ-RI
    Molecular point group: c1

    Geometry (in Angstrom), charge = 0, multiplicity = 1:

       Center              X                  Y                   Z               Mass
    ------------   -----------------  -----------------  -----------------  -----------------
         O           -1.244520452098    -0.651413665871     1.046830399004    15.994914619570
         O           -1.241394452098     2.484105334129    -0.671847600996    15.994914619570
         O           -3.212949452098     1.522353334129     0.759202399004    15.994914619570
         O           -2.353448452098    -3.065582665871     0.109255399004    15.994914619570
         O            1.364110547902     2.248288334129    -0.062226600996    15.994914619570
         N            0.846984547902     0.046477334129     0.270258399004    14.003074004430
         N            3.060806547902     0.721757334129    -0.279411600996    14.003074004430
         N            4.720043547902    -0.835400665871    -0.557982600996    14.003074004430
         C           -1.285903452098     1.079684334129    -0.577761600996    12.000000000000
         C           -2.711590452098     0.656461334129    -0.243077600996    12.000000000000
         C           -0.521827452098     0.482774334129     0.614409399004    12.000000000000
         C           -2.525675452098    -0.715631665871     0.375371399004    12.000000000000
         C           -2.524763452098    -1.849138665871    -0.624974600996    12.000000000000
         C            1.223355547902    -1.260153665871     0.325589399004    12.000000000000
         C            1.759174547902     1.068689334129    -0.045087600996    12.000000000000
         C            2.442149247902    -1.633294665871    -0.228678300996    12.000000000000
         C            3.415563547902    -0.549398665871    -0.244609600996    12.000000000000
         H           -0.934025452098     0.592658334129    -1.500575600996     1.007825032230
         H           -3.359001452098     0.643919334129    -1.132149600996     1.007825032230
         H           -0.436709452098     1.223134334129     1.418313399004     1.007825032230
         H           -3.278376452098    -0.907479665871     1.145098399004     1.007825032230
         H           -1.709727452098    -1.699050665871    -1.355148600996     1.007825032230
         H           -3.481980452098    -1.832749665871    -1.169819600996     1.007825032230
         H           -0.293944452098     2.714433334129    -0.510684600996     1.007825032230
         H           -2.843975452098     2.400997334129     0.522978399004     1.007825032230
         H            0.437891547902    -1.962182665871     0.583383399004     1.007825032230
         H           -2.430293452098    -3.797177665871    -0.528917600996     1.007825032230
         H            2.832692547902    -2.644143665871     0.088237399004     1.007825032230
         H            5.128760547902    -1.669606665871    -0.148098600996     1.007825032230
         H            5.323394547902    -0.018799665871    -0.553978600996     1.007825032230

  Basis Set: AUG-CC-PVTZ
    Blend: AUG-CC-PVTZ
  Basis Set: (AUG-CC-PVTZ AUX)
    Blend: AUG-CC-PVTZ-JKFIT
	 Reference Energy          =    -886.3511138339471245 [Eh]
	 Singles Energy            =      -0.0000000000000000 [Eh]
	 Same-Spin Energy          =      -0.9019272339049456 [Eh]
	 Opposite-Spin Energy      =      -2.7175052701251907 [Eh]
	 Correlation Energy        =      -3.6194325040301365 [Eh]
	 Total Energy              =    -889.9705463379772254 [Eh]

	 ================> DF-SCS-MP2 Energies <==================
	-----------------------------------------------------------
	 SCS Same-Spin Scale       =       0.3333333333333333 [-]
	 SCS Opposite-Spin Scale   =       1.2000000000000000 [-]
	 SCS Same-Spin Energy      =      -0.3006424113016485 [Eh]
	 SCS Opposite-Spin Energy  =      -3.2610063241502290 [Eh]
	 SCS Correlation Energy    =      -3.5616487354518775 [Eh]
	 SCS Total Energy          =    -889.9127625693989785 [Eh]
	-----------------------------------------------------------

  Dipole Moment: [D]
     X:     1.6864      Y:    -5.6693      Z:    -1.6103     Total:     6.1300

*** Psi4 exiting successfully. Buy a developer a beer!
