                               Psi4 1.3.2 release

  ==> Input File <==

--------------------------------------------------------------------------
#psi4
#
memory 32 gb

molecule  {
0 1
  O       -1.2481010    -0.6526680     1.0325150
  O       -1.2449750     2.4828510    -0.6861630
  O       -3.2165300     1.5210990     0.7448870
  O       -2.3570290    -3.0668370     0.0949400
  O        1.3605300     2.2470340    -0.0765420
  N        0.8434040     0.0452230     0.2559430
  N        3.0572260     0.7205030    -0.2937270
  N        4.7164630    -0.8366550    -0.5722980
  C       -1.2894840     1.0784300    -0.5920770
  C       -2.7151710     0.6552070    -0.2573930
  C       -0.5254080     0.4815200     0.6000940
  C       -2.5292560    -0.7168860     0.3610560
  C       -2.5283440    -1.8503930    -0.6392900
  C        1.2197750    -1.2614080     0.3112740
  C        1.7809896     1.0769129     0.0368531
  C        2.5111010    -1.6091400     0.0469950
  C        3.4119830    -0.5506530    -0.2589250
  H       -0.9376060     0.5914040    -1.5148910
  H       -3.3625820     0.6426650    -1.1464650
  H       -0.4402900     1.2218800     1.4039980
  H       -3.2819570    -0.9087340     1.1307830
  H       -1.7133080    -1.7003050    -1.3694640
  H       -3.4855610    -1.8340040    -1.1841350
  H       -0.2975250     2.7131790    -0.5250000
  H       -2.8475560     2.3997430     0.5086630
  H        0.4343110    -1.9634370     0.5690680
  H       -2.4338740    -3.7984320    -0.5432330
  H        2.8291120    -2.6453980     0.0739220
  H        5.1251800    -1.6708610    -0.1624140
  H        5.3198140    -0.0200540    -0.5682940
units angstrom
no_reorient  #important for SAPT in psi4, default
symmetry c1  #important for SAPT in psi4, default
}

set PROPERTIES_ORIGIN ["COM"]
properties('MP2/aug-cc-pvtz', properties = ['dipole'])
--------------------------------------------------------------------------

    Molecular point group: c1
  Charge       = 0
  Multiplicity = 1
  Basis Set: AUG-CC-PVTZ
    Blend: AUG-CC-PVTZ
  Basis Set: (AUG-CC-PVTZ AUX)
    Blend: AUG-CC-PVTZ-JKFIT

    Orbital Energies [Eh]
    ---------------------

    Doubly Occupied:

       1A    -20.582009     2A    -20.581410     3A    -20.557437
       4A    -20.556757     5A    -20.521682     6A    -15.636942
       7A    -15.599876     8A    -15.553833     9A    -11.389348
      10A    -11.358534    11A    -11.341331    12A    -11.328618
      13A    -11.300859    14A    -11.296574    15A    -11.295807
      16A    -11.292450    17A    -11.248734    18A     -1.428790
      19A     -1.394573    20A     -1.379692    21A     -1.372473
      22A     -1.345813    23A     -1.305167    24A     -1.273301
      25A     -1.182751    26A     -1.081863    27A     -1.067271
      28A     -1.020913    29A     -0.935270    30A     -0.908446
      31A     -0.877454    32A     -0.831887    33A     -0.811509
      34A     -0.767034    35A     -0.752201    36A     -0.735320
      37A     -0.720158    38A     -0.702265    39A     -0.697924
      40A     -0.685683    41A     -0.672572    42A     -0.653699
      43A     -0.651317    44A     -0.638536    45A     -0.621413
      46A     -0.613344    47A     -0.606283    48A     -0.592914
      49A     -0.575223    50A     -0.569495    51A     -0.553397
      52A     -0.546051    53A     -0.536932    54A     -0.531270
      55A     -0.497699    56A     -0.477186    57A     -0.474032
      58A     -0.461771    59A     -0.459564    60A     -0.452265
      61A     -0.440163    62A     -0.434358    63A     -0.393887
      64A     -0.350028

  @DF-RHF Final Energy:  -886.36959549411824

   => Energetics <=

    Nuclear Repulsion Energy =           1323.2850963282278371
    One-Electron Energy =               -3844.2626691580499028
    Two-Electron Energy =                1634.6079773357034810
    Total Energy =                       -886.3695954941183572
  Basis Set: (AUG-CC-PVTZ AUX)
    Blend: AUG-CC-PVTZ-RI
    Molecular point group: c1

    Geometry (in Angstrom), charge = 0, multiplicity = 1:

       Center              X                  Y                   Z               Mass
    ------------   -----------------  -----------------  -----------------  -----------------
         O           -1.249354696431    -0.653135869642     1.027763292128    15.994914619570
         O           -1.246228696431     2.482383130358    -0.690914707872    15.994914619570
         O           -3.217783696431     1.520631130358     0.740135292128    15.994914619570
         O           -2.358282696431    -3.067304869642     0.090188292128    15.994914619570
         O            1.359276303569     2.246566130358    -0.081293707872    15.994914619570
         N            0.842150303569     0.044755130358     0.251191292128    14.003074004430
         N            3.055972303569     0.720035130358    -0.298478707872    14.003074004430
         N            4.715209303569    -0.837122869642    -0.577049707872    14.003074004430
         C           -1.290737696431     1.077962130358    -0.596828707872    12.000000000000
         C           -2.716424696431     0.654739130358    -0.262144707872    12.000000000000
         C           -0.526661696431     0.481052130358     0.595342292128    12.000000000000
         C           -2.530509696431    -0.717353869642     0.356304292128    12.000000000000
         C           -2.529597696431    -1.850860869642    -0.644041707872    12.000000000000
         C            1.218521303569    -1.261875869642     0.306522292128    12.000000000000
         C            1.779735903569     1.076445030358     0.032101392128    12.000000000000
         C            2.509847303569    -1.609607869642     0.042243292128    12.000000000000
         C            3.410729303569    -0.551120869642    -0.263676707872    12.000000000000
         H           -0.938859696431     0.590936130358    -1.519642707872     1.007825032230
         H           -3.363835696431     0.642197130358    -1.151216707872     1.007825032230
         H           -0.441543696431     1.221412130358     1.399246292128     1.007825032230
         H           -3.283210696431    -0.909201869642     1.126031292128     1.007825032230
         H           -1.714561696431    -1.700772869642    -1.374215707872     1.007825032230
         H           -3.486814696431    -1.834471869642    -1.188886707872     1.007825032230
         H           -0.298778696431     2.712711130358    -0.529751707872     1.007825032230
         H           -2.848809696431     2.399275130358     0.503911292128     1.007825032230
         H            0.433057303569    -1.963904869642     0.564316292128     1.007825032230
         H           -2.435127696431    -3.798899869642    -0.547984707872     1.007825032230
         H            2.827858303569    -2.645865869642     0.069170292128     1.007825032230
         H            5.123926303569    -1.671328869642    -0.167165707872     1.007825032230
         H            5.318560303569    -0.020521869642    -0.573045707872     1.007825032230

  Basis Set: AUG-CC-PVTZ
    Blend: AUG-CC-PVTZ
  Basis Set: (AUG-CC-PVTZ AUX)
    Blend: AUG-CC-PVTZ-JKFIT
	 Reference Energy          =    -886.3695954941182436 [Eh]
	 Singles Energy            =      -0.0000000000000000 [Eh]
	 Same-Spin Energy          =      -0.9014412743925737 [Eh]
	 Opposite-Spin Energy      =      -2.7153569017365475 [Eh]
	 Correlation Energy        =      -3.6167981761291212 [Eh]
	 Total Energy              =    -889.9863936702473666 [Eh]

	 ================> DF-SCS-MP2 Energies <==================
	-----------------------------------------------------------
	 SCS Same-Spin Scale       =       0.3333333333333333 [-]
	 SCS Opposite-Spin Scale   =       1.2000000000000000 [-]
	 SCS Same-Spin Energy      =      -0.3004804247975246 [Eh]
	 SCS Opposite-Spin Energy  =      -3.2584282820838570 [Eh]
	 SCS Correlation Energy    =      -3.5589087068813816 [Eh]
	 SCS Total Energy          =    -889.9285042009996687 [Eh]
	-----------------------------------------------------------

  Dipole Moment: [D]
     X:     1.7637      Y:    -5.9519      Z:    -1.7177     Total:     6.4410

*** Psi4 exiting successfully. Buy a developer a beer!
