                               Psi4 1.3.2 release

  ==> Input File <==

--------------------------------------------------------------------------
#psi4
#
memory 32 gb

molecule  {
0 1
  O       -1.2481010    -0.6526680     1.0325150
  O       -1.2449750     2.4828510    -0.6861630
  O       -3.2165300     1.5210990     0.7448870
  O       -2.3570290    -3.0668370     0.0949400
  O        1.3605300     2.2470340    -0.0765420
  N        0.8434040     0.0452230     0.2559430
  N        3.0572260     0.7205030    -0.2937270
  N        4.7164630    -0.8366550    -0.5722980
  C       -1.2894840     1.0784300    -0.5920770
  C       -2.7151710     0.6552070    -0.2573930
  C       -0.5254080     0.4815200     0.6000940
  C       -2.5292560    -0.7168860     0.3610560
  C       -2.5283440    -1.8503930    -0.6392900
  C        1.2197750    -1.2614080     0.3112740
  C        1.7555940     1.0674350    -0.0594030
  C        2.4990123    -1.6133748    -0.0013365
  C        3.4119830    -0.5506530    -0.2589250
  H       -0.9376060     0.5914040    -1.5148910
  H       -3.3625820     0.6426650    -1.1464650
  H       -0.4402900     1.2218800     1.4039980
  H       -3.2819570    -0.9087340     1.1307830
  H       -1.7133080    -1.7003050    -1.3694640
  H       -3.4855610    -1.8340040    -1.1841350
  H       -0.2975250     2.7131790    -0.5250000
  H       -2.8475560     2.3997430     0.5086630
  H        0.4343110    -1.9634370     0.5690680
  H       -2.4338740    -3.7984320    -0.5432330
  H        2.8291120    -2.6453980     0.0739220
  H        5.1251800    -1.6708610    -0.1624140
  H        5.3198140    -0.0200540    -0.5682940
units angstrom
no_reorient  #important for SAPT in psi4, default
symmetry c1  #important for SAPT in psi4, default
}

set PROPERTIES_ORIGIN ["COM"]
properties('MP2/aug-cc-pvtz', properties = ['dipole'])
--------------------------------------------------------------------------

    Molecular point group: c1
  Charge       = 0
  Multiplicity = 1
  Basis Set: AUG-CC-PVTZ
    Blend: AUG-CC-PVTZ
  Basis Set: (AUG-CC-PVTZ AUX)
    Blend: AUG-CC-PVTZ-JKFIT

    Orbital Energies [Eh]
    ---------------------

    Doubly Occupied:

       1A    -20.582151     2A    -20.581595     3A    -20.557765
       4A    -20.557231     5A    -20.522099     6A    -15.636928
       7A    -15.599996     8A    -15.553456     9A    -11.388351
      10A    -11.357966    11A    -11.341527    12A    -11.328517
      13A    -11.301076    14A    -11.296887    15A    -11.296640
      16A    -11.292946    17A    -11.248713    18A     -1.429357
      19A     -1.396439    20A     -1.380083    21A     -1.372745
      22A     -1.346288    23A     -1.306095    24A     -1.273842
      25A     -1.182336    26A     -1.081910    27A     -1.067693
      28A     -1.021308    29A     -0.935377    30A     -0.909363
      31A     -0.877314    32A     -0.832264    33A     -0.811808
      34A     -0.766804    35A     -0.752258    36A     -0.736151
      37A     -0.720111    38A     -0.702847    39A     -0.698410
      40A     -0.685859    41A     -0.672689    42A     -0.654596
      43A     -0.650834    44A     -0.639171    45A     -0.620185
      46A     -0.614362    47A     -0.606760    48A     -0.593559
      49A     -0.575606    50A     -0.569911    51A     -0.553742
      52A     -0.545600    53A     -0.537303    54A     -0.531831
      55A     -0.498026    56A     -0.477465    57A     -0.474461
      58A     -0.462181    59A     -0.460047    60A     -0.452817
      61A     -0.440815    62A     -0.433269    63A     -0.395222
      64A     -0.350032

  @DF-RHF Final Energy:  -886.37288139292536

   => Energetics <=

    Nuclear Repulsion Energy =           1323.7617572983315313
    One-Electron Energy =               -3845.1872877942159903
    Two-Electron Energy =                1635.0526491029588669
    Total Energy =                       -886.3728813929253647
  Basis Set: (AUG-CC-PVTZ AUX)
    Blend: AUG-CC-PVTZ-RI
    Molecular point group: c1

    Geometry (in Angstrom), charge = 0, multiplicity = 1:

       Center              X                  Y                   Z               Mass
    ------------   -----------------  -----------------  -----------------  -----------------
         O           -1.247504271119    -0.652458937508     1.034900908536    15.994914619570
         O           -1.244378271119     2.483060062492    -0.683777091464    15.994914619570
         O           -3.215933271119     1.521308062492     0.747272908536    15.994914619570
         O           -2.356432271119    -3.066627937508     0.097325908536    15.994914619570
         O            1.361126728881     2.247243062492    -0.074156091464    15.994914619570
         N            0.844000728881     0.045432062492     0.258328908536    14.003074004430
         N            3.057822728881     0.720712062492    -0.291341091464    14.003074004430
         N            4.717059728881    -0.836445937508    -0.569912091464    14.003074004430
         C           -1.288887271119     1.078639062492    -0.589691091464    12.000000000000
         C           -2.714574271119     0.655416062492    -0.255007091464    12.000000000000
         C           -0.524811271119     0.481729062492     0.602479908536    12.000000000000
         C           -2.528659271119    -0.716676937508     0.363441908536    12.000000000000
         C           -2.527747271119    -1.850183937508    -0.636904091464    12.000000000000
         C            1.220371728881    -1.261198937508     0.313659908536    12.000000000000
         C            1.756190728881     1.067644062492    -0.057017091464    12.000000000000
         C            2.499609028881    -1.613165737508     0.001049408536    12.000000000000
         C            3.412579728881    -0.550443937508    -0.256539091464    12.000000000000
         H           -0.937009271119     0.591613062492    -1.512505091464     1.007825032230
         H           -3.361985271119     0.642874062492    -1.144079091464     1.007825032230
         H           -0.439693271119     1.222089062492     1.406383908536     1.007825032230
         H           -3.281360271119    -0.908524937508     1.133168908536     1.007825032230
         H           -1.712711271119    -1.700095937508    -1.367078091464     1.007825032230
         H           -3.484964271119    -1.833794937508    -1.181749091464     1.007825032230
         H           -0.296928271119     2.713388062492    -0.522614091464     1.007825032230
         H           -2.846959271119     2.399952062492     0.511048908536     1.007825032230
         H            0.434907728881    -1.963227937508     0.571453908536     1.007825032230
         H           -2.433277271119    -3.798222937508    -0.540847091464     1.007825032230
         H            2.829708728881    -2.645188937508     0.076307908536     1.007825032230
         H            5.125776728881    -1.670651937508    -0.160028091464     1.007825032230
         H            5.320410728881    -0.019844937508    -0.565908091464     1.007825032230

  Basis Set: AUG-CC-PVTZ
    Blend: AUG-CC-PVTZ
  Basis Set: (AUG-CC-PVTZ AUX)
    Blend: AUG-CC-PVTZ-JKFIT
	 Reference Energy          =    -886.3728813929253647 [Eh]
	 Singles Energy            =      -0.0000000000000000 [Eh]
	 Same-Spin Energy          =      -0.9012699623599002 [Eh]
	 Opposite-Spin Energy      =      -2.7150015107068448 [Eh]
	 Correlation Energy        =      -3.6162714730667451 [Eh]
	 Total Energy              =    -889.9891528659920823 [Eh]

	 ================> DF-SCS-MP2 Energies <==================
	-----------------------------------------------------------
	 SCS Same-Spin Scale       =       0.3333333333333333 [-]
	 SCS Opposite-Spin Scale   =       1.2000000000000000 [-]
	 SCS Same-Spin Energy      =      -0.3004233207866334 [Eh]
	 SCS Opposite-Spin Energy  =      -3.2580018128482138 [Eh]
	 SCS Correlation Energy    =      -3.5584251336348469 [Eh]
	 SCS Total Energy          =    -889.9313065265602063 [Eh]
	-----------------------------------------------------------

  Dipole Moment: [D]
     X:     1.7201      Y:    -5.9391      Z:    -1.7878     Total:     6.4364

*** Psi4 exiting successfully. Buy a developer a beer!
