                               Psi4 1.3.2 release

  ==> Input File <==

--------------------------------------------------------------------------
#psi4
#
memory 32 gb

molecule  {
0 1
  O       -1.2481010    -0.6526680     1.0325150
  O       -1.2449750     2.4828510    -0.6861630
  O       -3.2165300     1.5210990     0.7448870
  O       -2.3570290    -3.0668370     0.0949400
  O        1.3605300     2.2470340    -0.0765420
  N        0.8434040     0.0452230     0.2559430
  N        3.0572260     0.7205030    -0.2937270
  N        4.7164630    -0.8366550    -0.5722980
  C       -1.2894840     1.0784300    -0.5920770
  C       -2.7151710     0.6552070    -0.2573930
  C       -0.5254080     0.4815200     0.6000940
  C       -2.5292560    -0.7168860     0.3610560
  C       -2.5283440    -1.8503930    -0.6392900
  C        1.2197750    -1.2614080     0.3112740
  C        1.7555940     1.0674350    -0.0594030
  C        2.5111010    -1.6091400     0.0469950
  C        3.4119830    -0.5506530    -0.2589250
  H       -0.9376060     0.5914040    -1.5148910
  H       -3.3625820     0.6426650    -1.1464650
  H       -0.4402900     1.2218800     1.4039980
  H       -3.2819570    -0.9087340     1.1307830
  H       -1.7133080    -1.7003050    -1.3694640
  H       -3.4855610    -1.8340040    -1.1841350
  H       -0.2975250     2.7131790    -0.5250000
  H       -2.8475560     2.3997430     0.5086630
  H        0.3666437    -1.9949510     0.2785030
  H       -2.4338740    -3.7984320    -0.5432330
  H        2.8291120    -2.6453980     0.0739220
  H        5.1251800    -1.6708610    -0.1624140
  H        5.3198140    -0.0200540    -0.5682940
units angstrom
no_reorient  #important for SAPT in psi4, default
symmetry c1  #important for SAPT in psi4, default
}

set PROPERTIES_ORIGIN ["COM"]
properties('MP2/aug-cc-pvtz', properties = ['dipole'])
--------------------------------------------------------------------------

    Molecular point group: c1
  Charge       = 0
  Multiplicity = 1
  Basis Set: AUG-CC-PVTZ
    Blend: AUG-CC-PVTZ
  Basis Set: (AUG-CC-PVTZ AUX)
    Blend: AUG-CC-PVTZ-JKFIT

    Orbital Energies [Eh]
    ---------------------

    Doubly Occupied:

       1A    -20.583144     2A    -20.580810     3A    -20.557728
       4A    -20.557189     5A    -20.522050     6A    -15.636326
       7A    -15.600115     8A    -15.553764     9A    -11.388315
      10A    -11.358383    11A    -11.341172    12A    -11.332465
      13A    -11.302025    14A    -11.296867    15A    -11.296537
      16A    -11.292912    17A    -11.249730    18A     -1.428861
      19A     -1.396354    20A     -1.380300    21A     -1.373284
      22A     -1.346235    23A     -1.306192    24A     -1.273691
      25A     -1.182462    26A     -1.081694    27A     -1.067709
      28A     -1.021429    29A     -0.935515    30A     -0.906795
      31A     -0.877539    32A     -0.831967    33A     -0.811837
      34A     -0.767225    35A     -0.750001    36A     -0.736494
      37A     -0.719639    38A     -0.703635    39A     -0.698454
      40A     -0.682765    41A     -0.672260    42A     -0.655514
      43A     -0.651707    44A     -0.639436    45A     -0.617476
      46A     -0.612318    47A     -0.605563    48A     -0.593711
      49A     -0.575805    50A     -0.569748    51A     -0.554895
      52A     -0.545682    53A     -0.537023    54A     -0.532000
      55A     -0.496837    56A     -0.478322    57A     -0.474468
      58A     -0.461941    59A     -0.460139    60A     -0.452676
      61A     -0.438792    62A     -0.433511    63A     -0.395324
      64A     -0.350364

  @DF-RHF Final Energy:  -886.36571524300655

   => Energetics <=

    Nuclear Repulsion Energy =           1323.7013761846860689
    One-Electron Energy =               -3845.0639407302933250
    Two-Electron Energy =                1634.9968493026008218
    Total Energy =                       -886.3657152430064343
  Basis Set: (AUG-CC-PVTZ AUX)
    Blend: AUG-CC-PVTZ-RI
    Molecular point group: c1

    Geometry (in Angstrom), charge = 0, multiplicity = 1:

       Center              X                  Y                   Z               Mass
    ------------   -----------------  -----------------  -----------------  -----------------
         O           -1.247820487408    -0.652537333794     1.033719680963    15.994914619570
         O           -1.244694487408     2.482981666206    -0.684958319037    15.994914619570
         O           -3.216249487408     1.521229666206     0.746091680963    15.994914619570
         O           -2.356748487408    -3.066706333794     0.096144680963    15.994914619570
         O            1.360810512592     2.247164666206    -0.075337319037    15.994914619570
         N            0.843684512592     0.045353666206     0.257147680963    14.003074004430
         N            3.057506512592     0.720633666206    -0.292522319037    14.003074004430
         N            4.716743512592    -0.836524333794    -0.571093319037    14.003074004430
         C           -1.289203487408     1.078560666206    -0.590872319037    12.000000000000
         C           -2.714890487408     0.655337666206    -0.256188319037    12.000000000000
         C           -0.525127487408     0.481650666206     0.601298680963    12.000000000000
         C           -2.528975487408    -0.716755333794     0.362260680963    12.000000000000
         C           -2.528063487408    -1.850262333794    -0.638085319037    12.000000000000
         C            1.220055512592    -1.261277333794     0.312478680963    12.000000000000
         C            1.755874512592     1.067565666206    -0.058198319037    12.000000000000
         C            2.511381512592    -1.609009333794     0.048199680963    12.000000000000
         C            3.412263512592    -0.550522333794    -0.257720319037    12.000000000000
         H           -0.937325487408     0.591534666206    -1.513686319037     1.007825032230
         H           -3.362301487408     0.642795666206    -1.145260319037     1.007825032230
         H           -0.440009487408     1.222010666206     1.405202680963     1.007825032230
         H           -3.281676487408    -0.908603333794     1.131987680963     1.007825032230
         H           -1.713027487408    -1.700174333794    -1.368259319037     1.007825032230
         H           -3.485280487408    -1.833873333794    -1.182930319037     1.007825032230
         H           -0.297244487408     2.713309666206    -0.523795319037     1.007825032230
         H           -2.847275487408     2.399873666206     0.509867680963     1.007825032230
         H            0.366924212592    -1.994820333794     0.279707680963     1.007825032230
         H           -2.433593487408    -3.798301333794    -0.542028319037     1.007825032230
         H            2.829392512592    -2.645267333794     0.075126680963     1.007825032230
         H            5.125460512592    -1.670730333794    -0.161209319037     1.007825032230
         H            5.320094512592    -0.019923333794    -0.567089319037     1.007825032230

  Basis Set: AUG-CC-PVTZ
    Blend: AUG-CC-PVTZ
  Basis Set: (AUG-CC-PVTZ AUX)
    Blend: AUG-CC-PVTZ-JKFIT
	 Reference Energy          =    -886.3657152430065480 [Eh]
	 Singles Energy            =      -0.0000000000000000 [Eh]
	 Same-Spin Energy          =      -0.9017811985908524 [Eh]
	 Opposite-Spin Energy      =      -2.7161715295050661 [Eh]
	 Correlation Energy        =      -3.6179527280959185 [Eh]
	 Total Energy              =    -889.9836679711024772 [Eh]

	 ================> DF-SCS-MP2 Energies <==================
	-----------------------------------------------------------
	 SCS Same-Spin Scale       =       0.3333333333333333 [-]
	 SCS Opposite-Spin Scale   =       1.2000000000000000 [-]
	 SCS Same-Spin Energy      =      -0.3005937328636175 [Eh]
	 SCS Opposite-Spin Energy  =      -3.2594058354060791 [Eh]
	 SCS Correlation Energy    =      -3.5599995682696965 [Eh]
	 SCS Total Energy          =    -889.9257148112762934 [Eh]
	-----------------------------------------------------------

  Dipole Moment: [D]
     X:     1.7179      Y:    -5.9521      Z:    -1.9909     Total:     6.5071

*** Psi4 exiting successfully. Buy a developer a beer!
