                               Psi4 1.3.2 release

  ==> Input File <==

--------------------------------------------------------------------------
#psi4
#
memory 32 gb

molecule  {
0 1
  O       -1.2481010    -0.6526680     1.0325150
  O       -1.2449750     2.4828510    -0.6861630
  O       -3.2165300     1.5210990     0.7448870
  O       -2.3570290    -3.0668370     0.0949400
  O        1.3605300     2.2470340    -0.0765420
  N        0.8434040     0.0452230     0.2559430
  N        3.0572260     0.7205030    -0.2937270
  N        4.7164630    -0.8366550    -0.5722980
  C       -1.2894840     1.0784300    -0.5920770
  C       -2.7151710     0.6552070    -0.2573930
  C       -0.5254080     0.4815200     0.6000940
  C       -2.5292560    -0.7168860     0.3610560
  C       -2.5283440    -1.8503930    -0.6392900
  C        1.2197750    -1.2614080     0.3112740
  C        1.7555940     1.0674350    -0.0594030
  C        2.5111010    -1.6091400     0.0469950
  C        3.4119830    -0.5506530    -0.2589250
  H       -0.9376060     0.5914040    -1.5148910
  H       -3.3625820     0.6426650    -1.1464650
  H       -0.4402900     1.2218800     1.4039980
  H       -3.2819570    -0.9087340     1.1307830
  H       -1.7133080    -1.7003050    -1.3694640
  H       -3.4855610    -1.8340040    -1.1841350
  H       -0.2975250     2.7131790    -0.5250000
  H       -2.8475560     2.3997430     0.5086630
  H        0.4343110    -1.9634370     0.5690680
  H       -2.4338740    -3.7984320    -0.5432330
  H        2.8291120    -2.6453980     0.0739220
  H        5.1251800    -1.6708610    -0.1624140
  H        5.3386100     0.0253935    -0.3744352
units angstrom
no_reorient  #important for SAPT in psi4, default
symmetry c1  #important for SAPT in psi4, default
}

set PROPERTIES_ORIGIN ["COM"]
properties('MP2/aug-cc-pvtz', properties = ['dipole'])
--------------------------------------------------------------------------

    Molecular point group: c1
  Charge       = 0
  Multiplicity = 1
  Basis Set: AUG-CC-PVTZ
    Blend: AUG-CC-PVTZ
  Basis Set: (AUG-CC-PVTZ AUX)
    Blend: AUG-CC-PVTZ-JKFIT

    Orbital Energies [Eh]
    ---------------------

    Doubly Occupied:

       1A    -20.582505     2A    -20.582062     3A    -20.558099
       4A    -20.557610     5A    -20.522695     6A    -15.637952
       7A    -15.605025     8A    -15.554467     9A    -11.389016
      10A    -11.357720    11A    -11.342121    12A    -11.329250
      13A    -11.301464    14A    -11.297268    15A    -11.297065
      16A    -11.293301    17A    -11.249065    18A     -1.429868
      19A     -1.397035    20A     -1.380457    21A     -1.373126
      22A     -1.346649    23A     -1.305955    24A     -1.272799
      25A     -1.179902    26A     -1.082122    27A     -1.068082
      28A     -1.021340    29A     -0.934886    30A     -0.909307
      31A     -0.876939    32A     -0.832356    33A     -0.811782
      34A     -0.762140    35A     -0.752882    36A     -0.736491
      37A     -0.719383    38A     -0.702934    39A     -0.698700
      40A     -0.677861    41A     -0.669728    42A     -0.654196
      43A     -0.652016    44A     -0.637800    45A     -0.619441
      46A     -0.613412    47A     -0.602572    48A     -0.594426
      49A     -0.576356    50A     -0.569360    51A     -0.554817
      52A     -0.546302    53A     -0.538425    54A     -0.532424
      55A     -0.498712    56A     -0.477869    57A     -0.474860
      58A     -0.462660    59A     -0.460659    60A     -0.453204
      61A     -0.441036    62A     -0.434008    63A     -0.397705
      64A     -0.350673

  @DF-RHF Final Energy:  -886.36682808505941

   => Energetics <=

    Nuclear Repulsion Energy =           1323.4909104284695331
    One-Electron Energy =               -3844.6308007794782498
    Two-Electron Energy =                1634.7730622659494202
    Total Energy =                       -886.3668280850595238
  Basis Set: (AUG-CC-PVTZ AUX)
    Blend: AUG-CC-PVTZ-RI
    Molecular point group: c1

    Geometry (in Angstrom), charge = 0, multiplicity = 1:

       Center              X                  Y                   Z               Mass
    ------------   -----------------  -----------------  -----------------  -----------------
         O           -1.248178961570    -0.652856413787     1.031711274906    15.994914619570
         O           -1.245052961570     2.482662586213    -0.686966725094    15.994914619570
         O           -3.216607961570     1.520910586213     0.744083274906    15.994914619570
         O           -2.357106961570    -3.067025413787     0.094136274906    15.994914619570
         O            1.360452038430     2.246845586213    -0.077345725094    15.994914619570
         N            0.843326038430     0.045034586213     0.255139274906    14.003074004430
         N            3.057148038430     0.720314586213    -0.294530725094    14.003074004430
         N            4.716385038430    -0.836843413787    -0.573101725094    14.003074004430
         C           -1.289561961570     1.078241586213    -0.592880725094    12.000000000000
         C           -2.715248961570     0.655018586213    -0.258196725094    12.000000000000
         C           -0.525485961570     0.481331586213     0.599290274906    12.000000000000
         C           -2.529333961570    -0.717074413787     0.360252274906    12.000000000000
         C           -2.528421961570    -1.850581413787    -0.640093725094    12.000000000000
         C            1.219697038430    -1.261596413787     0.310470274906    12.000000000000
         C            1.755516038430     1.067246586213    -0.060206725094    12.000000000000
         C            2.511023038430    -1.609328413787     0.046191274906    12.000000000000
         C            3.411905038430    -0.550841413787    -0.259728725094    12.000000000000
         H           -0.937683961570     0.591215586213    -1.515694725094     1.007825032230
         H           -3.362659961570     0.642476586213    -1.147268725094     1.007825032230
         H           -0.440367961570     1.221691586213     1.403194274906     1.007825032230
         H           -3.282034961570    -0.908922413787     1.129979274906     1.007825032230
         H           -1.713385961570    -1.700493413787    -1.370267725094     1.007825032230
         H           -3.485638961570    -1.834192413787    -1.184938725094     1.007825032230
         H           -0.297602961570     2.712990586213    -0.525803725094     1.007825032230
         H           -2.847633961570     2.399554586213     0.507859274906     1.007825032230
         H            0.434233038430    -1.963625413787     0.568264274906     1.007825032230
         H           -2.433951961570    -3.798620413787    -0.544036725094     1.007825032230
         H            2.829034038430    -2.645586413787     0.073118274906     1.007825032230
         H            5.125102038430    -1.671049413787    -0.163217725094     1.007825032230
         H            5.338532038430     0.025205086213    -0.375238925094     1.007825032230

  Basis Set: AUG-CC-PVTZ
    Blend: AUG-CC-PVTZ
  Basis Set: (AUG-CC-PVTZ AUX)
    Blend: AUG-CC-PVTZ-JKFIT
	 Reference Energy          =    -886.3668280850594101 [Eh]
	 Singles Energy            =      -0.0000000000000000 [Eh]
	 Same-Spin Energy          =      -0.9017511809180436 [Eh]
	 Opposite-Spin Energy      =      -2.7163294905421829 [Eh]
	 Correlation Energy        =      -3.6180806714602265 [Eh]
	 Total Energy              =    -889.9849087565196442 [Eh]

	 ================> DF-SCS-MP2 Energies <==================
	-----------------------------------------------------------
	 SCS Same-Spin Scale       =       0.3333333333333333 [-]
	 SCS Opposite-Spin Scale   =       1.2000000000000000 [-]
	 SCS Same-Spin Energy      =      -0.3005837269726812 [Eh]
	 SCS Opposite-Spin Energy  =      -3.2595953886506193 [Eh]
	 SCS Correlation Energy    =      -3.5601791156233005 [Eh]
	 SCS Total Energy          =    -889.9270072006827377 [Eh]
	-----------------------------------------------------------

  Dipole Moment: [D]
     X:     1.5758      Y:    -5.9140      Z:    -1.5707     Total:     6.3186

*** Psi4 exiting successfully. Buy a developer a beer!
