                               Psi4 1.3.2 release

  ==> Input File <==

--------------------------------------------------------------------------
#psi4
#
memory 32 gb

molecule  {
0 1
  O       -1.2481010    -0.6526680     1.0325150
  O       -1.2449750     2.4828510    -0.6861630
  O       -3.2165300     1.5210990     0.7448870
  O       -2.3570290    -3.0668370     0.0949400
  O        1.3605300     2.2470340    -0.0765420
  N        0.8434040     0.0452230     0.2559430
  N        3.0678179     0.7253577    -0.2451035
  N        4.7164630    -0.8366550    -0.5722980
  C       -1.2894840     1.0784300    -0.5920770
  C       -2.7151710     0.6552070    -0.2573930
  C       -0.5254080     0.4815200     0.6000940
  C       -2.5292560    -0.7168860     0.3610560
  C       -2.5283440    -1.8503930    -0.6392900
  C        1.2197750    -1.2614080     0.3112740
  C        1.7555940     1.0674350    -0.0594030
  C        2.5111010    -1.6091400     0.0469950
  C        3.4119830    -0.5506530    -0.2589250
  H       -0.9376060     0.5914040    -1.5148910
  H       -3.3625820     0.6426650    -1.1464650
  H       -0.4402900     1.2218800     1.4039980
  H       -3.2819570    -0.9087340     1.1307830
  H       -1.7133080    -1.7003050    -1.3694640
  H       -3.4855610    -1.8340040    -1.1841350
  H       -0.2975250     2.7131790    -0.5250000
  H       -2.8475560     2.3997430     0.5086630
  H        0.4343110    -1.9634370     0.5690680
  H       -2.4338740    -3.7984320    -0.5432330
  H        2.8291120    -2.6453980     0.0739220
  H        5.1251800    -1.6708610    -0.1624140
  H        5.3198140    -0.0200540    -0.5682940
units angstrom
no_reorient  #important for SAPT in psi4, default
symmetry c1  #important for SAPT in psi4, default
}

set PROPERTIES_ORIGIN ["COM"]
properties('MP2/aug-cc-pvtz', properties = ['dipole'])
--------------------------------------------------------------------------

    Molecular point group: c1
  Charge       = 0
  Multiplicity = 1
  Basis Set: AUG-CC-PVTZ
    Blend: AUG-CC-PVTZ
  Basis Set: (AUG-CC-PVTZ AUX)
    Blend: AUG-CC-PVTZ-JKFIT

    Orbital Energies [Eh]
    ---------------------

    Doubly Occupied:

       1A    -20.582292     2A    -20.581658     3A    -20.557836
       4A    -20.557306     5A    -20.522361     6A    -15.636983
       7A    -15.599787     8A    -15.553683     9A    -11.388412
      10A    -11.357965    11A    -11.341647    12A    -11.328475
      13A    -11.301246    14A    -11.296979    15A    -11.296729
      16A    -11.293024    17A    -11.248556    18A     -1.429415
      19A     -1.396457    20A     -1.380173    21A     -1.372866
      22A     -1.346359    23A     -1.305930    24A     -1.273711
      25A     -1.181828    26A     -1.081948    27A     -1.067792
      28A     -1.021407    29A     -0.935392    30A     -0.909493
      31A     -0.876839    32A     -0.832389    33A     -0.811885
      34A     -0.766644    35A     -0.752400    36A     -0.736203
      37A     -0.720431    38A     -0.703042    39A     -0.698526
      40A     -0.685871    41A     -0.672905    42A     -0.654879
      43A     -0.651323    44A     -0.638609    45A     -0.620213
      46A     -0.614523    47A     -0.606778    48A     -0.594329
      49A     -0.575682    50A     -0.569619    51A     -0.553964
      52A     -0.545291    53A     -0.537057    54A     -0.531686
      55A     -0.498369    56A     -0.477603    57A     -0.474633
      58A     -0.462180    59A     -0.460228    60A     -0.452924
      61A     -0.440754    62A     -0.432943    63A     -0.395414
      64A     -0.350008

  @DF-RHF Final Energy:  -886.37268926040406

   => Energetics <=

    Nuclear Repulsion Energy =           1323.5913787427355146
    One-Electron Energy =               -3844.8404229634120384
    Two-Electron Energy =                1634.8763549602722378
    Total Energy =                       -886.3726892604040586
  Basis Set: (AUG-CC-PVTZ AUX)
    Blend: AUG-CC-PVTZ-RI
    Molecular point group: c1

    Geometry (in Angstrom), charge = 0, multiplicity = 1:

       Center              X                  Y                   Z               Mass
    ------------   -----------------  -----------------  -----------------  -----------------
         O           -1.248711186113    -0.652947647503     1.029714024241    15.994914619570
         O           -1.245585186113     2.482571352497    -0.688963975759    15.994914619570
         O           -3.217140186113     1.520819352497     0.742086024241    15.994914619570
         O           -2.357639186113    -3.067116647503     0.092139024241    15.994914619570
         O            1.359919813887     2.246754352497    -0.079342975759    15.994914619570
         N            0.842793813887     0.044943352497     0.253142024241    14.003074004430
         N            3.067207713887     0.725078052497    -0.247904475759    14.003074004430
         N            4.715852813887    -0.836934647503    -0.575098975759    14.003074004430
         C           -1.290094186113     1.078150352497    -0.594877975759    12.000000000000
         C           -2.715781186113     0.654927352497    -0.260193975759    12.000000000000
         C           -0.526018186113     0.481240352497     0.597293024241    12.000000000000
         C           -2.529866186113    -0.717165647503     0.358255024241    12.000000000000
         C           -2.528954186113    -1.850672647503    -0.642090975759    12.000000000000
         C            1.219164813887    -1.261687647503     0.308473024241    12.000000000000
         C            1.754983813887     1.067155352497    -0.062203975759    12.000000000000
         C            2.510490813887    -1.609419647503     0.044194024241    12.000000000000
         C            3.411372813887    -0.550932647503    -0.261725975759    12.000000000000
         H           -0.938216186113     0.591124352497    -1.517691975759     1.007825032230
         H           -3.363192186113     0.642385352497    -1.149265975759     1.007825032230
         H           -0.440900186113     1.221600352497     1.401197024241     1.007825032230
         H           -3.282567186113    -0.909013647503     1.127982024241     1.007825032230
         H           -1.713918186113    -1.700584647503    -1.372264975759     1.007825032230
         H           -3.486171186113    -1.834283647503    -1.186935975759     1.007825032230
         H           -0.298135186113     2.712899352497    -0.527800975759     1.007825032230
         H           -2.848166186113     2.399463352497     0.505862024241     1.007825032230
         H            0.433700813887    -1.963716647503     0.566267024241     1.007825032230
         H           -2.434484186113    -3.798711647503    -0.546033975759     1.007825032230
         H            2.828501813887    -2.645677647503     0.071121024241     1.007825032230
         H            5.124569813887    -1.671140647503    -0.165214975759     1.007825032230
         H            5.319203813887    -0.020333647503    -0.571094975759     1.007825032230

  Basis Set: AUG-CC-PVTZ
    Blend: AUG-CC-PVTZ
  Basis Set: (AUG-CC-PVTZ AUX)
    Blend: AUG-CC-PVTZ-JKFIT
	 Reference Energy          =    -886.3726892604040586 [Eh]
	 Singles Energy            =      -0.0000000000000000 [Eh]
	 Same-Spin Energy          =      -0.9013018811623517 [Eh]
	 Opposite-Spin Energy      =      -2.7150763749473352 [Eh]
	 Correlation Energy        =      -3.6163782561096869 [Eh]
	 Total Energy              =    -889.9890675165137282 [Eh]

	 ================> DF-SCS-MP2 Energies <==================
	-----------------------------------------------------------
	 SCS Same-Spin Scale       =       0.3333333333333333 [-]
	 SCS Opposite-Spin Scale   =       1.2000000000000000 [-]
	 SCS Same-Spin Energy      =      -0.3004339603874505 [Eh]
	 SCS Opposite-Spin Energy  =      -3.2580916499368020 [Eh]
	 SCS Correlation Energy    =      -3.5585256103242524 [Eh]
	 SCS Total Energy          =    -889.9312148707283541 [Eh]
	-----------------------------------------------------------

  Dipole Moment: [D]
     X:     1.6872      Y:    -5.9487      Z:    -1.8868     Total:     6.4648

*** Psi4 exiting successfully. Buy a developer a beer!
