                               Psi4 1.3.2 release

  ==> Input File <==

--------------------------------------------------------------------------
#psi4
#
memory 32 gb

molecule  {
0 1
  O       -1.2481010    -0.6526680     1.0325150
  O       -1.2449750     2.4828510    -0.6861630
  O       -3.2165300     1.5210990     0.7448870
  O       -2.3570290    -3.0668370     0.0949400
  O        1.3605300     2.2470340    -0.0765420
  N        0.8434040     0.0452230     0.2559430
  N        3.0572260     0.7205030    -0.2937270
  N        4.7164630    -0.8366550    -0.5722980
  C       -1.2894840     1.0784300    -0.5920770
  C       -2.7151710     0.6552070    -0.2573930
  C       -0.5254080     0.4815200     0.6000940
  C       -2.5292560    -0.7168860     0.3610560
  C       -2.5283440    -1.8503930    -0.6392900
  C        1.2197750    -1.2614080     0.3112740
  C        1.7555940     1.0674350    -0.0594030
  C        2.5111010    -1.6091400     0.0469950
  C        3.4119830    -0.5506530    -0.2589250
  H       -0.9376060     0.5914040    -1.5148910
  H       -3.3625820     0.6426650    -1.1464650
  H       -0.4402900     1.2218800     1.4039980
  H       -3.2819570    -0.9087340     1.1307830
  H       -1.7133080    -1.7003050    -1.3694640
  H       -3.4855610    -1.8340040    -1.1841350
  H       -0.2975250     2.7131790    -0.5250000
  H       -2.8475560     2.3997430     0.5086630
  H        0.4343110    -1.9634370     0.5690680
  H       -2.4338740    -3.7984320    -0.5432330
  H        2.8291120    -2.6453980     0.0739220
  H        5.1251800    -1.6708610    -0.1624140
  H        5.3480079     0.0481173    -0.2775058
units angstrom
no_reorient  #important for SAPT in psi4, default
symmetry c1  #important for SAPT in psi4, default
}

set PROPERTIES_ORIGIN ["COM"]
properties('MP2/aug-cc-pvtz', properties = ['dipole'])
--------------------------------------------------------------------------

    Molecular point group: c1
  Charge       = 0
  Multiplicity = 1
  Basis Set: AUG-CC-PVTZ
    Blend: AUG-CC-PVTZ
  Basis Set: (AUG-CC-PVTZ AUX)
    Blend: AUG-CC-PVTZ-JKFIT

    Orbital Energies [Eh]
    ---------------------

    Doubly Occupied:

       1A    -20.582643     2A    -20.582294     3A    -20.558260
       4A    -20.557797     5A    -20.523009     6A    -15.638485
       7A    -15.608215     8A    -15.554939     9A    -11.389326
      10A    -11.357663    11A    -11.342406    12A    -11.329630
      13A    -11.301612    14A    -11.297446    15A    -11.297281
      16A    -11.293477    17A    -11.249346    18A     -1.430123
      19A     -1.397331    20A     -1.380631    21A     -1.373289
      22A     -1.346825    23A     -1.305789    24A     -1.272017
      25A     -1.178302    26A     -1.082152    27A     -1.068262
      28A     -1.021295    29A     -0.934601    30A     -0.909180
      31A     -0.876706    32A     -0.832373    33A     -0.811779
      34A     -0.760011    35A     -0.753107    36A     -0.736643
      37A     -0.718942    38A     -0.702950    39A     -0.698840
      40A     -0.676539    41A     -0.666109    42A     -0.653626
      43A     -0.652199    44A     -0.637508    45A     -0.618829
      46A     -0.612782    47A     -0.597921    48A     -0.594503
      49A     -0.576621    50A     -0.568758    51A     -0.555142
      52A     -0.546403    53A     -0.538772    54A     -0.532516
      55A     -0.499006    56A     -0.478058    57A     -0.475068
      58A     -0.462895    59A     -0.460911    60A     -0.453391
      61A     -0.441201    62A     -0.434361    63A     -0.398840
      64A     -0.350986

  @DF-RHF Final Energy:  -886.35932918983758

   => Energetics <=

    Nuclear Repulsion Energy =           1323.3390438771311892
    One-Electron Energy =               -3844.3209043410115555
    Two-Electron Energy =                1634.6225312740427853
    Total Energy =                       -886.3593291898375810
  Basis Set: (AUG-CC-PVTZ AUX)
    Blend: AUG-CC-PVTZ-RI
    Molecular point group: c1

    Geometry (in Angstrom), charge = 0, multiplicity = 1:

       Center              X                  Y                   Z               Mass
    ------------   -----------------  -----------------  -----------------  -----------------
         O           -1.248217924972    -0.652950625958     1.031309408618    15.994914619570
         O           -1.245091924972     2.482568374042    -0.687368591382    15.994914619570
         O           -3.216646924972     1.520816374042     0.743681408618    15.994914619570
         O           -2.357145924972    -3.067119625958     0.093734408618    15.994914619570
         O            1.360413075028     2.246751374042    -0.077747591382    15.994914619570
         N            0.843287075028     0.044940374042     0.254737408618    14.003074004430
         N            3.057109075028     0.720220374042    -0.294932591382    14.003074004430
         N            4.716346075028    -0.836937625958    -0.573503591382    14.003074004430
         C           -1.289600924972     1.078147374042    -0.593282591382    12.000000000000
         C           -2.715287924972     0.654924374042    -0.258598591382    12.000000000000
         C           -0.525524924972     0.481237374042     0.598888408618    12.000000000000
         C           -2.529372924972    -0.717168625958     0.359850408618    12.000000000000
         C           -2.528460924972    -1.850675625958    -0.640495591382    12.000000000000
         C            1.219658075028    -1.261690625958     0.310068408618    12.000000000000
         C            1.755477075028     1.067152374042    -0.060608591382    12.000000000000
         C            2.510984075028    -1.609422625958     0.045789408618    12.000000000000
         C            3.411866075028    -0.550935625958    -0.260130591382    12.000000000000
         H           -0.937722924972     0.591121374042    -1.516096591382     1.007825032230
         H           -3.362698924972     0.642382374042    -1.147670591382     1.007825032230
         H           -0.440406924972     1.221597374042     1.402792408618     1.007825032230
         H           -3.282073924972    -0.909016625958     1.129577408618     1.007825032230
         H           -1.713424924972    -1.700587625958    -1.370669591382     1.007825032230
         H           -3.485677924972    -1.834286625958    -1.185340591382     1.007825032230
         H           -0.297641924972     2.712896374042    -0.526205591382     1.007825032230
         H           -2.847672924972     2.399460374042     0.507457408618     1.007825032230
         H            0.434194075028    -1.963719625958     0.567862408618     1.007825032230
         H           -2.433990924972    -3.798714625958    -0.544438591382     1.007825032230
         H            2.828995075028    -2.645680625958     0.072716408618     1.007825032230
         H            5.125063075028    -1.671143625958    -0.163619591382     1.007825032230
         H            5.347890975028     0.047834674042    -0.278711391382     1.007825032230

  Basis Set: AUG-CC-PVTZ
    Blend: AUG-CC-PVTZ
  Basis Set: (AUG-CC-PVTZ AUX)
    Blend: AUG-CC-PVTZ-JKFIT
	 Reference Energy          =    -886.3593291898375810 [Eh]
	 Singles Energy            =      -0.0000000000000000 [Eh]
	 Same-Spin Energy          =      -0.9021147776473881 [Eh]
	 Opposite-Spin Energy      =      -2.7173490000786846 [Eh]
	 Correlation Energy        =      -3.6194637777260725 [Eh]
	 Total Energy              =    -889.9787929675636633 [Eh]

	 ================> DF-SCS-MP2 Energies <==================
	-----------------------------------------------------------
	 SCS Same-Spin Scale       =       0.3333333333333333 [-]
	 SCS Opposite-Spin Scale   =       1.2000000000000000 [-]
	 SCS Same-Spin Energy      =      -0.3007049258824627 [Eh]
	 SCS Opposite-Spin Energy  =      -3.2608188000944214 [Eh]
	 SCS Correlation Energy    =      -3.5615237259768842 [Eh]
	 SCS Total Energy          =    -889.9208529158145211 [Eh]
	-----------------------------------------------------------

  Dipole Moment: [D]
     X:     1.4979      Y:    -5.9013      Z:    -1.4548     Total:     6.2598

*** Psi4 exiting successfully. Buy a developer a beer!
