                               Psi4 1.3.2 release

  ==> Input File <==

--------------------------------------------------------------------------
#psi4
#
memory 32 gb

molecule  {
0 1
  O       -1.2481010    -0.6526680     1.0325150
  O       -1.2449750     2.4828510    -0.6861630
  O       -3.2165300     1.5210990     0.7448870
  O       -2.3570290    -3.0668370     0.0949400
  O        1.3605300     2.2470340    -0.0765420
  N        0.8434040     0.0452230     0.2559430
  N        3.0572260     0.7205030    -0.2937270
  N        4.7164630    -0.8366550    -0.5722980
  C       -1.2894840     1.0784300    -0.5920770
  C       -2.7151710     0.6552070    -0.2573930
  C       -0.5254080     0.4815200     0.6000940
  C       -2.5292560    -0.7168860     0.3610560
  C       -2.5283440    -1.8503930    -0.6392900
  C        1.2197750    -1.2614080     0.3112740
  C        1.7555940     1.0674350    -0.0594030
  C        2.5111010    -1.6091400     0.0469950
  C        3.4119830    -0.5506530    -0.2589250
  H       -0.9376060     0.5914040    -1.5148910
  H       -3.3625820     0.6426650    -1.1464650
  H       -0.4402900     1.2218800     1.4039980
  H       -3.2819570    -0.9087340     1.1307830
  H       -1.7133080    -1.7003050    -1.3694640
  H       -3.4855610    -1.8340040    -1.1841350
  H       -0.2975250     2.7131790    -0.5250000
  H       -2.8475560     2.3997430     0.5086630
  H        0.4343110    -1.9634370     0.5690680
  H       -2.4338740    -3.7984320    -0.5432330
  H        2.7623569    -2.6730881    -0.2172429
  H        5.1251800    -1.6708610    -0.1624140
  H        5.3198140    -0.0200540    -0.5682940
units angstrom
no_reorient  #important for SAPT in psi4, default
symmetry c1  #important for SAPT in psi4, default
}

set PROPERTIES_ORIGIN ["COM"]
properties('MP2/aug-cc-pvtz', properties = ['dipole'])
--------------------------------------------------------------------------

    Molecular point group: c1
  Charge       = 0
  Multiplicity = 1
  Basis Set: AUG-CC-PVTZ
    Blend: AUG-CC-PVTZ
  Basis Set: (AUG-CC-PVTZ AUX)
    Blend: AUG-CC-PVTZ-JKFIT

    Orbital Energies [Eh]
    ---------------------

    Doubly Occupied:

       1A    -20.582595     2A    -20.581990     3A    -20.558127
       4A    -20.557714     5A    -20.522845     6A    -15.637922
       7A    -15.599543     8A    -15.553511     9A    -11.388935
      10A    -11.357852    11A    -11.341969    12A    -11.329730
      13A    -11.301601    14A    -11.297316    15A    -11.297252
      16A    -11.293413    17A    -11.251265    18A     -1.429840
      19A     -1.397014    20A     -1.380526    21A     -1.373193
      22A     -1.346712    23A     -1.306406    24A     -1.274127
      25A     -1.182296    26A     -1.081350    27A     -1.068153
      28A     -1.021422    29A     -0.935667    30A     -0.909493
      31A     -0.877082    32A     -0.832176    33A     -0.812196
      34A     -0.767062    35A     -0.751110    36A     -0.736482
      37A     -0.720438    38A     -0.703187    39A     -0.698698
      40A     -0.685866    41A     -0.672425    42A     -0.654965
      43A     -0.650146    44A     -0.632483    45A     -0.621740
      46A     -0.615062    47A     -0.607464    48A     -0.590509
      49A     -0.575840    50A     -0.569936    51A     -0.553949
      52A     -0.546679    53A     -0.538663    54A     -0.531435
      55A     -0.498312    56A     -0.477604    57A     -0.474391
      58A     -0.462578    59A     -0.459967    60A     -0.453273
      61A     -0.442210    62A     -0.432368    63A     -0.395335
      64A     -0.350058

  @DF-RHF Final Energy:  -886.36822922280476

   => Energetics <=

    Nuclear Repulsion Energy =           1323.5916804379976384
    One-Electron Energy =               -3844.8168850359220414
    Two-Electron Energy =                1634.8569753751196458
    Total Energy =                       -886.3682292228047572
  Basis Set: (AUG-CC-PVTZ AUX)
    Blend: AUG-CC-PVTZ-RI
    Molecular point group: c1

    Geometry (in Angstrom), charge = 0, multiplicity = 1:

       Center              X                  Y                   Z               Mass
    ------------   -----------------  -----------------  -----------------  -----------------
         O           -1.247824269361    -0.652553187565     1.033722168130    15.994914619570
         O           -1.244698269361     2.482965812435    -0.684955831870    15.994914619570
         O           -3.216253269361     1.521213812435     0.746094168130    15.994914619570
         O           -2.356752269361    -3.066722187565     0.096147168130    15.994914619570
         O            1.360806730639     2.247148812435    -0.075334831870    15.994914619570
         N            0.843680730639     0.045337812435     0.257150168130    14.003074004430
         N            3.057502730639     0.720617812435    -0.292519831870    14.003074004430
         N            4.716739730639    -0.836540187565    -0.571090831870    14.003074004430
         C           -1.289207269361     1.078544812435    -0.590869831870    12.000000000000
         C           -2.714894269361     0.655321812435    -0.256185831870    12.000000000000
         C           -0.525131269361     0.481634812435     0.601301168130    12.000000000000
         C           -2.528979269361    -0.716771187565     0.362263168130    12.000000000000
         C           -2.528067269361    -1.850278187565    -0.638082831870    12.000000000000
         C            1.220051730639    -1.261293187565     0.312481168130    12.000000000000
         C            1.755870730639     1.067549812435    -0.058195831870    12.000000000000
         C            2.511377730639    -1.609025187565     0.048202168130    12.000000000000
         C            3.412259730639    -0.550538187565    -0.257717831870    12.000000000000
         H           -0.937329269361     0.591518812435    -1.513683831870     1.007825032230
         H           -3.362305269361     0.642779812435    -1.145257831870     1.007825032230
         H           -0.440013269361     1.221994812435     1.405205168130     1.007825032230
         H           -3.281680269361    -0.908619187565     1.131990168130     1.007825032230
         H           -1.713031269361    -1.700190187565    -1.368256831870     1.007825032230
         H           -3.485284269361    -1.833889187565    -1.182927831870     1.007825032230
         H           -0.297248269361     2.713293812435    -0.523792831870     1.007825032230
         H           -2.847279269361     2.399857812435     0.509870168130     1.007825032230
         H            0.434587730639    -1.963322187565     0.570275168130     1.007825032230
         H           -2.433597269361    -3.798317187565    -0.542025831870     1.007825032230
         H            2.762633630639    -2.672973287565    -0.216035731870     1.007825032230
         H            5.125456730639    -1.670746187565    -0.161206831870     1.007825032230
         H            5.320090730639    -0.019939187565    -0.567086831870     1.007825032230

  Basis Set: AUG-CC-PVTZ
    Blend: AUG-CC-PVTZ
  Basis Set: (AUG-CC-PVTZ AUX)
    Blend: AUG-CC-PVTZ-JKFIT
	 Reference Energy          =    -886.3682292228047572 [Eh]
	 Singles Energy            =      -0.0000000000000000 [Eh]
	 Same-Spin Energy          =      -0.9014189097957911 [Eh]
	 Opposite-Spin Energy      =      -2.7153935113290308 [Eh]
	 Correlation Energy        =      -3.6168124211248220 [Eh]
	 Total Energy              =    -889.9850416439295486 [Eh]

	 ================> DF-SCS-MP2 Energies <==================
	-----------------------------------------------------------
	 SCS Same-Spin Scale       =       0.3333333333333333 [-]
	 SCS Opposite-Spin Scale   =       1.2000000000000000 [-]
	 SCS Same-Spin Energy      =      -0.3004729699319303 [Eh]
	 SCS Opposite-Spin Energy  =      -3.2584722135948367 [Eh]
	 SCS Correlation Energy    =      -3.5589451835267671 [Eh]
	 SCS Total Energy          =    -889.9271744063315737 [Eh]
	-----------------------------------------------------------

  Dipole Moment: [D]
     X:     1.6207      Y:    -5.8874      Z:    -2.0334     Total:     6.4361

*** Psi4 exiting successfully. Buy a developer a beer!
