                               Psi4 1.3.2 release

  ==> Input File <==

--------------------------------------------------------------------------
#psi4
#
memory 32 gb

molecule  {
0 1
  O       -1.2481010    -0.6526680     1.0325150
  O       -1.2449750     2.4828510    -0.6861630
  O       -3.2165300     1.5210990     0.7448870
  O       -2.3570290    -3.0668370     0.0949400
  O        1.3605300     2.2470340    -0.0765420
  N        0.8434040     0.0452230     0.2559430
  N        3.0572260     0.7205030    -0.2937270
  N        4.7164630    -0.8366550    -0.5722980
  C       -1.2894840     1.0784300    -0.5920770
  C       -2.7151710     0.6552070    -0.2573930
  C       -0.5254080     0.4815200     0.6000940
  C       -2.5292560    -0.7168860     0.3610560
  C       -2.5283440    -1.8503930    -0.6392900
  C        1.2197750    -1.2614080     0.3112740
  C        1.8317807     1.0958686     0.2293653
  C        2.5111010    -1.6091400     0.0469950
  C        3.4119830    -0.5506530    -0.2589250
  H       -0.9376060     0.5914040    -1.5148910
  H       -3.3625820     0.6426650    -1.1464650
  H       -0.4402900     1.2218800     1.4039980
  H       -3.2819570    -0.9087340     1.1307830
  H       -1.7133080    -1.7003050    -1.3694640
  H       -3.4855610    -1.8340040    -1.1841350
  H       -0.2975250     2.7131790    -0.5250000
  H       -2.8475560     2.3997430     0.5086630
  H        0.4343110    -1.9634370     0.5690680
  H       -2.4338740    -3.7984320    -0.5432330
  H        2.8291120    -2.6453980     0.0739220
  H        5.1251800    -1.6708610    -0.1624140
  H        5.3198140    -0.0200540    -0.5682940
units angstrom
no_reorient  #important for SAPT in psi4, default
symmetry c1  #important for SAPT in psi4, default
}

set PROPERTIES_ORIGIN ["COM"]
properties('MP2/aug-cc-pvtz', properties = ['dipole'])
--------------------------------------------------------------------------

    Molecular point group: c1
  Charge       = 0
  Multiplicity = 1
  Basis Set: AUG-CC-PVTZ
    Blend: AUG-CC-PVTZ
  Basis Set: (AUG-CC-PVTZ AUX)
    Blend: AUG-CC-PVTZ-JKFIT

    Orbital Energies [Eh]
    ---------------------

    Doubly Occupied:

       1A    -20.581340     2A    -20.580339     3A    -20.556578
       4A    -20.555577     5A    -20.523951     6A    -15.638017
       7A    -15.599744     8A    -15.557724     9A    -11.399125
      10A    -11.358883    11A    -11.340051    12A    -11.327769
      13A    -11.300006    14A    -11.295542    15A    -11.294086
      16A    -11.291260    17A    -11.249546    18A     -1.426395
      19A     -1.383418    20A     -1.378235    21A     -1.371134
      22A     -1.344377    23A     -1.298278    24A     -1.269048
      25A     -1.179328    26A     -1.080339    27A     -1.066027
      28A     -1.018895    29A     -0.933873    30A     -0.902384
      31A     -0.875749    32A     -0.829662    33A     -0.810518
      34A     -0.762386    35A     -0.750801    36A     -0.732984
      37A     -0.719738    38A     -0.700530    39A     -0.696651
      40A     -0.684291    41A     -0.671853    42A     -0.650137
      43A     -0.648517    44A     -0.636431    45A     -0.622246
      46A     -0.608597    47A     -0.604317    48A     -0.588334
      49A     -0.573625    50A     -0.568235    51A     -0.551822
      52A     -0.546194    53A     -0.534743    54A     -0.528297
      55A     -0.493691    56A     -0.476256    57A     -0.472868
      58A     -0.460347    59A     -0.457131    60A     -0.450930
      61A     -0.438542    62A     -0.434263    63A     -0.387774
      64A     -0.348599

  @DF-RHF Final Energy:  -886.32951063250459

   => Energetics <=

    Nuclear Repulsion Energy =           1321.3498379368732003
    One-Electron Energy =               -3840.5220437241478066
    Two-Electron Energy =                1632.8426951547703538
    Total Energy =                       -886.3295106325044799
  Basis Set: (AUG-CC-PVTZ AUX)
    Blend: AUG-CC-PVTZ-RI
    Molecular point group: c1

    Geometry (in Angstrom), charge = 0, multiplicity = 1:

       Center              X                  Y                   Z               Mass
    ------------   -----------------  -----------------  -----------------  -----------------
         O           -1.251862016483    -0.654071624266     1.018259861422    15.994914619570
         O           -1.248736016483     2.481447375734    -0.700418138578    15.994914619570
         O           -3.220291016483     1.519695375734     0.730631861422    15.994914619570
         O           -2.360790016483    -3.068240624266     0.080684861422    15.994914619570
         O            1.356768983517     2.245630375734    -0.090797138578    15.994914619570
         N            0.839642983517     0.043819375734     0.241687861422    14.003074004430
         N            3.053464983517     0.719099375734    -0.307982138578    14.003074004430
         N            4.712701983517    -0.838058624266    -0.586553138578    14.003074004430
         C           -1.293245016483     1.077026375734    -0.606332138578    12.000000000000
         C           -2.718932016483     0.653803375734    -0.271648138578    12.000000000000
         C           -0.529169016483     0.480116375734     0.585838861422    12.000000000000
         C           -2.533017016483    -0.718289624266     0.346800861422    12.000000000000
         C           -2.532105016483    -1.851796624266    -0.653545138578    12.000000000000
         C            1.216013983517    -1.262811624266     0.297018861422    12.000000000000
         C            1.828019683517     1.094464975734     0.215110161422    12.000000000000
         C            2.507339983517    -1.610543624266     0.032739861422    12.000000000000
         C            3.408221983517    -0.552056624266    -0.273180138578    12.000000000000
         H           -0.941367016483     0.590000375734    -1.529146138578     1.007825032230
         H           -3.366343016483     0.641261375734    -1.160720138578     1.007825032230
         H           -0.444051016483     1.220476375734     1.389742861422     1.007825032230
         H           -3.285718016483    -0.910137624266     1.116527861422     1.007825032230
         H           -1.717069016483    -1.701708624266    -1.383719138578     1.007825032230
         H           -3.489322016483    -1.835407624266    -1.198390138578     1.007825032230
         H           -0.301286016483     2.711775375734    -0.539255138578     1.007825032230
         H           -2.851317016483     2.398339375734     0.494407861422     1.007825032230
         H            0.430549983517    -1.964840624266     0.554812861422     1.007825032230
         H           -2.437635016483    -3.799835624266    -0.557488138578     1.007825032230
         H            2.825350983517    -2.646801624266     0.059666861422     1.007825032230
         H            5.121418983517    -1.672264624266    -0.176669138578     1.007825032230
         H            5.316052983517    -0.021457624266    -0.582549138578     1.007825032230

  Basis Set: AUG-CC-PVTZ
    Blend: AUG-CC-PVTZ
  Basis Set: (AUG-CC-PVTZ AUX)
    Blend: AUG-CC-PVTZ-JKFIT
	 Reference Energy          =    -886.3295106325045936 [Eh]
	 Singles Energy            =      -0.0000000000000000 [Eh]
	 Same-Spin Energy          =      -0.9041376776423584 [Eh]
	 Opposite-Spin Energy      =      -2.7216728062768230 [Eh]
	 Correlation Energy        =      -3.6258104839191816 [Eh]
	 Total Energy              =    -889.9553211164237609 [Eh]

	 ================> DF-SCS-MP2 Energies <==================
	-----------------------------------------------------------
	 SCS Same-Spin Scale       =       0.3333333333333333 [-]
	 SCS Opposite-Spin Scale   =       1.2000000000000000 [-]
	 SCS Same-Spin Energy      =      -0.3013792258807861 [Eh]
	 SCS Opposite-Spin Energy  =      -3.2660073675321875 [Eh]
	 SCS Correlation Energy    =      -3.5673865934129738 [Eh]
	 SCS Total Energy          =    -889.8968972259175416 [Eh]
	-----------------------------------------------------------

  Dipole Moment: [D]
     X:     1.8810      Y:    -5.9584      Z:    -1.5373     Total:     6.4346

*** Psi4 exiting successfully. Buy a developer a beer!
