                               Psi4 1.3.2 release

  ==> Input File <==

--------------------------------------------------------------------------
#psi4
#
memory 32 gb

molecule  {
0 1
  O       -1.2481010    -0.6526680     1.0325150
  O       -1.2449750     2.4828510    -0.6861630
  O       -3.2165300     1.5210990     0.7448870
  O       -2.3570290    -3.0668370     0.0949400
  O        1.3605300     2.2470340    -0.0765420
  N        0.8434040     0.0452230     0.2559430
  N        3.0572260     0.7205030    -0.2937270
  N        4.7164630    -0.8366550    -0.5722980
  C       -1.2894840     1.0784300    -0.5920770
  C       -2.7151710     0.6552070    -0.2573930
  C       -0.5254080     0.4815200     0.6000940
  C       -2.5292560    -0.7168860     0.3610560
  C       -2.5283440    -1.8503930    -0.6392900
  C        1.2197750    -1.2614080     0.3112740
  C        1.7555940     1.0674350    -0.0594030
  C        2.4748349    -1.6218445    -0.0979994
  C        3.4119830    -0.5506530    -0.2589250
  H       -0.9376060     0.5914040    -1.5148910
  H       -3.3625820     0.6426650    -1.1464650
  H       -0.4402900     1.2218800     1.4039980
  H       -3.2819570    -0.9087340     1.1307830
  H       -1.7133080    -1.7003050    -1.3694640
  H       -3.4855610    -1.8340040    -1.1841350
  H       -0.2975250     2.7131790    -0.5250000
  H       -2.8475560     2.3997430     0.5086630
  H        0.4343110    -1.9634370     0.5690680
  H       -2.4338740    -3.7984320    -0.5432330
  H        2.8291120    -2.6453980     0.0739220
  H        5.1251800    -1.6708610    -0.1624140
  H        5.3198140    -0.0200540    -0.5682940
units angstrom
no_reorient  #important for SAPT in psi4, default
symmetry c1  #important for SAPT in psi4, default
}

set PROPERTIES_ORIGIN ["COM"]
properties('MP2/aug-cc-pvtz', properties = ['dipole'])
--------------------------------------------------------------------------

    Molecular point group: c1
  Charge       = 0
  Multiplicity = 1
  Basis Set: AUG-CC-PVTZ
    Blend: AUG-CC-PVTZ
  Basis Set: (AUG-CC-PVTZ AUX)
    Blend: AUG-CC-PVTZ-JKFIT

    Orbital Energies [Eh]
    ---------------------

    Doubly Occupied:

       1A    -20.582048     2A    -20.581804     3A    -20.557892
       4A    -20.557462     5A    -20.522915     6A    -15.637510
       7A    -15.600221     8A    -15.553631     9A    -11.388981
      10A    -11.358660    11A    -11.341762    12A    -11.330021
      13A    -11.300976    14A    -11.296980    15A    -11.296872
      16A    -11.293098    17A    -11.250075    18A     -1.429625
      19A     -1.396910    20A     -1.380205    21A     -1.372747
      22A     -1.346470    23A     -1.306170    24A     -1.274119
      25A     -1.182538    26A     -1.080756    27A     -1.067793
      28A     -1.021146    29A     -0.935195    30A     -0.908999
      31A     -0.877283    32A     -0.832128    33A     -0.811783
      34A     -0.765771    35A     -0.751645    36A     -0.736225
      37A     -0.719908    38A     -0.702762    39A     -0.698477
      40A     -0.686443    41A     -0.672416    42A     -0.654899
      43A     -0.648405    44A     -0.639958    45A     -0.618818
      46A     -0.614160    47A     -0.606696    48A     -0.592033
      49A     -0.575385    50A     -0.570270    51A     -0.553216
      52A     -0.545438    53A     -0.536881    54A     -0.531896
      55A     -0.497718    56A     -0.477504    57A     -0.474624
      58A     -0.462448    59A     -0.460128    60A     -0.452987
      61A     -0.440986    62A     -0.433453    63A     -0.395281
      64A     -0.350351

  @DF-RHF Final Energy:  -886.36805004802613

   => Energetics <=

    Nuclear Repulsion Energy =           1323.6789115829710681
    One-Electron Energy =               -3845.0099996612298128
    Two-Electron Energy =                1634.9630380302326103
    Total Energy =                       -886.3680500480261344
  Basis Set: (AUG-CC-PVTZ AUX)
    Blend: AUG-CC-PVTZ-RI
    Molecular point group: c1

    Geometry (in Angstrom), charge = 0, multiplicity = 1:

       Center              X                  Y                   Z               Mass
    ------------   -----------------  -----------------  -----------------  -----------------
         O           -1.246310745485    -0.652040827866     1.039672705711    15.994914619570
         O           -1.243184745485     2.483478172134    -0.679005294289    15.994914619570
         O           -3.214739745485     1.521726172134     0.752044705711    15.994914619570
         O           -2.355238745485    -3.066209827866     0.102097705711    15.994914619570
         O            1.362320254515     2.247661172134    -0.069384294289    15.994914619570
         N            0.845194254515     0.045850172134     0.263100705711    14.003074004430
         N            3.059016254515     0.721130172134    -0.286569294289    14.003074004430
         N            4.718253254515    -0.836027827866    -0.565140294289    14.003074004430
         C           -1.287693745485     1.079057172134    -0.584919294289    12.000000000000
         C           -2.713380745485     0.655834172134    -0.250235294289    12.000000000000
         C           -0.523617745485     0.482147172134     0.607251705711    12.000000000000
         C           -2.527465745485    -0.716258827866     0.368213705711    12.000000000000
         C           -2.526553745485    -1.849765827866    -0.632132294289    12.000000000000
         C            1.221565254515    -1.260780827866     0.318431705711    12.000000000000
         C            1.757384254515     1.068062172134    -0.052245294289    12.000000000000
         C            2.476625154515    -1.621217327866    -0.090841694289    12.000000000000
         C            3.413773254515    -0.550025827866    -0.251767294289    12.000000000000
         H           -0.935815745485     0.592031172134    -1.507733294289     1.007825032230
         H           -3.360791745485     0.643292172134    -1.139307294289     1.007825032230
         H           -0.438499745485     1.222507172134     1.411155705711     1.007825032230
         H           -3.280166745485    -0.908106827866     1.137940705711     1.007825032230
         H           -1.711517745485    -1.699677827866    -1.362306294289     1.007825032230
         H           -3.483770745485    -1.833376827866    -1.176977294289     1.007825032230
         H           -0.295734745485     2.713806172134    -0.517842294289     1.007825032230
         H           -2.845765745485     2.400370172134     0.515820705711     1.007825032230
         H            0.436101254515    -1.962809827866     0.576225705711     1.007825032230
         H           -2.432083745485    -3.797804827866    -0.536075294289     1.007825032230
         H            2.830902254515    -2.644770827866     0.081079705711     1.007825032230
         H            5.126970254515    -1.670233827866    -0.155256294289     1.007825032230
         H            5.321604254515    -0.019426827866    -0.561136294289     1.007825032230

  Basis Set: AUG-CC-PVTZ
    Blend: AUG-CC-PVTZ
  Basis Set: (AUG-CC-PVTZ AUX)
    Blend: AUG-CC-PVTZ-JKFIT
	 Reference Energy          =    -886.3680500480261344 [Eh]
	 Singles Energy            =      -0.0000000000000000 [Eh]
	 Same-Spin Energy          =      -0.9014265983169415 [Eh]
	 Opposite-Spin Energy      =      -2.7155019465582546 [Eh]
	 Correlation Energy        =      -3.6169285448751962 [Eh]
	 Total Energy              =    -889.9849785929013706 [Eh]

	 ================> DF-SCS-MP2 Energies <==================
	-----------------------------------------------------------
	 SCS Same-Spin Scale       =       0.3333333333333333 [-]
	 SCS Opposite-Spin Scale   =       1.2000000000000000 [-]
	 SCS Same-Spin Energy      =      -0.3004755327723138 [Eh]
	 SCS Opposite-Spin Energy  =      -3.2586023358699054 [Eh]
	 SCS Correlation Energy    =      -3.5590778686422193 [Eh]
	 SCS Total Energy          =    -889.9271279166683826 [Eh]
	-----------------------------------------------------------

  Dipole Moment: [D]
     X:     1.7233      Y:    -5.8732      Z:    -1.7185     Total:     6.3575

*** Psi4 exiting successfully. Buy a developer a beer!
