                               Psi4 1.3.2 release

  ==> Input File <==

--------------------------------------------------------------------------
#psi4
#
memory 32 gb

molecule  {
0 1
  O       -1.2481010    -0.6526680     1.0325150
  O       -1.2449750     2.4828510    -0.6861630
  O       -3.2165300     1.5210990     0.7448870
  O       -2.3570290    -3.0668370     0.0949400
  O        1.3605300     2.2470340    -0.0765420
  N        0.8434040     0.0452230     0.2559430
  N        3.0572260     0.7205030    -0.2937270
  N        4.7164630    -0.8366550    -0.5722980
  C       -1.2894840     1.0784300    -0.5920770
  C       -2.7151710     0.6552070    -0.2573930
  C       -0.5254080     0.4815200     0.6000940
  C       -2.5292560    -0.7168860     0.3610560
  C       -2.5283440    -1.8503930    -0.6392900
  C        1.2197750    -1.2614080     0.3112740
  C        1.7555940     1.0674350    -0.0594030
  C        2.4869236    -1.6176097    -0.0496679
  C        3.4119830    -0.5506530    -0.2589250
  H       -0.9376060     0.5914040    -1.5148910
  H       -3.3625820     0.6426650    -1.1464650
  H       -0.4402900     1.2218800     1.4039980
  H       -3.2819570    -0.9087340     1.1307830
  H       -1.7133080    -1.7003050    -1.3694640
  H       -3.4855610    -1.8340040    -1.1841350
  H       -0.2975250     2.7131790    -0.5250000
  H       -2.8475560     2.3997430     0.5086630
  H        0.4343110    -1.9634370     0.5690680
  H       -2.4338740    -3.7984320    -0.5432330
  H        2.8291120    -2.6453980     0.0739220
  H        5.1251800    -1.6708610    -0.1624140
  H        5.3198140    -0.0200540    -0.5682940
units angstrom
no_reorient  #important for SAPT in psi4, default
symmetry c1  #important for SAPT in psi4, default
}

set PROPERTIES_ORIGIN ["COM"]
properties('MP2/aug-cc-pvtz', properties = ['dipole'])
--------------------------------------------------------------------------

    Molecular point group: c1
  Charge       = 0
  Multiplicity = 1
  Basis Set: AUG-CC-PVTZ
    Blend: AUG-CC-PVTZ
  Basis Set: (AUG-CC-PVTZ AUX)
    Blend: AUG-CC-PVTZ-JKFIT

    Orbital Energies [Eh]
    ---------------------

    Doubly Occupied:

       1A    -20.582084     2A    -20.581659     3A    -20.557800
       4A    -20.557306     5A    -20.522405     6A    -15.637119
       7A    -15.600116     8A    -15.553547     9A    -11.388588
      10A    -11.358232    11A    -11.341594    12A    -11.329015
      13A    -11.301005    14A    -11.296904    15A    -11.296715
      16A    -11.292990    17A    -11.249216    18A     -1.429443
      19A     -1.396612    20A     -1.380112    21A     -1.372723
      22A     -1.346345    23A     -1.306127    24A     -1.273946
      25A     -1.182429    26A     -1.081502    27A     -1.067712
      28A     -1.021234    29A     -0.935291    30A     -0.909200
      31A     -0.877309    32A     -0.832193    33A     -0.811790
      34A     -0.766400    35A     -0.751997    36A     -0.736157
      37A     -0.720000    38A     -0.702781    39A     -0.698416
      40A     -0.686125    41A     -0.672548    42A     -0.654724
      43A     -0.649751    44A     -0.639681    45A     -0.619574
      46A     -0.614260    47A     -0.606748    48A     -0.592970
      49A     -0.575483    50A     -0.570085    51A     -0.553475
      52A     -0.545513    53A     -0.537086    54A     -0.531860
      55A     -0.497901    56A     -0.477465    57A     -0.474521
      58A     -0.462264    59A     -0.460076    60A     -0.452867
      61A     -0.440912    62A     -0.433373    63A     -0.395246
      64A     -0.350141

  @DF-RHF Final Energy:  -886.37108456262536

   => Energetics <=

    Nuclear Repulsion Energy =           1323.7510502653935873
    One-Electron Energy =               -3845.1629384766365547
    Two-Electron Energy =                1635.0408036486176115
    Total Energy =                       -886.3710845626253558
  Basis Set: (AUG-CC-PVTZ AUX)
    Blend: AUG-CC-PVTZ-RI
    Molecular point group: c1

    Geometry (in Angstrom), charge = 0, multiplicity = 1:

       Center              X                  Y                   Z               Mass
    ------------   -----------------  -----------------  -----------------  -----------------
         O           -1.246907508302    -0.652249880219     1.037286804655    15.994914619570
         O           -1.243781508302     2.483269119781    -0.681391195345    15.994914619570
         O           -3.215336508302     1.521517119781     0.749658804655    15.994914619570
         O           -2.355835508302    -3.066418880219     0.099711804655    15.994914619570
         O            1.361723491698     2.247452119781    -0.071770195345    15.994914619570
         N            0.844597491698     0.045641119781     0.260714804655    14.003074004430
         N            3.058419491698     0.720921119781    -0.288955195345    14.003074004430
         N            4.717656491698    -0.836236880219    -0.567526195345    14.003074004430
         C           -1.288290508302     1.078848119781    -0.587305195345    12.000000000000
         C           -2.713977508302     0.655625119781    -0.252621195345    12.000000000000
         C           -0.524214508302     0.481938119781     0.604865804655    12.000000000000
         C           -2.528062508302    -0.716467880219     0.365827804655    12.000000000000
         C           -2.527150508302    -1.849974880219    -0.634518195345    12.000000000000
         C            1.220968491698    -1.260989880219     0.316045804655    12.000000000000
         C            1.756787491698     1.067853119781    -0.054631195345    12.000000000000
         C            2.488117091698    -1.617191580219    -0.044896095345    12.000000000000
         C            3.413176491698    -0.550234880219    -0.254153195345    12.000000000000
         H           -0.936412508302     0.591822119781    -1.510119195345     1.007825032230
         H           -3.361388508302     0.643083119781    -1.141693195345     1.007825032230
         H           -0.439096508302     1.222298119781     1.408769804655     1.007825032230
         H           -3.280763508302    -0.908315880219     1.135554804655     1.007825032230
         H           -1.712114508302    -1.699886880219    -1.364692195345     1.007825032230
         H           -3.484367508302    -1.833585880219    -1.179363195345     1.007825032230
         H           -0.296331508302     2.713597119781    -0.520228195345     1.007825032230
         H           -2.846362508302     2.400161119781     0.513434804655     1.007825032230
         H            0.435504491698    -1.963018880219     0.573839804655     1.007825032230
         H           -2.432680508302    -3.798013880219    -0.538461195345     1.007825032230
         H            2.830305491698    -2.644979880219     0.078693804655     1.007825032230
         H            5.126373491698    -1.670442880219    -0.157642195345     1.007825032230
         H            5.321007491698    -0.019635880219    -0.563522195345     1.007825032230

  Basis Set: AUG-CC-PVTZ
    Blend: AUG-CC-PVTZ
  Basis Set: (AUG-CC-PVTZ AUX)
    Blend: AUG-CC-PVTZ-JKFIT
	 Reference Energy          =    -886.3710845626253558 [Eh]
	 Singles Energy            =      -0.0000000000000000 [Eh]
	 Same-Spin Energy          =      -0.9013305802620877 [Eh]
	 Opposite-Spin Energy      =      -2.7151741472315956 [Eh]
	 Correlation Energy        =      -3.6165047274936830 [Eh]
	 Total Energy              =    -889.9875892901189900 [Eh]

	 ================> DF-SCS-MP2 Energies <==================
	-----------------------------------------------------------
	 SCS Same-Spin Scale       =       0.3333333333333333 [-]
	 SCS Opposite-Spin Scale   =       1.2000000000000000 [-]
	 SCS Same-Spin Energy      =      -0.3004435267540292 [Eh]
	 SCS Opposite-Spin Energy  =      -3.2582089766779148 [Eh]
	 SCS Correlation Energy    =      -3.5586525034319441 [Eh]
	 SCS Total Energy          =    -889.9297370660573279 [Eh]
	-----------------------------------------------------------

  Dipole Moment: [D]
     X:     1.7245      Y:    -5.9133      Z:    -1.7532     Total:     6.4043

*** Psi4 exiting successfully. Buy a developer a beer!
