                               Psi4 1.3.2 release

  ==> Input File <==

--------------------------------------------------------------------------
#psi4
#
memory 32 gb

molecule  {
0 1
  O       -1.2481010    -0.6526680     1.0325150
  O       -1.2449750     2.4828510    -0.6861630
  O       -3.2165300     1.5210990     0.7448870
  O       -2.3570290    -3.0668370     0.0949400
  O        1.3605300     2.2470340    -0.0765420
  N        0.8434040     0.0452230     0.2559430
  N        3.0572260     0.7205030    -0.2937270
  N        4.7164630    -0.8366550    -0.5722980
  C       -1.2894840     1.0784300    -0.5920770
  C       -2.7151710     0.6552070    -0.2573930
  C       -0.5254080     0.4815200     0.6000940
  C       -2.5292560    -0.7168860     0.3610560
  C       -2.5283440    -1.8503930    -0.6392900
  C        1.2197750    -1.2614080     0.3112740
  C        1.7555940     1.0674350    -0.0594030
  C        2.5111010    -1.6091400     0.0469950
  C        3.4119830    -0.5506530    -0.2589250
  H       -0.9376060     0.5914040    -1.5148910
  H       -3.3625820     0.6426650    -1.1464650
  H       -0.4402900     1.2218800     1.4039980
  H       -3.2819570    -0.9087340     1.1307830
  H       -1.7133080    -1.7003050    -1.3694640
  H       -3.4855610    -1.8340040    -1.1841350
  H       -0.2975250     2.7131790    -0.5250000
  H       -2.8475560     2.3997430     0.5086630
  H        0.4343110    -1.9634370     0.5690680
  H       -2.4338740    -3.7984320    -0.5432330
  H        2.8291120    -2.6453980     0.0739220
  H        5.1251800    -1.6708610    -0.1624140
  H        5.3339110     0.0140316    -0.4228999
units angstrom
no_reorient  #important for SAPT in psi4, default
symmetry c1  #important for SAPT in psi4, default
}

set PROPERTIES_ORIGIN ["COM"]
properties('MP2/aug-cc-pvtz', properties = ['dipole'])
--------------------------------------------------------------------------

    Molecular point group: c1
  Charge       = 0
  Multiplicity = 1
  Basis Set: AUG-CC-PVTZ
    Blend: AUG-CC-PVTZ
  Basis Set: (AUG-CC-PVTZ AUX)
    Blend: AUG-CC-PVTZ-JKFIT

    Orbital Energies [Eh]
    ---------------------

    Doubly Occupied:

       1A    -20.582437     2A    -20.581946     3A    -20.558018
       4A    -20.557516     5A    -20.522527     6A    -15.637688
       7A    -15.603558     8A    -15.554205     9A    -11.388842
      10A    -11.357757    11A    -11.341978    12A    -11.329065
      13A    -11.301391    14A    -11.297180    15A    -11.296957
      16A    -11.293214    17A    -11.248933    18A     -1.429740
      19A     -1.396879    20A     -1.380369    21A     -1.373046
      22A     -1.346560    23A     -1.306021    24A     -1.273139
      25A     -1.180623    26A     -1.082100    27A     -1.067992
      28A     -1.021358    29A     -0.935035    30A     -0.909366
      31A     -0.877048    32A     -0.832350    33A     -0.811792
      34A     -0.763321    35A     -0.752764    36A     -0.736416
      37A     -0.719610    38A     -0.702932    39A     -0.698633
      40A     -0.679250    41A     -0.671121    42A     -0.654362
      43A     -0.651905    44A     -0.637965    45A     -0.619783
      46A     -0.613730    47A     -0.604148    48A     -0.594300
      49A     -0.576210    50A     -0.569534    51A     -0.554633
      52A     -0.546197    53A     -0.538228    54A     -0.532329
      55A     -0.498560    56A     -0.477776    57A     -0.474755
      58A     -0.462541    59A     -0.460517    60A     -0.453110
      61A     -0.440951    62A     -0.433809    63A     -0.397099
      64A     -0.350512

  @DF-RHF Final Energy:  -886.36945599307796

   => Energetics <=

    Nuclear Repulsion Energy =           1323.5577055166161244
    One-Electron Energy =               -3844.7670608138864736
    Two-Electron Energy =                1634.8398993041921585
    Total Energy =                       -886.3694559930779633
  Basis Set: (AUG-CC-PVTZ AUX)
    Blend: AUG-CC-PVTZ-RI
    Molecular point group: c1

    Geometry (in Angstrom), charge = 0, multiplicity = 1:

       Center              X                  Y                   Z               Mass
    ------------   -----------------  -----------------  -----------------  -----------------
         O           -1.248159479661    -0.652809307702     1.031912208049    15.994914619570
         O           -1.245033479661     2.482709692298    -0.686765791951    15.994914619570
         O           -3.216588479661     1.520957692298     0.744284208049    15.994914619570
         O           -2.357087479661    -3.066978307702     0.094337208049    15.994914619570
         O            1.360471520339     2.246892692298    -0.077144791951    15.994914619570
         N            0.843345520339     0.045081692298     0.255340208049    14.003074004430
         N            3.057167520339     0.720361692298    -0.294329791951    14.003074004430
         N            4.716404520339    -0.836796307702    -0.572900791951    14.003074004430
         C           -1.289542479661     1.078288692298    -0.592679791951    12.000000000000
         C           -2.715229479661     0.655065692298    -0.257995791951    12.000000000000
         C           -0.525466479661     0.481378692298     0.599491208049    12.000000000000
         C           -2.529314479661    -0.717027307702     0.360453208049    12.000000000000
         C           -2.528402479661    -1.850534307702    -0.639892791951    12.000000000000
         C            1.219716520339    -1.261549307702     0.310671208049    12.000000000000
         C            1.755535520339     1.067293692298    -0.060005791951    12.000000000000
         C            2.511042520339    -1.609281307702     0.046392208049    12.000000000000
         C            3.411924520339    -0.550794307702    -0.259527791951    12.000000000000
         H           -0.937664479661     0.591262692298    -1.515493791951     1.007825032230
         H           -3.362640479661     0.642523692298    -1.147067791951     1.007825032230
         H           -0.440348479661     1.221738692298     1.403395208049     1.007825032230
         H           -3.282015479661    -0.908875307702     1.130180208049     1.007825032230
         H           -1.713366479661    -1.700446307702    -1.370066791951     1.007825032230
         H           -3.485619479661    -1.834145307702    -1.184737791951     1.007825032230
         H           -0.297583479661     2.713037692298    -0.525602791951     1.007825032230
         H           -2.847614479661     2.399601692298     0.508060208049     1.007825032230
         H            0.434252520339    -1.963578307702     0.568465208049     1.007825032230
         H           -2.433932479661    -3.798573307702    -0.543835791951     1.007825032230
         H            2.829053520339    -2.645539307702     0.073319208049     1.007825032230
         H            5.125121520339    -1.671002307702    -0.163016791951     1.007825032230
         H            5.333852520339     0.013890292298    -0.423502691951     1.007825032230

  Basis Set: AUG-CC-PVTZ
    Blend: AUG-CC-PVTZ
  Basis Set: (AUG-CC-PVTZ AUX)
    Blend: AUG-CC-PVTZ-JKFIT
	 Reference Energy          =    -886.3694559930779633 [Eh]
	 Singles Energy            =      -0.0000000000000000 [Eh]
	 Same-Spin Energy          =      -0.9015943182541489 [Eh]
	 Opposite-Spin Energy      =      -2.7159004323139748 [Eh]
	 Correlation Energy        =      -3.6174947505681239 [Eh]
	 Total Energy              =    -889.9869507436460481 [Eh]

	 ================> DF-SCS-MP2 Energies <==================
	-----------------------------------------------------------
	 SCS Same-Spin Scale       =       0.3333333333333333 [-]
	 SCS Opposite-Spin Scale   =       1.2000000000000000 [-]
	 SCS Same-Spin Energy      =      -0.3005314394180496 [Eh]
	 SCS Opposite-Spin Energy  =      -3.2590805187767695 [Eh]
	 SCS Correlation Energy    =      -3.5596119581948189 [Eh]
	 SCS Total Energy          =    -889.9290679512728275 [Eh]
	-----------------------------------------------------------

  Dipole Moment: [D]
     X:     1.6125      Y:    -5.9218      Z:    -1.6313     Total:     6.3505

*** Psi4 exiting successfully. Buy a developer a beer!
