                               Psi4 1.3.2 release

  ==> Input File <==

--------------------------------------------------------------------------
#psi4
#
memory 32 gb

molecule  {
0 1
  O       -1.2481010    -0.6526680     1.0325150
  O       -1.2449750     2.4828510    -0.6861630
  O       -3.2165300     1.5210990     0.7448870
  O       -2.3570290    -3.0668370     0.0949400
  O        1.3605300     2.2470340    -0.0765420
  N        0.8434040     0.0452230     0.2559430
  N        3.0572260     0.7205030    -0.2937270
  N        4.7164630    -0.8366550    -0.5722980
  C       -1.2894840     1.0784300    -0.5920770
  C       -2.7151710     0.6552070    -0.2573930
  C       -0.5254080     0.4815200     0.6000940
  C       -2.5292560    -0.7168860     0.3610560
  C       -2.5283440    -1.8503930    -0.6392900
  C        1.2197750    -1.2614080     0.3112740
  C        1.8063852     1.0863907     0.1331092
  C        2.5111010    -1.6091400     0.0469950
  C        3.4119830    -0.5506530    -0.2589250
  H       -0.9376060     0.5914040    -1.5148910
  H       -3.3625820     0.6426650    -1.1464650
  H       -0.4402900     1.2218800     1.4039980
  H       -3.2819570    -0.9087340     1.1307830
  H       -1.7133080    -1.7003050    -1.3694640
  H       -3.4855610    -1.8340040    -1.1841350
  H       -0.2975250     2.7131790    -0.5250000
  H       -2.8475560     2.3997430     0.5086630
  H        0.4343110    -1.9634370     0.5690680
  H       -2.4338740    -3.7984320    -0.5432330
  H        2.8291120    -2.6453980     0.0739220
  H        5.1251800    -1.6708610    -0.1624140
  H        5.3198140    -0.0200540    -0.5682940
units angstrom
no_reorient  #important for SAPT in psi4, default
symmetry c1  #important for SAPT in psi4, default
}

set PROPERTIES_ORIGIN ["COM"]
properties('MP2/aug-cc-pvtz', properties = ['dipole'])
--------------------------------------------------------------------------

    Molecular point group: c1
  Charge       = 0
  Multiplicity = 1
  Basis Set: AUG-CC-PVTZ
    Blend: AUG-CC-PVTZ
  Basis Set: (AUG-CC-PVTZ AUX)
    Blend: AUG-CC-PVTZ-JKFIT

    Orbital Energies [Eh]
    ---------------------

    Doubly Occupied:

       1A    -20.581702     2A    -20.580981     3A    -20.557028
       4A    -20.556191     5A    -20.522361     6A    -15.637329
       7A    -15.599835     8A    -15.555325     9A    -11.393143
      10A    -11.358868    11A    -11.340823    12A    -11.328345
      13A    -11.300460    14A    -11.296106    15A    -11.294942
      16A    -11.291874    17A    -11.249040    18A     -1.427727
      19A     -1.390074    20A     -1.379131    21A     -1.371952
      22A     -1.345175    23A     -1.302441    24A     -1.271761
      25A     -1.181747    26A     -1.081296    27A     -1.066695
      28A     -1.020069    29A     -0.934737    30A     -0.906002
      31A     -0.876943    32A     -0.830965    33A     -0.811061
      34A     -0.765499    35A     -0.751657    36A     -0.734229
      37A     -0.719986    38A     -0.701442    39A     -0.697315
      40A     -0.685245    41A     -0.672239    42A     -0.652048
      43A     -0.650421    44A     -0.637838    45A     -0.621920
      46A     -0.611300    47A     -0.605536    48A     -0.591160
      49A     -0.574517    50A     -0.568996    51A     -0.552659
      52A     -0.546224    53A     -0.535897    54A     -0.530091
      55A     -0.496211    56A     -0.476761    57A     -0.473498
      58A     -0.461113    59A     -0.458574    60A     -0.451620
      61A     -0.439444    62A     -0.434782    63A     -0.391335
      64A     -0.349548

  @DF-RHF Final Energy:  -886.35493685813515

   => Energetics <=

    Nuclear Repulsion Energy =           1322.4908395583506717
    One-Electron Energy =               -3842.7290803649557347
    Two-Electron Energy =                1633.8833039484700294
    Total Energy =                       -886.3549368581350336
  Basis Set: (AUG-CC-PVTZ AUX)
    Blend: AUG-CC-PVTZ-RI
    Molecular point group: c1

    Geometry (in Angstrom), charge = 0, multiplicity = 1:

       Center              X                  Y                   Z               Mass
    ------------   -----------------  -----------------  -----------------  -----------------
         O           -1.250608358925    -0.653603744486     1.023011576775    15.994914619570
         O           -1.247482358925     2.481915255514    -0.695666423225    15.994914619570
         O           -3.219037358925     1.520163255514     0.735383576775    15.994914619570
         O           -2.359536358925    -3.067772744486     0.085436576775    15.994914619570
         O            1.358022641075     2.246098255514    -0.086045423225    15.994914619570
         N            0.840896641075     0.044287255514     0.246439576775    14.003074004430
         N            3.054718641075     0.719567255514    -0.303230423225    14.003074004430
         N            4.713955641075    -0.837590744486    -0.581801423225    14.003074004430
         C           -1.291991358925     1.077494255514    -0.601580423225    12.000000000000
         C           -2.717678358925     0.654271255514    -0.266896423225    12.000000000000
         C           -0.527915358925     0.480584255514     0.590590576775    12.000000000000
         C           -2.531763358925    -0.717821744486     0.351552576775    12.000000000000
         C           -2.530851358925    -1.851328744486    -0.648793423225    12.000000000000
         C            1.217267641075    -1.262343744486     0.301770576775    12.000000000000
         C            1.803877841075     1.085454955514     0.123605776775    12.000000000000
         C            2.508593641075    -1.610075744486     0.037491576775    12.000000000000
         C            3.409475641075    -0.551588744486    -0.268428423225    12.000000000000
         H           -0.940113358925     0.590468255514    -1.524394423225     1.007825032230
         H           -3.365089358925     0.641729255514    -1.155968423225     1.007825032230
         H           -0.442797358925     1.220944255514     1.394494576775     1.007825032230
         H           -3.284464358925    -0.909669744486     1.121279576775     1.007825032230
         H           -1.715815358925    -1.701240744486    -1.378967423225     1.007825032230
         H           -3.488068358925    -1.834939744486    -1.193638423225     1.007825032230
         H           -0.300032358925     2.712243255514    -0.534503423225     1.007825032230
         H           -2.850063358925     2.398807255514     0.499159576775     1.007825032230
         H            0.431803641075    -1.964372744486     0.559564576775     1.007825032230
         H           -2.436381358925    -3.799367744486    -0.552736423225     1.007825032230
         H            2.826604641075    -2.646333744486     0.064418576775     1.007825032230
         H            5.122672641075    -1.671796744486    -0.171917423225     1.007825032230
         H            5.317306641075    -0.020989744486    -0.577797423225     1.007825032230

  Basis Set: AUG-CC-PVTZ
    Blend: AUG-CC-PVTZ
  Basis Set: (AUG-CC-PVTZ AUX)
    Blend: AUG-CC-PVTZ-JKFIT
	 Reference Energy          =    -886.3549368581351473 [Eh]
	 Singles Energy            =      -0.0000000000000000 [Eh]
	 Same-Spin Energy          =      -0.9024075198581021 [Eh]
	 Opposite-Spin Energy      =      -2.7175342767787769 [Eh]
	 Correlation Energy        =      -3.6199417966368790 [Eh]
	 Total Energy              =    -889.9748786547720556 [Eh]

	 ================> DF-SCS-MP2 Energies <==================
	-----------------------------------------------------------
	 SCS Same-Spin Scale       =       0.3333333333333333 [-]
	 SCS Opposite-Spin Scale   =       1.2000000000000000 [-]
	 SCS Same-Spin Energy      =      -0.3008025066193674 [Eh]
	 SCS Opposite-Spin Energy  =      -3.2610411321345323 [Eh]
	 SCS Correlation Energy    =      -3.5618436387538996 [Eh]
	 SCS Total Energy          =    -889.9167804968890323 [Eh]
	-----------------------------------------------------------

  Dipole Moment: [D]
     X:     1.8220      Y:    -5.9531      Z:    -1.6197     Total:     6.4329

*** Psi4 exiting successfully. Buy a developer a beer!
