                               Psi4 1.3.2 release

  ==> Input File <==

--------------------------------------------------------------------------
#psi4
#
memory 32 gb

molecule  {
0 1
  O       -1.2481010    -0.6526680     1.0325150
  O       -1.2449750     2.4828510    -0.6861630
  O       -3.2165300     1.5210990     0.7448870
  O       -2.3570290    -3.0668370     0.0949400
  O        1.3605300     2.2470340    -0.0765420
  N        0.8434040     0.0452230     0.2559430
  N        3.0995936     0.7399220    -0.0992331
  N        4.7164630    -0.8366550    -0.5722980
  C       -1.2894840     1.0784300    -0.5920770
  C       -2.7151710     0.6552070    -0.2573930
  C       -0.5254080     0.4815200     0.6000940
  C       -2.5292560    -0.7168860     0.3610560
  C       -2.5283440    -1.8503930    -0.6392900
  C        1.2197750    -1.2614080     0.3112740
  C        1.7555940     1.0674350    -0.0594030
  C        2.5111010    -1.6091400     0.0469950
  C        3.4119830    -0.5506530    -0.2589250
  H       -0.9376060     0.5914040    -1.5148910
  H       -3.3625820     0.6426650    -1.1464650
  H       -0.4402900     1.2218800     1.4039980
  H       -3.2819570    -0.9087340     1.1307830
  H       -1.7133080    -1.7003050    -1.3694640
  H       -3.4855610    -1.8340040    -1.1841350
  H       -0.2975250     2.7131790    -0.5250000
  H       -2.8475560     2.3997430     0.5086630
  H        0.4343110    -1.9634370     0.5690680
  H       -2.4338740    -3.7984320    -0.5432330
  H        2.8291120    -2.6453980     0.0739220
  H        5.1251800    -1.6708610    -0.1624140
  H        5.3198140    -0.0200540    -0.5682940
units angstrom
no_reorient  #important for SAPT in psi4, default
symmetry c1  #important for SAPT in psi4, default
}

set PROPERTIES_ORIGIN ["COM"]
properties('MP2/aug-cc-pvtz', properties = ['dipole'])
--------------------------------------------------------------------------

    Molecular point group: c1
  Charge       = 0
  Multiplicity = 1
  Basis Set: AUG-CC-PVTZ
    Blend: AUG-CC-PVTZ
  Basis Set: (AUG-CC-PVTZ AUX)
    Blend: AUG-CC-PVTZ-JKFIT

    Orbital Energies [Eh]
    ---------------------

    Doubly Occupied:

       1A    -20.582419     2A    -20.581846     3A    -20.558028
       4A    -20.557653     5A    -20.524474     6A    -15.637131
       7A    -15.600320     8A    -15.556126     9A    -11.389482
      10A    -11.359344    11A    -11.341991    12A    -11.328208
      13A    -11.301426    14A    -11.297160    15A    -11.297014
      16A    -11.293239    17A    -11.248695    18A     -1.429536
      19A     -1.396321    20A     -1.380379    21A     -1.373042
      22A     -1.346578    23A     -1.304371    24A     -1.272854
      25A     -1.177316    26A     -1.081645    27A     -1.067988
      28A     -1.021449    29A     -0.934816    30A     -0.909404
      31A     -0.872933    32A     -0.832091    33A     -0.811899
      34A     -0.763816    35A     -0.752303    36A     -0.736255
      37A     -0.720819    38A     -0.703244    39A     -0.698771
      40A     -0.686312    41A     -0.673221    42A     -0.655344
      43A     -0.651124    44A     -0.638104    45A     -0.618550
      46A     -0.614522    47A     -0.606715    48A     -0.595598
      49A     -0.575431    50A     -0.568876    51A     -0.553652
      52A     -0.544255    53A     -0.535887    54A     -0.529559
      55A     -0.499598    56A     -0.477946    57A     -0.475264
      58A     -0.462257    59A     -0.461324    60A     -0.453205
      61A     -0.441413    62A     -0.432197    63A     -0.394152
      64A     -0.349553

  @DF-RHF Final Energy:  -886.36471703107168

   => Energetics <=

    Nuclear Repulsion Energy =           1322.7957916007401309
    One-Electron Energy =               -3843.2481227443499847
    Two-Electron Energy =                1634.0876141125379490
    Total Energy =                       -886.3647170310716774
  Basis Set: (AUG-CC-PVTZ AUX)
    Blend: AUG-CC-PVTZ-RI
    Molecular point group: c1

    Geometry (in Angstrom), charge = 0, multiplicity = 1:

       Center              X                  Y                   Z               Mass
    ------------   -----------------  -----------------  -----------------  -----------------
         O           -1.250541642644    -0.653786631949     1.021311080282    15.994914619570
         O           -1.247415642644     2.481732368051    -0.697366919718    15.994914619570
         O           -3.218970642644     1.519980368051     0.733683080282    15.994914619570
         O           -2.359469642644    -3.067955631949     0.083736080282    15.994914619570
         O            1.358089357356     2.245915368051    -0.087745919718    15.994914619570
         N            0.840963357356     0.044104368051     0.244739080282    14.003074004430
         N            3.097152957356     0.738803368051    -0.110437019718    14.003074004430
         N            4.714022357356    -0.837773631949    -0.583501919718    14.003074004430
         C           -1.291924642644     1.077311368051    -0.603280919718    12.000000000000
         C           -2.717611642644     0.654088368051    -0.268596919718    12.000000000000
         C           -0.527848642644     0.480401368051     0.588890080282    12.000000000000
         C           -2.531696642644    -0.718004631949     0.349852080282    12.000000000000
         C           -2.530784642644    -1.851511631949    -0.650493919718    12.000000000000
         C            1.217334357356    -1.262526631949     0.300070080282    12.000000000000
         C            1.753153357356     1.066316368051    -0.070606919718    12.000000000000
         C            2.508660357356    -1.610258631949     0.035791080282    12.000000000000
         C            3.409542357356    -0.551771631949    -0.270128919718    12.000000000000
         H           -0.940046642644     0.590285368051    -1.526094919718     1.007825032230
         H           -3.365022642644     0.641546368051    -1.157668919718     1.007825032230
         H           -0.442730642644     1.220761368051     1.392794080282     1.007825032230
         H           -3.284397642644    -0.909852631949     1.119579080282     1.007825032230
         H           -1.715748642644    -1.701423631949    -1.380667919718     1.007825032230
         H           -3.488001642644    -1.835122631949    -1.195338919718     1.007825032230
         H           -0.299965642644     2.712060368051    -0.536203919718     1.007825032230
         H           -2.849996642644     2.398624368051     0.497459080282     1.007825032230
         H            0.431870357356    -1.964555631949     0.557864080282     1.007825032230
         H           -2.436314642644    -3.799550631949    -0.554436919718     1.007825032230
         H            2.826671357356    -2.646516631949     0.062718080282     1.007825032230
         H            5.122739357356    -1.671979631949    -0.173617919718     1.007825032230
         H            5.317373357356    -0.021172631949    -0.579497919718     1.007825032230

  Basis Set: AUG-CC-PVTZ
    Blend: AUG-CC-PVTZ
  Basis Set: (AUG-CC-PVTZ AUX)
    Blend: AUG-CC-PVTZ-JKFIT
	 Reference Energy          =    -886.3647170310716774 [Eh]
	 Singles Energy            =      -0.0000000000000000 [Eh]
	 Same-Spin Energy          =      -0.9018114007607938 [Eh]
	 Opposite-Spin Energy      =      -2.7164239037172857 [Eh]
	 Correlation Energy        =      -3.6182353044780795 [Eh]
	 Total Energy              =    -889.9829523355497258 [Eh]

	 ================> DF-SCS-MP2 Energies <==================
	-----------------------------------------------------------
	 SCS Same-Spin Scale       =       0.3333333333333333 [-]
	 SCS Opposite-Spin Scale   =       1.2000000000000000 [-]
	 SCS Same-Spin Energy      =      -0.3006038002535979 [Eh]
	 SCS Opposite-Spin Energy  =      -3.2597086844607426 [Eh]
	 SCS Correlation Energy    =      -3.5603124847143404 [Eh]
	 SCS Total Energy          =    -889.9250295157860364 [Eh]
	-----------------------------------------------------------

  Dipole Moment: [D]
     X:     1.6213      Y:    -5.9287      Z:    -2.0825     Total:     6.4896

*** Psi4 exiting successfully. Buy a developer a beer!
