                               Psi4 1.4a3.dev225

  ==> Input File <==

--------------------------------------------------------------------------
#psi4
#
memory 32 gb

molecule  {
0 1
  F       -1.6012940    -0.1166020     1.0531380
  F        0.9015100    -1.3283660     1.0533570
  F        0.6995270     1.4450080     1.0533050
  C       -1.4600740    -0.1063430    -0.3396260
  C        0.8221700    -1.2113200    -0.3394270
  C        0.5187541     1.2556859    -0.4247192
  C       -0.6367970    -1.3153920    -0.7539820
  C       -0.8206640     1.2092170    -0.7540300
  C        1.4576450     0.1061460    -0.7538300
  H       -2.4709910    -0.1799750    -0.7606130
  H        1.3914430    -2.0500220    -0.7602750
  H        1.0797340     2.2299680    -0.7603550
  H       -0.6879950    -1.4213320    -1.8456750
  H       -1.0732430    -2.2167570    -0.3126710
  H       -1.3831040     2.0378510    -0.3127500
  H       -0.8866680     1.3065820    -1.8457260
  H        2.4564240     0.1788940    -0.3124150
  H        1.5751120     0.1146800    -1.8455110
units angstrom
no_reorient  #important for SAPT in psi4, default
symmetry c1  #important for SAPT in psi4, default
}

set PROPERTIES_ORIGIN ["COM"]
properties('MP2/aug-cc-pvtz', properties = ['dipole'])
--------------------------------------------------------------------------

    Molecular point group: c1
  Charge       = 0
  Multiplicity = 1
  Basis Set: AUG-CC-PVTZ
    Blend: AUG-CC-PVTZ
  Basis Set: (AUG-CC-PVTZ AUX)
    Blend: AUG-CC-PVTZ-JKFIT

    Orbital Energies [Eh]
    ---------------------

    Doubly Occupied:

       1A    -26.267994     2A    -26.264910     3A    -26.239466
       4A    -11.325269     5A    -11.324182     6A    -11.320402
       7A    -11.249236     8A    -11.247081     9A    -11.245110
      10A     -1.580805    11A     -1.573350    12A     -1.527989
      13A     -1.157611    14A     -1.054194    15A     -1.033828
      16A     -0.882543    17A     -0.864065    18A     -0.771386
      19A     -0.745028    20A     -0.697112    21A     -0.687311
      22A     -0.673296    23A     -0.670813    24A     -0.654806
      25A     -0.635665    26A     -0.630576    27A     -0.627374
      28A     -0.578127    29A     -0.561555    30A     -0.554399
      31A     -0.543781    32A     -0.535570    33A     -0.524825
      34A     -0.522687    35A     -0.470299    36A     -0.441734

  @DF-RHF Final Energy:  -530.93426050532662

   => Energetics <=

    Nuclear Repulsion Energy =            526.5776964701503857
    One-Electron Energy =               -1779.6551553144693116
    Two-Electron Energy =                 722.1431983389923062
    Total Energy =                       -530.9342605053266198
  Basis Set: (AUG-CC-PVTZ AUX)
    Blend: AUG-CC-PVTZ-RI
    Molecular point group: c1

    Geometry (in Angstrom), charge = 0, multiplicity = 1:

       Center              X                  Y                   Z               Mass
    ------------   -----------------  -----------------  -----------------  -----------------
         F           -1.590923890012    -0.111217422341     0.974774712719    18.998403162730
         F            0.911880109988    -1.322981422341     0.974993712719    18.998403162730
         F            0.709897109988     1.450392577659     0.974941712719    18.998403162730
         C           -1.449703890012    -0.100958422341    -0.417989287281    12.000000000000
         C            0.832540109988    -1.205935422341    -0.417790287281    12.000000000000
         C            0.529124209988     1.261070477659    -0.503082487281    12.000000000000
         C           -0.626426890012    -1.310007422341    -0.832345287281    12.000000000000
         C           -0.810293890012     1.214601577659    -0.832393287281    12.000000000000
         C            1.468015109988     0.111530577659    -0.832193287281    12.000000000000
         H           -2.460620890012    -0.174590422341    -0.838976287281     1.007825032230
         H            1.401813109988    -2.044637422341    -0.838638287281     1.007825032230
         H            1.090104109988     2.235352577659    -0.838718287281     1.007825032230
         H           -0.677624890012    -1.415947422341    -1.924038287281     1.007825032230
         H           -1.062872890012    -2.211372422341    -0.391034287281     1.007825032230
         H           -1.372733890012     2.043235577659    -0.391113287281     1.007825032230
         H           -0.876297890012     1.311966577659    -1.924089287281     1.007825032230
         H            2.466794109988     0.184278577659    -0.390778287281     1.007825032230
         H            1.585482109988     0.120064577659    -1.923874287281     1.007825032230

  Basis Set: AUG-CC-PVTZ
    Blend: AUG-CC-PVTZ
  Basis Set: (AUG-CC-PVTZ AUX)
    Blend: AUG-CC-PVTZ-JKFIT
	 Reference Energy          =    -530.9342605053266198 [Eh]
	 Singles Energy            =      -0.0000000000000000 [Eh]
	 Same-Spin Energy          =      -0.4723979908346363 [Eh]
	 Opposite-Spin Energy      =      -1.4912800813991089 [Eh]
	 Correlation Energy        =      -1.9636780722337452 [Eh]
	 Total Energy              =    -532.8979385775603532 [Eh]

	 ================> DF-SCS-MP2 Energies <==================
	-----------------------------------------------------------
	 SCS Same-Spin Scale       =       0.3333333333333333 [-]
	 SCS Opposite-Spin Scale   =       1.2000000000000000 [-]
	 SCS Same-Spin Energy      =      -0.1574659969448788 [Eh]
	 SCS Opposite-Spin Energy  =      -1.7895360976789307 [Eh]
	 SCS Correlation Energy    =      -1.9470020946238096 [Eh]
	 SCS Total Energy          =    -532.8812625999504462 [Eh]
	-----------------------------------------------------------

  Dipole Moment: [D]
     X:    -0.3007      Y:    -0.1939      Z:    -5.6104     Total:     5.6218

*** Psi4 exiting successfully. Buy a developer a beer!
