                               Psi4 1.4a3.dev225

  ==> Input File <==

--------------------------------------------------------------------------
#psi4
#
memory 32 gb

molecule  {
0 1
  F       -1.6012940    -0.1166020     1.0531380
  F        0.9015100    -1.3283660     1.0533570
  F        0.6995270     1.4450080     1.0533050
  C       -1.4701616    -0.1070758    -0.2401388
  C        0.8221700    -1.2113200    -0.3394270
  C        0.6379870     1.3176500    -0.3394740
  C       -0.6367970    -1.3153920    -0.7539820
  C       -0.8206640     1.2092170    -0.7540300
  C        1.4576450     0.1061460    -0.7538300
  H       -2.4709910    -0.1799750    -0.7606130
  H        1.3914430    -2.0500220    -0.7602750
  H        1.0797340     2.2299680    -0.7603550
  H       -0.6879950    -1.4213320    -1.8456750
  H       -1.0732430    -2.2167570    -0.3126710
  H       -1.3831040     2.0378510    -0.3127500
  H       -0.8866680     1.3065820    -1.8457260
  H        2.4564240     0.1788940    -0.3124150
  H        1.5751120     0.1146800    -1.8455110
units angstrom
no_reorient  #important for SAPT in psi4, default
symmetry c1  #important for SAPT in psi4, default
}

set PROPERTIES_ORIGIN ["COM"]
properties('MP2/aug-cc-pvtz', properties = ['dipole'])
--------------------------------------------------------------------------

    Molecular point group: c1
  Charge       = 0
  Multiplicity = 1
  Basis Set: AUG-CC-PVTZ
    Blend: AUG-CC-PVTZ
  Basis Set: (AUG-CC-PVTZ AUX)
    Blend: AUG-CC-PVTZ-JKFIT

    Orbital Energies [Eh]
    ---------------------

    Doubly Occupied:

       1A    -26.290356     2A    -26.265605     3A    -26.265603
       4A    -11.322446     5A    -11.317649     6A    -11.317642
       7A    -11.242216     8A    -11.240814     9A    -11.240801
      10A     -1.633464    11A     -1.579055    12A     -1.573088
      13A     -1.129336    14A     -1.027960    15A     -1.024660
      16A     -0.873598    17A     -0.867170    18A     -0.790893
      19A     -0.752326    20A     -0.714404    21A     -0.709633
      22A     -0.681925    23A     -0.673505    24A     -0.659192
      25A     -0.656982    26A     -0.650260    27A     -0.644464
      28A     -0.581913    29A     -0.563194    30A     -0.547651
      31A     -0.547104    32A     -0.521674    33A     -0.517057
      34A     -0.511308    35A     -0.443657    36A     -0.440691

  @DF-RHF Final Energy:  -530.95843037673615

   => Energetics <=

    Nuclear Repulsion Energy =            526.4519732220210244
    One-Electron Energy =               -1779.1822086281042630
    Two-Electron Energy =                 721.7718050293470924
    Total Energy =                       -530.9584303767361462
  Basis Set: (AUG-CC-PVTZ AUX)
    Blend: AUG-CC-PVTZ-RI
    Molecular point group: c1

    Geometry (in Angstrom), charge = 0, multiplicity = 1:

       Center              X                  Y                   Z               Mass
    ------------   -----------------  -----------------  -----------------  -----------------
         F           -1.600410273804    -0.116539352025     0.958718662250    18.998403162730
         F            0.902393726196    -1.328303352025     0.958937662250    18.998403162730
         F            0.700410726196     1.445070647975     0.958885662250    18.998403162730
         C           -1.469277873804    -0.107013152025    -0.334558137750    12.000000000000
         C            0.823053726196    -1.211257352025    -0.433846337750    12.000000000000
         C            0.638870726196     1.317712647975    -0.433893337750    12.000000000000
         C           -0.635913273804    -1.315329352025    -0.848401337750    12.000000000000
         C           -0.819780273804     1.209279647975    -0.848449337750    12.000000000000
         C            1.458528726196     0.106208647975    -0.848249337750    12.000000000000
         H           -2.470107273804    -0.179912352025    -0.855032337750     1.007825032230
         H            1.392326726196    -2.049959352025    -0.854694337750     1.007825032230
         H            1.080617726196     2.230030647975    -0.854774337750     1.007825032230
         H           -0.687111273804    -1.421269352025    -1.940094337750     1.007825032230
         H           -1.072359273804    -2.216694352025    -0.407090337750     1.007825032230
         H           -1.382220273804     2.037913647975    -0.407169337750     1.007825032230
         H           -0.885784273804     1.306644647975    -1.940145337750     1.007825032230
         H            2.457307726196     0.178956647975    -0.406834337750     1.007825032230
         H            1.575995726196     0.114742647975    -1.939930337750     1.007825032230

  Basis Set: AUG-CC-PVTZ
    Blend: AUG-CC-PVTZ
  Basis Set: (AUG-CC-PVTZ AUX)
    Blend: AUG-CC-PVTZ-JKFIT
	 Reference Energy          =    -530.9584303767361462 [Eh]
	 Singles Energy            =      -0.0000000000000000 [Eh]
	 Same-Spin Energy          =      -0.4696379818198107 [Eh]
	 Opposite-Spin Energy      =      -1.4848074630227719 [Eh]
	 Correlation Energy        =      -1.9544454448425825 [Eh]
	 Total Energy              =    -532.9128758215787229 [Eh]

	 ================> DF-SCS-MP2 Energies <==================
	-----------------------------------------------------------
	 SCS Same-Spin Scale       =       0.3333333333333333 [-]
	 SCS Opposite-Spin Scale   =       1.2000000000000000 [-]
	 SCS Same-Spin Energy      =      -0.1565459939399369 [Eh]
	 SCS Opposite-Spin Energy  =      -1.7817689556273262 [Eh]
	 SCS Correlation Energy    =      -1.9383149495672631 [Eh]
	 SCS Total Energy          =    -532.8967453263034031 [Eh]
	-----------------------------------------------------------

  Dipole Moment: [D]
     X:    -0.1041      Y:    -0.0077      Z:    -4.8019     Total:     4.8031

*** Psi4 exiting successfully. Buy a developer a beer!
