                               Psi4 1.4a3.dev225

  ==> Input File <==

--------------------------------------------------------------------------
#psi4
#
memory 32 gb

molecule  {
0 1
  F       -1.6012940    -0.1166020     1.0531380
  F        0.9015100    -1.3283660     1.0533570
  F        0.6995270     1.4450080     1.0533050
  C       -1.4600740    -0.1063430    -0.3396260
  C        0.8145807    -1.2092502    -0.3140862
  C        0.6379870     1.3176500    -0.3394740
  C       -0.6367970    -1.3153920    -0.7539820
  C       -0.8206640     1.2092170    -0.7540300
  C        1.4576450     0.1061460    -0.7538300
  H       -2.4709910    -0.1799750    -0.7606130
  H        1.3914430    -2.0500220    -0.7602750
  H        1.0797340     2.2299680    -0.7603550
  H       -0.6879950    -1.4213320    -1.8456750
  H       -1.0732430    -2.2167570    -0.3126710
  H       -1.3831040     2.0378510    -0.3127500
  H       -0.8866680     1.3065820    -1.8457260
  H        2.4564240     0.1788940    -0.3124150
  H        1.5751120     0.1146800    -1.8455110
units angstrom
no_reorient  #important for SAPT in psi4, default
symmetry c1  #important for SAPT in psi4, default
}

set PROPERTIES_ORIGIN ["COM"]
properties('MP2/aug-cc-pvtz', properties = ['dipole'])
--------------------------------------------------------------------------

    Molecular point group: c1
  Charge       = 0
  Multiplicity = 1
  Basis Set: AUG-CC-PVTZ
    Blend: AUG-CC-PVTZ
  Basis Set: (AUG-CC-PVTZ AUX)
    Blend: AUG-CC-PVTZ-JKFIT

    Orbital Energies [Eh]
    ---------------------

    Doubly Occupied:

       1A    -26.271320     2A    -26.265527     3A    -26.265337
       4A    -11.320472     5A    -11.319584     6A    -11.319357
       7A    -11.243678     8A    -11.243235     9A    -11.243210
      10A     -1.590439    11A     -1.577393    12A     -1.572825
      13A     -1.135606    14A     -1.032258    15A     -1.030768
      16A     -0.870848    17A     -0.870247    18A     -0.781846
      19A     -0.746396    20A     -0.700862    21A     -0.698741
      22A     -0.673973    23A     -0.660238    24A     -0.658957
      25A     -0.657731    26A     -0.644065    27A     -0.642713
      28A     -0.583122    29A     -0.560240    30A     -0.548205
      31A     -0.547928    32A     -0.524406    33A     -0.522809
      34A     -0.519092    35A     -0.452636    36A     -0.450605

  @DF-RHF Final Energy:  -530.96541595097551

   => Energetics <=

    Nuclear Repulsion Energy =            525.9108987951830159
    One-Electron Energy =               -1778.2592919248609178
    Two-Electron Energy =                 721.3829771787022764
    Total Energy =                       -530.9654159509755118
  Basis Set: (AUG-CC-PVTZ AUX)
    Blend: AUG-CC-PVTZ-RI
    Molecular point group: c1

    Geometry (in Angstrom), charge = 0, multiplicity = 1:

       Center              X                  Y                   Z               Mass
    ------------   -----------------  -----------------  -----------------  -----------------
         F           -1.600627414007    -0.116782940519     0.965163110222    18.998403162730
         F            0.902176585993    -1.328546940519     0.965382110222    18.998403162730
         F            0.700193585993     1.444827059481     0.965330110222    18.998403162730
         C           -1.459407414007    -0.106523940519    -0.427600889778    12.000000000000
         C            0.815247285993    -1.209431140519    -0.402061089778    12.000000000000
         C            0.638653585993     1.317469059481    -0.427448889778    12.000000000000
         C           -0.636130414007    -1.315572940519    -0.841956889778    12.000000000000
         C           -0.819997414007     1.209036059481    -0.842004889778    12.000000000000
         C            1.458311585993     0.105965059481    -0.841804889778    12.000000000000
         H           -2.470324414007    -0.180155940519    -0.848587889778     1.007825032230
         H            1.392109585993    -2.050202940519    -0.848249889778     1.007825032230
         H            1.080400585993     2.229787059481    -0.848329889778     1.007825032230
         H           -0.687328414007    -1.421512940519    -1.933649889778     1.007825032230
         H           -1.072576414007    -2.216937940519    -0.400645889778     1.007825032230
         H           -1.382437414007     2.037670059481    -0.400724889778     1.007825032230
         H           -0.886001414007     1.306401059481    -1.933700889778     1.007825032230
         H            2.457090585993     0.178713059481    -0.400389889778     1.007825032230
         H            1.575778585993     0.114499059481    -1.933485889778     1.007825032230

  Basis Set: AUG-CC-PVTZ
    Blend: AUG-CC-PVTZ
  Basis Set: (AUG-CC-PVTZ AUX)
    Blend: AUG-CC-PVTZ-JKFIT
	 Reference Energy          =    -530.9654159509755118 [Eh]
	 Singles Energy            =      -0.0000000000000000 [Eh]
	 Same-Spin Energy          =      -0.4699272013889891 [Eh]
	 Opposite-Spin Energy      =      -1.4861614561223437 [Eh]
	 Correlation Energy        =      -1.9560886575113328 [Eh]
	 Total Energy              =    -532.9215046084868845 [Eh]

	 ================> DF-SCS-MP2 Energies <==================
	-----------------------------------------------------------
	 SCS Same-Spin Scale       =       0.3333333333333333 [-]
	 SCS Opposite-Spin Scale   =       1.2000000000000000 [-]
	 SCS Same-Spin Energy      =      -0.1566424004629964 [Eh]
	 SCS Opposite-Spin Energy  =      -1.7833937473468124 [Eh]
	 SCS Correlation Energy    =      -1.9400361478098087 [Eh]
	 SCS Total Energy          =    -532.9054520987853039 [Eh]
	-----------------------------------------------------------

  Dipole Moment: [D]
     X:    -0.0037      Y:    -0.0143      Z:    -5.1257     Total:     5.1257

*** Psi4 exiting successfully. Buy a developer a beer!
