                               Psi4 1.4a3.dev225

  ==> Input File <==

--------------------------------------------------------------------------
#psi4
#
memory 32 gb

molecule  {
0 1
  F       -1.6012940    -0.1166020     1.0531380
  F        0.9015100    -1.3283660     1.0533570
  F        0.6995270     1.4450080     1.0533050
  C       -1.4600740    -0.1063430    -0.3396260
  C        0.8065493    -1.2072127    -0.2888795
  C        0.6379870     1.3176500    -0.3394740
  C       -0.6367970    -1.3153920    -0.7539820
  C       -0.8206640     1.2092170    -0.7540300
  C        1.4576450     0.1061460    -0.7538300
  H       -2.4709910    -0.1799750    -0.7606130
  H        1.3914430    -2.0500220    -0.7602750
  H        1.0797340     2.2299680    -0.7603550
  H       -0.6879950    -1.4213320    -1.8456750
  H       -1.0732430    -2.2167570    -0.3126710
  H       -1.3831040     2.0378510    -0.3127500
  H       -0.8866680     1.3065820    -1.8457260
  H        2.4564240     0.1788940    -0.3124150
  H        1.5751120     0.1146800    -1.8455110
units angstrom
no_reorient  #important for SAPT in psi4, default
symmetry c1  #important for SAPT in psi4, default
}

set PROPERTIES_ORIGIN ["COM"]
properties('MP2/aug-cc-pvtz', properties = ['dipole'])
--------------------------------------------------------------------------

    Molecular point group: c1
  Charge       = 0
  Multiplicity = 1
  Basis Set: AUG-CC-PVTZ
    Blend: AUG-CC-PVTZ
  Basis Set: (AUG-CC-PVTZ AUX)
    Blend: AUG-CC-PVTZ-JKFIT

    Orbital Energies [Eh]
    ---------------------

    Doubly Occupied:

       1A    -26.277387     2A    -26.265872     3A    -26.265468
       4A    -11.321134     5A    -11.319089     6A    -11.318620
       7A    -11.243360     8A    -11.242510     9A    -11.242492
      10A     -1.603064    11A     -1.578592    12A     -1.573092
      13A     -1.134540    14A     -1.031900    15A     -1.028860
      16A     -0.870803    17A     -0.869484    18A     -0.784435
      19A     -0.747704    20A     -0.704964    21A     -0.701408
      22A     -0.676774    23A     -0.663905    24A     -0.658948
      25A     -0.658528    26A     -0.646593    27A     -0.643830
      28A     -0.581933    29A     -0.562018    30A     -0.548387
      31A     -0.547709    32A     -0.524494    33A     -0.521115
      34A     -0.517213    35A     -0.450710    36A     -0.446386

  @DF-RHF Final Energy:  -530.96394065094455

   => Energetics <=

    Nuclear Repulsion Energy =            526.2893763960915976
    One-Electron Energy =               -1778.9599957084762991
    Two-Electron Energy =                 721.7066786614400371
    Total Energy =                       -530.9639406509445507
  Basis Set: (AUG-CC-PVTZ AUX)
    Blend: AUG-CC-PVTZ-RI
    Molecular point group: c1

    Geometry (in Angstrom), charge = 0, multiplicity = 1:

       Center              X                  Y                   Z               Mass
    ------------   -----------------  -----------------  -----------------  -----------------
         F           -1.599929363402    -0.116960030205     0.962972265262    18.998403162730
         F            0.902874636598    -1.328724030205     0.963191265262    18.998403162730
         F            0.700891636598     1.444649969795     0.963139265262    18.998403162730
         C           -1.458709363402    -0.106701030205    -0.429791734738    12.000000000000
         C            0.807913936598    -1.207570730205    -0.379045234738    12.000000000000
         C            0.639351636598     1.317291969795    -0.429639734738    12.000000000000
         C           -0.635432363402    -1.315750030205    -0.844147734738    12.000000000000
         C           -0.819299363402     1.208858969795    -0.844195734738    12.000000000000
         C            1.459009636598     0.105787969795    -0.843995734738    12.000000000000
         H           -2.469626363402    -0.180333030205    -0.850778734738     1.007825032230
         H            1.392807636598    -2.050380030205    -0.850440734738     1.007825032230
         H            1.081098636598     2.229609969795    -0.850520734738     1.007825032230
         H           -0.686630363402    -1.421690030205    -1.935840734738     1.007825032230
         H           -1.071878363402    -2.217115030205    -0.402836734738     1.007825032230
         H           -1.381739363402     2.037492969795    -0.402915734738     1.007825032230
         H           -0.885303363402     1.306223969795    -1.935891734738     1.007825032230
         H            2.457788636598     0.178535969795    -0.402580734738     1.007825032230
         H            1.576476636598     0.114321969795    -1.935676734738     1.007825032230

  Basis Set: AUG-CC-PVTZ
    Blend: AUG-CC-PVTZ
  Basis Set: (AUG-CC-PVTZ AUX)
    Blend: AUG-CC-PVTZ-JKFIT
	 Reference Energy          =    -530.9639406509445507 [Eh]
	 Singles Energy            =      -0.0000000000000000 [Eh]
	 Same-Spin Energy          =      -0.4698879893875415 [Eh]
	 Opposite-Spin Energy      =      -1.4857707518974563 [Eh]
	 Correlation Energy        =      -1.9556587412849979 [Eh]
	 Total Energy              =    -532.9195993922295429 [Eh]

	 ================> DF-SCS-MP2 Energies <==================
	-----------------------------------------------------------
	 SCS Same-Spin Scale       =       0.3333333333333333 [-]
	 SCS Opposite-Spin Scale   =       1.2000000000000000 [-]
	 SCS Same-Spin Energy      =      -0.1566293297958471 [Eh]
	 SCS Opposite-Spin Energy  =      -1.7829249022769476 [Eh]
	 SCS Correlation Energy    =      -1.9395542320727948 [Eh]
	 SCS Total Energy          =    -532.9034948830174017 [Eh]
	-----------------------------------------------------------

  Dipole Moment: [D]
     X:    -0.0103      Y:    -0.0268      Z:    -5.0249     Total:     5.0250

*** Psi4 exiting successfully. Buy a developer a beer!
