                               Psi4 1.4a3.dev225

  ==> Input File <==

--------------------------------------------------------------------------
#psi4
#
memory 32 gb

molecule  {
0 1
  F       -1.6012940    -0.1166020     1.0531380
  F        0.9015100    -1.3283660     1.0533570
  F        0.6995270     1.4450080     1.0533050
  C       -1.4499864    -0.1056102    -0.4391132
  C        0.8221700    -1.2113200    -0.3394270
  C        0.6379870     1.3176500    -0.3394740
  C       -0.6367970    -1.3153920    -0.7539820
  C       -0.8206640     1.2092170    -0.7540300
  C        1.4576450     0.1061460    -0.7538300
  H       -2.4709910    -0.1799750    -0.7606130
  H        1.3914430    -2.0500220    -0.7602750
  H        1.0797340     2.2299680    -0.7603550
  H       -0.6879950    -1.4213320    -1.8456750
  H       -1.0732430    -2.2167570    -0.3126710
  H       -1.3831040     2.0378510    -0.3127500
  H       -0.8866680     1.3065820    -1.8457260
  H        2.4564240     0.1788940    -0.3124150
  H        1.5751120     0.1146800    -1.8455110
units angstrom
no_reorient  #important for SAPT in psi4, default
symmetry c1  #important for SAPT in psi4, default
}

set PROPERTIES_ORIGIN ["COM"]
properties('MP2/aug-cc-pvtz', properties = ['dipole'])
--------------------------------------------------------------------------

    Molecular point group: c1
  Charge       = 0
  Multiplicity = 1
  Basis Set: AUG-CC-PVTZ
    Blend: AUG-CC-PVTZ
  Basis Set: (AUG-CC-PVTZ AUX)
    Blend: AUG-CC-PVTZ-JKFIT

    Orbital Energies [Eh]
    ---------------------

    Doubly Occupied:

       1A    -26.265023     2A    -26.265021     3A    -26.239688
       4A    -11.322673     5A    -11.322666     6A    -11.322098
       7A    -11.247659     8A    -11.247644     9A    -11.245875
      10A     -1.578941    11A     -1.572228    12A     -1.528255
      13A     -1.144680    14A     -1.040225    15A     -1.037820
      16A     -0.876165    17A     -0.872769    18A     -0.774643
      19A     -0.744119    20A     -0.694211    21A     -0.684748
      22A     -0.669039    23A     -0.663985    24A     -0.653700
      25A     -0.645650    26A     -0.627816    27A     -0.626643
      28A     -0.581388    29A     -0.553266    30A     -0.552303
      31A     -0.544321    32A     -0.526764    33A     -0.525532
      34A     -0.524770    35A     -0.463473    36A     -0.461976

  @DF-RHF Final Energy:  -530.95501778251946

   => Energetics <=

    Nuclear Repulsion Energy =            524.6958433944827220
    One-Electron Energy =               -1776.0061644020149743
    Two-Electron Energy =                 720.3553032250129036
    Total Energy =                       -530.9550177825194623
  Basis Set: (AUG-CC-PVTZ AUX)
    Blend: AUG-CC-PVTZ-RI
    Molecular point group: c1

    Geometry (in Angstrom), charge = 0, multiplicity = 1:

       Center              X                  Y                   Z               Mass
    ------------   -----------------  -----------------  -----------------  -----------------
         F           -1.602163805017    -0.116666734918     0.976012558764    18.998403162730
         F            0.900640194983    -1.328430734918     0.976231558764    18.998403162730
         F            0.698657194983     1.444943265082     0.976179558764    18.998403162730
         C           -1.450856205017    -0.105674934918    -0.516238641236    12.000000000000
         C            0.821300194983    -1.211384734918    -0.416552441236    12.000000000000
         C            0.637117194983     1.317585265082    -0.416599441236    12.000000000000
         C           -0.637666805017    -1.315456734918    -0.831107441236    12.000000000000
         C           -0.821533805017     1.209152265082    -0.831155441236    12.000000000000
         C            1.456775194983     0.106081265082    -0.830955441236    12.000000000000
         H           -2.471860805017    -0.180039734918    -0.837738441236     1.007825032230
         H            1.390573194983    -2.050086734918    -0.837400441236     1.007825032230
         H            1.078864194983     2.229903265082    -0.837480441236     1.007825032230
         H           -0.688864805017    -1.421396734918    -1.922800441236     1.007825032230
         H           -1.074112805017    -2.216821734918    -0.389796441236     1.007825032230
         H           -1.383973805017     2.037786265082    -0.389875441236     1.007825032230
         H           -0.887537805017     1.306517265082    -1.922851441236     1.007825032230
         H            2.455554194983     0.178829265082    -0.389540441236     1.007825032230
         H            1.574242194983     0.114615265082    -1.922636441236     1.007825032230

  Basis Set: AUG-CC-PVTZ
    Blend: AUG-CC-PVTZ
  Basis Set: (AUG-CC-PVTZ AUX)
    Blend: AUG-CC-PVTZ-JKFIT
	 Reference Energy          =    -530.9550177825194623 [Eh]
	 Singles Energy            =      -0.0000000000000000 [Eh]
	 Same-Spin Energy          =      -0.4708435461194290 [Eh]
	 Opposite-Spin Energy      =      -1.4891403897786650 [Eh]
	 Correlation Energy        =      -1.9599839358980939 [Eh]
	 Total Energy              =    -532.9150017184175567 [Eh]

	 ================> DF-SCS-MP2 Energies <==================
	-----------------------------------------------------------
	 SCS Same-Spin Scale       =       0.3333333333333333 [-]
	 SCS Opposite-Spin Scale   =       1.2000000000000000 [-]
	 SCS Same-Spin Energy      =      -0.1569478487064763 [Eh]
	 SCS Opposite-Spin Energy  =      -1.7869684677343980 [Eh]
	 SCS Correlation Energy    =      -1.9439163164408744 [Eh]
	 SCS Total Energy          =    -532.8989340989603534 [Eh]
	-----------------------------------------------------------

  Dipole Moment: [D]
     X:     0.1152      Y:     0.0083      Z:    -5.6083     Total:     5.6095

*** Psi4 exiting successfully. Buy a developer a beer!
