                               Psi4 1.4a3.dev225

  ==> Input File <==

--------------------------------------------------------------------------
#psi4
#
memory 32 gb

molecule  {
0 1
  F       -1.6012940    -0.1166020     1.0531380
  F        0.9015100    -1.3283660     1.0533570
  F        0.6995270     1.4450080     1.0533050
  C       -1.4600740    -0.1063430    -0.3396260
  C        0.8221700    -1.2113200    -0.3394270
  C        0.6379870     1.3176500    -0.3394740
  C       -0.6909497    -1.2358644    -0.7267269
  C       -0.8206640     1.2092170    -0.7540300
  C        1.4576450     0.1061460    -0.7538300
  H       -2.4709910    -0.1799750    -0.7606130
  H        1.3914430    -2.0500220    -0.7602750
  H        1.0797340     2.2299680    -0.7603550
  H       -0.6879950    -1.4213320    -1.8456750
  H       -1.0732430    -2.2167570    -0.3126710
  H       -1.3831040     2.0378510    -0.3127500
  H       -0.8866680     1.3065820    -1.8457260
  H        2.4564240     0.1788940    -0.3124150
  H        1.5751120     0.1146800    -1.8455110
units angstrom
no_reorient  #important for SAPT in psi4, default
symmetry c1  #important for SAPT in psi4, default
}

set PROPERTIES_ORIGIN ["COM"]
properties('MP2/aug-cc-pvtz', properties = ['dipole'])
--------------------------------------------------------------------------

    Molecular point group: c1
  Charge       = 0
  Multiplicity = 1
  Basis Set: AUG-CC-PVTZ
    Blend: AUG-CC-PVTZ
  Basis Set: (AUG-CC-PVTZ AUX)
    Blend: AUG-CC-PVTZ-JKFIT

    Orbital Energies [Eh]
    ---------------------

    Doubly Occupied:

       1A    -26.265413     2A    -26.265123     3A    -26.264468
       4A    -11.322957     5A    -11.320425     6A    -11.315492
       7A    -11.247211     8A    -11.244386     9A    -11.243197
      10A     -1.582503    11A     -1.573363    12A     -1.572299
      13A     -1.142851    14A     -1.043102    15A     -1.027775
      16A     -0.877095    17A     -0.866596    18A     -0.778689
      19A     -0.747927    20A     -0.698448    21A     -0.696142
      22A     -0.674876    23A     -0.662496    24A     -0.656979
      25A     -0.655495    26A     -0.642174    27A     -0.638548
      28A     -0.585467    29A     -0.557553    30A     -0.548205
      31A     -0.535379    32A     -0.533496    33A     -0.523628
      34A     -0.516338    35A     -0.464386    36A     -0.443866

  @DF-RHF Final Energy:  -530.95347818173491

   => Energetics <=

    Nuclear Repulsion Energy =            526.7913854795341422
    One-Electron Energy =               -1780.0210255840966056
    Two-Electron Energy =                 722.2761619228274412
    Total Energy =                       -530.9534781817349085
  Basis Set: (AUG-CC-PVTZ AUX)
    Blend: AUG-CC-PVTZ-RI
    Molecular point group: c1

    Geometry (in Angstrom), charge = 0, multiplicity = 1:

       Center              X                  Y                   Z               Mass
    ------------   -----------------  -----------------  -----------------  -----------------
         F           -1.596580347546    -0.123515199429     0.964996728485    18.998403162730
         F            0.906223652454    -1.335279199429     0.965215728485    18.998403162730
         F            0.704240652454     1.438094800571     0.965163728485    18.998403162730
         C           -1.455360347546    -0.113256199429    -0.427767271515    12.000000000000
         C            0.826883652454    -1.218233199429    -0.427568271515    12.000000000000
         C            0.642700652454     1.310736800571    -0.427615271515    12.000000000000
         C           -0.686236047546    -1.242777599429    -0.814868171515    12.000000000000
         C           -0.815950347546     1.202303800571    -0.842171271515    12.000000000000
         C            1.462358652454     0.099232800571    -0.841971271515    12.000000000000
         H           -2.466277347546    -0.186888199429    -0.848754271515     1.007825032230
         H            1.396156652454    -2.056935199429    -0.848416271515     1.007825032230
         H            1.084447652454     2.223054800571    -0.848496271515     1.007825032230
         H           -0.683281347546    -1.428245199429    -1.933816271515     1.007825032230
         H           -1.068529347546    -2.223670199429    -0.400812271515     1.007825032230
         H           -1.378390347546     2.030937800571    -0.400891271515     1.007825032230
         H           -0.881954347546     1.299668800571    -1.933867271515     1.007825032230
         H            2.461137652454     0.171980800571    -0.400556271515     1.007825032230
         H            1.579825652454     0.107766800571    -1.933652271515     1.007825032230

  Basis Set: AUG-CC-PVTZ
    Blend: AUG-CC-PVTZ
  Basis Set: (AUG-CC-PVTZ AUX)
    Blend: AUG-CC-PVTZ-JKFIT
	 Reference Energy          =    -530.9534781817349085 [Eh]
	 Singles Energy            =      -0.0000000000000000 [Eh]
	 Same-Spin Energy          =      -0.4709404643116243 [Eh]
	 Opposite-Spin Energy      =      -1.4878946939292657 [Eh]
	 Correlation Energy        =      -1.9588351582408898 [Eh]
	 Total Energy              =    -532.9123133399757535 [Eh]

	 ================> DF-SCS-MP2 Energies <==================
	-----------------------------------------------------------
	 SCS Same-Spin Scale       =       0.3333333333333333 [-]
	 SCS Opposite-Spin Scale   =       1.2000000000000000 [-]
	 SCS Same-Spin Energy      =      -0.1569801547705414 [Eh]
	 SCS Opposite-Spin Energy  =      -1.7854736327151188 [Eh]
	 SCS Correlation Energy    =      -1.9424537874856602 [Eh]
	 SCS Total Energy          =    -532.8959319692205554 [Eh]
	-----------------------------------------------------------

  Dipole Moment: [D]
     X:     0.0484      Y:    -0.0205      Z:    -5.2362     Total:     5.2364

*** Psi4 exiting successfully. Buy a developer a beer!
