                               Psi4 1.4a3.dev225

  ==> Input File <==

--------------------------------------------------------------------------
#psi4
#
memory 32 gb

molecule  {
0 1
  F       -1.6012940    -0.1166020     1.0531380
  F        0.9015100    -1.3283660     1.0533570
  F        0.6995270     1.4450080     1.0533050
  C       -1.4600740    -0.1063430    -0.3396260
  C        0.8583018    -1.2243819    -0.4938506
  C        0.6379870     1.3176500    -0.3394740
  C       -0.6367970    -1.3153920    -0.7539820
  C       -0.8206640     1.2092170    -0.7540300
  C        1.4576450     0.1061460    -0.7538300
  H       -2.4709910    -0.1799750    -0.7606130
  H        1.3914430    -2.0500220    -0.7602750
  H        1.0797340     2.2299680    -0.7603550
  H       -0.6879950    -1.4213320    -1.8456750
  H       -1.0732430    -2.2167570    -0.3126710
  H       -1.3831040     2.0378510    -0.3127500
  H       -0.8866680     1.3065820    -1.8457260
  H        2.4564240     0.1788940    -0.3124150
  H        1.5751120     0.1146800    -1.8455110
units angstrom
no_reorient  #important for SAPT in psi4, default
symmetry c1  #important for SAPT in psi4, default
}

set PROPERTIES_ORIGIN ["COM"]
properties('MP2/aug-cc-pvtz', properties = ['dipole'])
--------------------------------------------------------------------------

    Molecular point group: c1
  Charge       = 0
  Multiplicity = 1
  Basis Set: AUG-CC-PVTZ
    Blend: AUG-CC-PVTZ
  Basis Set: (AUG-CC-PVTZ AUX)
    Blend: AUG-CC-PVTZ-JKFIT

    Orbital Energies [Eh]
    ---------------------

    Doubly Occupied:

       1A    -26.264928     2A    -26.264135     3A    -26.226656
       4A    -11.324917     5A    -11.323853     6A    -11.323823
       7A    -11.250740     8A    -11.250111     9A    -11.246429
      10A     -1.578232    11A     -1.571619    12A     -1.507356
      13A     -1.144356    14A     -1.043883    15A     -1.036518
      16A     -0.879318    17A     -0.876042    18A     -0.777482
      19A     -0.743185    20A     -0.693261    21A     -0.680140
      22A     -0.668316    23A     -0.663773    24A     -0.653295
      25A     -0.649343    26A     -0.621773    27A     -0.616199
      28A     -0.578682    29A     -0.553739    30A     -0.551832
      31A     -0.543159    32A     -0.526958    33A     -0.521868
      34A     -0.516332    35A     -0.470433    36A     -0.462301

  @DF-RHF Final Energy:  -530.94146691794003

   => Energetics <=

    Nuclear Repulsion Energy =            523.4001137555630976
    One-Electron Energy =               -1773.4731857473555010
    Two-Electron Energy =                 719.1316050738523700
    Total Energy =                       -530.9414669179400335
  Basis Set: (AUG-CC-PVTZ AUX)
    Blend: AUG-CC-PVTZ-RI
    Molecular point group: c1

    Geometry (in Angstrom), charge = 0, multiplicity = 1:

       Center              X                  Y                   Z               Mass
    ------------   -----------------  -----------------  -----------------  -----------------
         F           -1.604427441443    -0.115467766034     0.980787366058    18.998403162730
         F            0.898376558557    -1.327231766034     0.981006366058    18.998403162730
         F            0.696393558557     1.446142233966     0.980954366058    18.998403162730
         C           -1.463207441443    -0.105208766034    -0.411976633942    12.000000000000
         C            0.855168358557    -1.223247666034    -0.566201233942    12.000000000000
         C            0.634853558557     1.318784233966    -0.411824633942    12.000000000000
         C           -0.639930441443    -1.314257766034    -0.826332633942    12.000000000000
         C           -0.823797441443     1.210351233966    -0.826380633942    12.000000000000
         C            1.454511558557     0.107280233966    -0.826180633942    12.000000000000
         H           -2.474124441443    -0.178840766034    -0.832963633942     1.007825032230
         H            1.388309558557    -2.048887766034    -0.832625633942     1.007825032230
         H            1.076600558557     2.231102233966    -0.832705633942     1.007825032230
         H           -0.691128441443    -1.420197766034    -1.918025633942     1.007825032230
         H           -1.076376441443    -2.215622766034    -0.385021633942     1.007825032230
         H           -1.386237441443     2.038985233966    -0.385100633942     1.007825032230
         H           -0.889801441443     1.307716233966    -1.918076633942     1.007825032230
         H            2.453290558557     0.180028233966    -0.384765633942     1.007825032230
         H            1.571978558557     0.115814233966    -1.917861633942     1.007825032230

  Basis Set: AUG-CC-PVTZ
    Blend: AUG-CC-PVTZ
  Basis Set: (AUG-CC-PVTZ AUX)
    Blend: AUG-CC-PVTZ-JKFIT
	 Reference Energy          =    -530.9414669179400335 [Eh]
	 Singles Energy            =      -0.0000000000000000 [Eh]
	 Same-Spin Energy          =      -0.4710112287853799 [Eh]
	 Opposite-Spin Energy      =      -1.4902826830370903 [Eh]
	 Correlation Energy        =      -1.9612939118224701 [Eh]
	 Total Energy              =    -532.9027608297625420 [Eh]

	 ================> DF-SCS-MP2 Energies <==================
	-----------------------------------------------------------
	 SCS Same-Spin Scale       =       0.3333333333333333 [-]
	 SCS Opposite-Spin Scale   =       1.2000000000000000 [-]
	 SCS Same-Spin Energy      =      -0.1570037429284599 [Eh]
	 SCS Opposite-Spin Energy  =      -1.7883392196445083 [Eh]
	 SCS Correlation Energy    =      -1.9453429625729681 [Eh]
	 SCS Total Energy          =    -532.8868098805130558 [Eh]
	-----------------------------------------------------------

  Dipole Moment: [D]
     X:    -0.0189      Y:     0.1178      Z:    -5.7845     Total:     5.7857

*** Psi4 exiting successfully. Buy a developer a beer!
