                               Psi4 1.4a3.dev225

  ==> Input File <==

--------------------------------------------------------------------------
#psi4
#
memory 32 gb

molecule  {
0 1
  F       -1.6012940    -0.1166020     1.0531380
  F        0.9015100    -1.3283660     1.0533570
  F        0.6995270     1.4450080     1.0533050
  C       -1.4600740    -0.1063430    -0.3396260
  C        0.8221700    -1.2113200    -0.3394270
  C        0.6379870     1.3176500    -0.3394740
  C       -0.6367970    -1.3153920    -0.7539820
  C       -0.8206640     1.2092170    -0.7540300
  C        1.4576450     0.1061460    -0.7538300
  H       -2.2867768    -0.1665574    -0.6838987
  H        1.3914430    -2.0500220    -0.7602750
  H        1.0797340     2.2299680    -0.7603550
  H       -0.6879950    -1.4213320    -1.8456750
  H       -1.0732430    -2.2167570    -0.3126710
  H       -1.3831040     2.0378510    -0.3127500
  H       -0.8866680     1.3065820    -1.8457260
  H        2.4564240     0.1788940    -0.3124150
  H        1.5751120     0.1146800    -1.8455110
units angstrom
no_reorient  #important for SAPT in psi4, default
symmetry c1  #important for SAPT in psi4, default
}

set PROPERTIES_ORIGIN ["COM"]
properties('MP2/aug-cc-pvtz', properties = ['dipole'])
--------------------------------------------------------------------------

    Molecular point group: c1
  Charge       = 0
  Multiplicity = 1
  Basis Set: AUG-CC-PVTZ
    Blend: AUG-CC-PVTZ
  Basis Set: (AUG-CC-PVTZ AUX)
    Blend: AUG-CC-PVTZ-JKFIT

    Orbital Energies [Eh]
    ---------------------

    Doubly Occupied:

       1A    -26.264475     2A    -26.264473     3A    -26.262055
       4A    -11.319282     5A    -11.319274     6A    -11.295133
       7A    -11.243325     8A    -11.242841     9A    -11.242826
      10A     -1.580859    11A     -1.571795    12A     -1.570950
      13A     -1.138971    14A     -1.042083    15A     -1.031784
      16A     -0.890885    17A     -0.870510    18A     -0.785983
      19A     -0.751992    20A     -0.700212    21A     -0.695870
      22A     -0.670480    23A     -0.663901    24A     -0.657686
      25A     -0.655662    26A     -0.641710    27A     -0.639820
      28A     -0.592468    29A     -0.557804    30A     -0.549040
      31A     -0.547559    32A     -0.526970    33A     -0.523077
      34A     -0.520027    35A     -0.461434    36A     -0.453382

  @DF-RHF Final Energy:  -530.93367322090978

   => Energetics <=

    Nuclear Repulsion Energy =            526.8854528354173681
    One-Electron Energy =               -1780.1450567238928215
    Two-Electron Energy =                 722.3259306675655580
    Total Energy =                       -530.9336732209097818
  Basis Set: (AUG-CC-PVTZ AUX)
    Blend: AUG-CC-PVTZ-RI
    Molecular point group: c1

    Geometry (in Angstrom), charge = 0, multiplicity = 1:

       Center              X                  Y                   Z               Mass
    ------------   -----------------  -----------------  -----------------  -----------------
         F           -1.602631730885    -0.116700986694     0.966805626178    18.998403162730
         F            0.900172269115    -1.328464986694     0.967024626178    18.998403162730
         F            0.698189269115     1.444909013306     0.966972626178    18.998403162730
         C           -1.461411730885    -0.106441986694    -0.425958373822    12.000000000000
         C            0.820832269115    -1.211418986694    -0.425759373822    12.000000000000
         C            0.636649269115     1.317551013306    -0.425806373822    12.000000000000
         C           -0.638134730885    -1.315490986694    -0.840314373822    12.000000000000
         C           -0.822001730885     1.209118013306    -0.840362373822    12.000000000000
         C            1.456307269115     0.106047013306    -0.840162373822    12.000000000000
         H           -2.288114530885    -0.166656386694    -0.770231073822     1.007825032230
         H            1.390105269115    -2.050120986694    -0.846607373822     1.007825032230
         H            1.078396269115     2.229869013306    -0.846687373822     1.007825032230
         H           -0.689332730885    -1.421430986694    -1.932007373822     1.007825032230
         H           -1.074580730885    -2.216855986694    -0.399003373822     1.007825032230
         H           -1.384441730885     2.037752013306    -0.399082373822     1.007825032230
         H           -0.888005730885     1.306483013306    -1.932058373822     1.007825032230
         H            2.455086269115     0.178795013306    -0.398747373822     1.007825032230
         H            1.573774269115     0.114581013306    -1.931843373822     1.007825032230

  Basis Set: AUG-CC-PVTZ
    Blend: AUG-CC-PVTZ
  Basis Set: (AUG-CC-PVTZ AUX)
    Blend: AUG-CC-PVTZ-JKFIT
	 Reference Energy          =    -530.9336732209097818 [Eh]
	 Singles Energy            =      -0.0000000000000000 [Eh]
	 Same-Spin Energy          =      -0.4697902736771774 [Eh]
	 Opposite-Spin Energy      =      -1.4855379518576253 [Eh]
	 Correlation Energy        =      -1.9553282255348026 [Eh]
	 Total Energy              =    -532.8890014464445812 [Eh]

	 ================> DF-SCS-MP2 Energies <==================
	-----------------------------------------------------------
	 SCS Same-Spin Scale       =       0.3333333333333333 [-]
	 SCS Opposite-Spin Scale   =       1.2000000000000000 [-]
	 SCS Same-Spin Energy      =      -0.1565967578923925 [Eh]
	 SCS Opposite-Spin Energy  =      -1.7826455422291503 [Eh]
	 SCS Correlation Energy    =      -1.9392423001215426 [Eh]
	 SCS Total Energy          =    -532.8729155210313593 [Eh]
	-----------------------------------------------------------

  Dipole Moment: [D]
     X:    -0.0868      Y:    -0.0064      Z:    -5.2790     Total:     5.2798

*** Psi4 exiting successfully. Buy a developer a beer!
