                               Psi4 1.4a3.dev225

  ==> Input File <==

--------------------------------------------------------------------------
#psi4
#
memory 32 gb

molecule  {
0 1
  F       -1.6012940    -0.1166020     1.0531380
  F        0.9015100    -1.3283660     1.0533570
  F        0.6995270     1.4450080     1.0533050
  C       -1.4600740    -0.1063430    -0.3396260
  C        0.8221700    -1.2113200    -0.3394270
  C        0.6379870     1.3176500    -0.3394740
  C       -0.6367970    -1.3153920    -0.7539820
  C       -0.8206640     1.2092170    -0.7540300
  C        1.4576450     0.1061460    -0.7538300
  H       -2.4709910    -0.1799750    -0.7606130
  H        1.3914430    -2.0500220    -0.7602750
  H        1.0797340     2.2299680    -0.7603550
  H       -0.6879950    -1.4213320    -1.8456750
  H       -1.0732430    -2.2167570    -0.3126710
  H       -1.2803185     1.8864187    -0.3933936
  H       -0.8866680     1.3065820    -1.8457260
  H        2.4564240     0.1788940    -0.3124150
  H        1.5751120     0.1146800    -1.8455110
units angstrom
no_reorient  #important for SAPT in psi4, default
symmetry c1  #important for SAPT in psi4, default
}

set PROPERTIES_ORIGIN ["COM"]
properties('MP2/aug-cc-pvtz', properties = ['dipole'])
--------------------------------------------------------------------------

    Molecular point group: c1
  Charge       = 0
  Multiplicity = 1
  Basis Set: AUG-CC-PVTZ
    Blend: AUG-CC-PVTZ
  Basis Set: (AUG-CC-PVTZ AUX)
    Blend: AUG-CC-PVTZ-JKFIT

    Orbital Energies [Eh]
    ---------------------

    Doubly Occupied:

       1A    -26.265542     2A    -26.265540     3A    -26.264684
       4A    -11.319374     5A    -11.319068     6A    -11.319061
       7A    -11.242965     8A    -11.242951     9A    -11.220618
      10A     -1.582091    11A     -1.572879    12A     -1.572332
      13A     -1.139432    14A     -1.044891    15A     -1.031735
      16A     -0.882988    17A     -0.870711    18A     -0.781667
      19A     -0.746932    20A     -0.696698    21A     -0.696523
      22A     -0.682794    23A     -0.671485    24A     -0.656420
      25A     -0.656408    26A     -0.642436    27A     -0.640593
      28A     -0.583863    29A     -0.567725    30A     -0.555634
      31A     -0.547418    32A     -0.524093    33A     -0.523650
      34A     -0.520439    35A     -0.457449    36A     -0.453591

  @DF-RHF Final Energy:  -530.93190766357134

   => Energetics <=

    Nuclear Repulsion Energy =            526.7544190264732151
    One-Electron Energy =               -1779.8472922664761882
    Two-Electron Energy =                 722.1609655764316358
    Total Energy =                       -530.9319076635713373
  Basis Set: (AUG-CC-PVTZ AUX)
    Blend: AUG-CC-PVTZ-RI
    Molecular point group: c1

    Geometry (in Angstrom), charge = 0, multiplicity = 1:

       Center              X                  Y                   Z               Mass
    ------------   -----------------  -----------------  -----------------  -----------------
         F           -1.602037333284    -0.115497647021     0.967954277186    18.998403162730
         F            0.900766666716    -1.327261647021     0.968173277186    18.998403162730
         F            0.698783666716     1.446112352979     0.968121277186    18.998403162730
         C           -1.460817333284    -0.105238647021    -0.424809722814    12.000000000000
         C            0.821426666716    -1.210215647021    -0.424610722814    12.000000000000
         C            0.637243666716     1.318754352979    -0.424657722814    12.000000000000
         C           -0.637540333284    -1.314287647021    -0.839165722814    12.000000000000
         C           -0.821407333284     1.210321352979    -0.839213722814    12.000000000000
         C            1.456901666716     0.107250352979    -0.839013722814    12.000000000000
         H           -2.471734333284    -0.178870647021    -0.845796722814     1.007825032230
         H            1.390699666716    -2.048917647021    -0.845458722814     1.007825032230
         H            1.078990666716     2.231072352979    -0.845538722814     1.007825032230
         H           -0.688738333284    -1.420227647021    -1.930858722814     1.007825032230
         H           -1.073986333284    -2.215652647021    -0.397854722814     1.007825032230
         H           -1.281061833284     1.887523052979    -0.478577322814     1.007825032230
         H           -0.887411333284     1.307686352979    -1.930909722814     1.007825032230
         H            2.455680666716     0.179998352979    -0.397598722814     1.007825032230
         H            1.574368666716     0.115784352979    -1.930694722814     1.007825032230

  Basis Set: AUG-CC-PVTZ
    Blend: AUG-CC-PVTZ
  Basis Set: (AUG-CC-PVTZ AUX)
    Blend: AUG-CC-PVTZ-JKFIT
	 Reference Energy          =    -530.9319076635713373 [Eh]
	 Singles Energy            =      -0.0000000000000000 [Eh]
	 Same-Spin Energy          =      -0.4699515765714200 [Eh]
	 Opposite-Spin Energy      =      -1.4858667224590703 [Eh]
	 Correlation Energy        =      -1.9558182990304902 [Eh]
	 Total Energy              =    -532.8877259626018486 [Eh]

	 ================> DF-SCS-MP2 Energies <==================
	-----------------------------------------------------------
	 SCS Same-Spin Scale       =       0.3333333333333333 [-]
	 SCS Opposite-Spin Scale   =       1.2000000000000000 [-]
	 SCS Same-Spin Energy      =      -0.1566505255238066 [Eh]
	 SCS Opposite-Spin Energy  =      -1.7830400669508844 [Eh]
	 SCS Correlation Energy    =      -1.9396905924746910 [Eh]
	 SCS Total Energy          =    -532.8715982560460134 [Eh]
	-----------------------------------------------------------

  Dipole Moment: [D]
     X:    -0.0358      Y:     0.0534      Z:    -5.2321     Total:     5.2325

*** Psi4 exiting successfully. Buy a developer a beer!
