                               Psi4 1.4a3.dev225

  ==> Input File <==

--------------------------------------------------------------------------
#psi4
#
memory 32 gb

molecule  {
0 1
  F       -1.6012940    -0.1166020     1.0531380
  F        0.9015100    -1.3283660     1.0533570
  F        0.6995270     1.4450080     1.0533050
  C       -1.4600740    -0.1063430    -0.3396260
  C        0.8221700    -1.2113200    -0.3394270
  C        0.6379870     1.3176500    -0.3394740
  C       -0.6367970    -1.3153920    -0.7539820
  C       -0.8206640     1.2092170    -0.7540300
  C        1.5306812     0.0500585    -0.8065576
  H       -2.4709910    -0.1799750    -0.7606130
  H        1.3914430    -2.0500220    -0.7602750
  H        1.0797340     2.2299680    -0.7603550
  H       -0.6879950    -1.4213320    -1.8456750
  H       -1.0732430    -2.2167570    -0.3126710
  H       -1.3831040     2.0378510    -0.3127500
  H       -0.8866680     1.3065820    -1.8457260
  H        2.4564240     0.1788940    -0.3124150
  H        1.5751120     0.1146800    -1.8455110
units angstrom
no_reorient  #important for SAPT in psi4, default
symmetry c1  #important for SAPT in psi4, default
}

set PROPERTIES_ORIGIN ["COM"]
properties('MP2/aug-cc-pvtz', properties = ['dipole'])
--------------------------------------------------------------------------

    Molecular point group: c1
  Charge       = 0
  Multiplicity = 1
  Basis Set: AUG-CC-PVTZ
    Blend: AUG-CC-PVTZ
  Basis Set: (AUG-CC-PVTZ AUX)
    Blend: AUG-CC-PVTZ-JKFIT

    Orbital Energies [Eh]
    ---------------------

    Doubly Occupied:

       1A    -26.266939     2A    -26.266096     3A    -26.265005
       4A    -11.322794     5A    -11.319828     6A    -11.319671
       7A    -11.244894     8A    -11.243976     9A    -11.242026
      10A     -1.581847    11A     -1.572936    12A     -1.572098
      13A     -1.131069    14A     -1.034607    15A     -1.025654
      16A     -0.875085    17A     -0.865361    18A     -0.782222
      19A     -0.742109    20A     -0.698157    21A     -0.696650
      22A     -0.669374    23A     -0.663076    24A     -0.656996
      25A     -0.653083    26A     -0.642846    27A     -0.638886
      28A     -0.583276    29A     -0.576560    30A     -0.554113
      31A     -0.548153    32A     -0.524537    33A     -0.523510
      34A     -0.511648    35A     -0.459316    36A     -0.437105

  @DF-RHF Final Energy:  -530.95581608682255

   => Energetics <=

    Nuclear Repulsion Energy =            523.6490196126055707
    One-Electron Energy =               -1773.7866750163750567
    Two-Electron Energy =                 719.1818393169469346
    Total Energy =                       -530.9558160868225514
  Basis Set: (AUG-CC-PVTZ AUX)
    Blend: AUG-CC-PVTZ-RI
    Molecular point group: c1

    Geometry (in Angstrom), charge = 0, multiplicity = 1:

       Center              X                  Y                   Z               Mass
    ------------   -----------------  -----------------  -----------------  -----------------
         F           -1.607634994145    -0.111728188109     0.971948439543    18.998403162730
         F            0.895169005855    -1.323492188109     0.972167439543    18.998403162730
         F            0.693186005855     1.449881811891     0.972115439543    18.998403162730
         C           -1.466414994145    -0.101469188109    -0.420815560457    12.000000000000
         C            0.815829005855    -1.206446188109    -0.420616560457    12.000000000000
         C            0.631646005855     1.322523811891    -0.420663560457    12.000000000000
         C           -0.643137994145    -1.310518188109    -0.835171560457    12.000000000000
         C           -0.827004994145     1.214090811891    -0.835219560457    12.000000000000
         C            1.524340205855     0.054932311891    -0.887747160457    12.000000000000
         H           -2.477331994145    -0.175101188109    -0.841802560457     1.007825032230
         H            1.385102005855    -2.045148188109    -0.841464560457     1.007825032230
         H            1.073393005855     2.234841811891    -0.841544560457     1.007825032230
         H           -0.694335994145    -1.416458188109    -1.926864560457     1.007825032230
         H           -1.079583994145    -2.211883188109    -0.393860560457     1.007825032230
         H           -1.389444994145     2.042724811891    -0.393939560457     1.007825032230
         H           -0.893008994145     1.311455811891    -1.926915560457     1.007825032230
         H            2.450083005855     0.183767811891    -0.393604560457     1.007825032230
         H            1.568771005855     0.119553811891    -1.926700560457     1.007825032230

  Basis Set: AUG-CC-PVTZ
    Blend: AUG-CC-PVTZ
  Basis Set: (AUG-CC-PVTZ AUX)
    Blend: AUG-CC-PVTZ-JKFIT
	 Reference Energy          =    -530.9558160868225514 [Eh]
	 Singles Energy            =      -0.0000000000000000 [Eh]
	 Same-Spin Energy          =      -0.4697184419957161 [Eh]
	 Opposite-Spin Energy      =      -1.4867965553539095 [Eh]
	 Correlation Energy        =      -1.9565149973496256 [Eh]
	 Total Energy              =    -532.9123310841721377 [Eh]

	 ================> DF-SCS-MP2 Energies <==================
	-----------------------------------------------------------
	 SCS Same-Spin Scale       =       0.3333333333333333 [-]
	 SCS Opposite-Spin Scale   =       1.2000000000000000 [-]
	 SCS Same-Spin Energy      =      -0.1565728139985720 [Eh]
	 SCS Opposite-Spin Energy  =      -1.7841558664246915 [Eh]
	 SCS Correlation Energy    =      -1.9407286804232635 [Eh]
	 SCS Total Energy          =    -532.8965447672458140 [Eh]
	-----------------------------------------------------------

  Dipole Moment: [D]
     X:    -0.0111      Y:     0.0325      Z:    -5.2019     Total:     5.2020

*** Psi4 exiting successfully. Buy a developer a beer!
