                               Psi4 1.4a3.dev225

  ==> Input File <==

--------------------------------------------------------------------------
#psi4
#
memory 32 gb

molecule  {
0 1
  F       -1.6012940    -0.1166020     1.0531380
  F        0.8337139    -1.4574405     1.0386635
  F        0.6995270     1.4450080     1.0533050
  C       -1.4600740    -0.1063430    -0.3396260
  C        0.8221700    -1.2113200    -0.3394270
  C        0.6379870     1.3176500    -0.3394740
  C       -0.6367970    -1.3153920    -0.7539820
  C       -0.8206640     1.2092170    -0.7540300
  C        1.4576450     0.1061460    -0.7538300
  H       -2.4709910    -0.1799750    -0.7606130
  H        1.3914430    -2.0500220    -0.7602750
  H        1.0797340     2.2299680    -0.7603550
  H       -0.6879950    -1.4213320    -1.8456750
  H       -1.0732430    -2.2167570    -0.3126710
  H       -1.3831040     2.0378510    -0.3127500
  H       -0.8866680     1.3065820    -1.8457260
  H        2.4564240     0.1788940    -0.3124150
  H        1.5751120     0.1146800    -1.8455110
units angstrom
no_reorient  #important for SAPT in psi4, default
symmetry c1  #important for SAPT in psi4, default
}

set PROPERTIES_ORIGIN ["COM"]
properties('MP2/aug-cc-pvtz', properties = ['dipole'])
--------------------------------------------------------------------------

    Molecular point group: c1
  Charge       = 0
  Multiplicity = 1
  Basis Set: AUG-CC-PVTZ
    Blend: AUG-CC-PVTZ
  Basis Set: (AUG-CC-PVTZ AUX)
    Blend: AUG-CC-PVTZ-JKFIT

    Orbital Energies [Eh]
    ---------------------

    Doubly Occupied:

       1A    -26.267641     2A    -26.265450     3A    -26.264854
       4A    -11.321583     5A    -11.319894     6A    -11.319566
       7A    -11.247916     8A    -11.244503     9A    -11.241501
      10A     -1.582384    11A     -1.574607    12A     -1.572331
      13A     -1.137309    14A     -1.033797    15A     -1.032317
      16A     -0.871757    17A     -0.871546    18A     -0.780533
      19A     -0.745244    20A     -0.698288    21A     -0.695743
      22A     -0.673129    23A     -0.660629    24A     -0.659290
      25A     -0.657030    26A     -0.641798    27A     -0.639736
      28A     -0.582387    29A     -0.560873    30A     -0.550216
      31A     -0.546230    32A     -0.526223    33A     -0.523774
      34A     -0.520652    35A     -0.455086    36A     -0.453612

  @DF-RHF Final Energy:  -530.96381055805500

   => Energetics <=

    Nuclear Repulsion Energy =            524.2882190243097966
    One-Electron Energy =               -1775.0252018240255438
    Two-Electron Energy =                 719.7731722416608591
    Total Energy =                       -530.9638105580550018
  Basis Set: (AUG-CC-PVTZ AUX)
    Blend: AUG-CC-PVTZ-RI
    Molecular point group: c1

    Geometry (in Angstrom), charge = 0, multiplicity = 1:

       Center              X                  Y                   Z               Mass
    ------------   -----------------  -----------------  -----------------  -----------------
         F           -1.591958015264    -0.098841857692     0.969387496962    18.998403162730
         F            0.843049884736    -1.439680357692     0.954912996962    18.998403162730
         F            0.708862984736     1.462768142308     0.969554496962    18.998403162730
         C           -1.450738015264    -0.088582857692    -0.423376503038    12.000000000000
         C            0.831505984736    -1.193559857692    -0.423177503038    12.000000000000
         C            0.647322984736     1.335410142308    -0.423224503038    12.000000000000
         C           -0.627461015264    -1.297631857692    -0.837732503038    12.000000000000
         C           -0.811328015264     1.226977142308    -0.837780503038    12.000000000000
         C            1.466980984736     0.123906142308    -0.837580503038    12.000000000000
         H           -2.461655015264    -0.162214857692    -0.844363503038     1.007825032230
         H            1.400778984736    -2.032261857692    -0.844025503038     1.007825032230
         H            1.089069984736     2.247728142308    -0.844105503038     1.007825032230
         H           -0.678659015264    -1.403571857692    -1.929425503038     1.007825032230
         H           -1.063907015264    -2.198996857692    -0.396421503038     1.007825032230
         H           -1.373768015264     2.055611142308    -0.396500503038     1.007825032230
         H           -0.877332015264     1.324342142308    -1.929476503038     1.007825032230
         H            2.465759984736     0.196654142308    -0.396165503038     1.007825032230
         H            1.584447984736     0.132440142308    -1.929261503038     1.007825032230

  Basis Set: AUG-CC-PVTZ
    Blend: AUG-CC-PVTZ
  Basis Set: (AUG-CC-PVTZ AUX)
    Blend: AUG-CC-PVTZ-JKFIT
	 Reference Energy          =    -530.9638105580550018 [Eh]
	 Singles Energy            =      -0.0000000000000000 [Eh]
	 Same-Spin Energy          =      -0.4699527281041008 [Eh]
	 Opposite-Spin Energy      =      -1.4865719893239524 [Eh]
	 Correlation Energy        =      -1.9565247174280531 [Eh]
	 Total Energy              =    -532.9203352754830121 [Eh]

	 ================> DF-SCS-MP2 Energies <==================
	-----------------------------------------------------------
	 SCS Same-Spin Scale       =       0.3333333333333333 [-]
	 SCS Opposite-Spin Scale   =       1.2000000000000000 [-]
	 SCS Same-Spin Energy      =      -0.1566509093680336 [Eh]
	 SCS Opposite-Spin Energy  =      -1.7838863871887429 [Eh]
	 SCS Correlation Energy    =      -1.9405372965567764 [Eh]
	 SCS Total Energy          =    -532.9043478546117285 [Eh]
	-----------------------------------------------------------

  Dipole Moment: [D]
     X:     0.1138      Y:     0.1888      Z:    -5.2247     Total:     5.2293

*** Psi4 exiting successfully. Buy a developer a beer!
