                               Psi4 1.4a3.dev225

  ==> Input File <==

--------------------------------------------------------------------------
#psi4
#
memory 32 gb

molecule  {
0 1
  F       -1.6012940    -0.1166020     1.0531380
  F        0.9015100    -1.3283660     1.0533570
  F        0.6995270     1.4450080     1.0533050
  C       -1.4600740    -0.1063430    -0.3396260
  C        0.8221700    -1.2113200    -0.3394270
  C        0.6797944     1.3353844    -0.3120230
  C       -0.6367970    -1.3153920    -0.7539820
  C       -0.8206640     1.2092170    -0.7540300
  C        1.4576450     0.1061460    -0.7538300
  H       -2.4709910    -0.1799750    -0.7606130
  H        1.3914430    -2.0500220    -0.7602750
  H        1.0797340     2.2299680    -0.7603550
  H       -0.6879950    -1.4213320    -1.8456750
  H       -1.0732430    -2.2167570    -0.3126710
  H       -1.3831040     2.0378510    -0.3127500
  H       -0.8866680     1.3065820    -1.8457260
  H        2.4564240     0.1788940    -0.3124150
  H        1.5751120     0.1146800    -1.8455110
units angstrom
no_reorient  #important for SAPT in psi4, default
symmetry c1  #important for SAPT in psi4, default
}

set PROPERTIES_ORIGIN ["COM"]
properties('MP2/aug-cc-pvtz', properties = ['dipole'])
--------------------------------------------------------------------------

    Molecular point group: c1
  Charge       = 0
  Multiplicity = 1
  Basis Set: AUG-CC-PVTZ
    Blend: AUG-CC-PVTZ
  Basis Set: (AUG-CC-PVTZ AUX)
    Blend: AUG-CC-PVTZ-JKFIT

    Orbital Energies [Eh]
    ---------------------

    Doubly Occupied:

       1A    -26.273040     2A    -26.265417     3A    -26.264316
       4A    -11.320142     5A    -11.319818     6A    -11.318806
       7A    -11.243097     8A    -11.243082     9A    -11.242882
      10A     -1.593143    11A     -1.577311    12A     -1.572201
      13A     -1.131962    14A     -1.032554    15A     -1.026227
      16A     -0.873975    17A     -0.867937    18A     -0.782705
      19A     -0.746609    20A     -0.702852    21A     -0.698025
      22A     -0.674112    23A     -0.662651    24A     -0.657692
      25A     -0.656092    26A     -0.645528    27A     -0.642326
      28A     -0.586212    29A     -0.559387    30A     -0.548291
      31A     -0.546580    32A     -0.524108    33A     -0.521121
      34A     -0.514440    35A     -0.457057    36A     -0.445268

  @DF-RHF Final Energy:  -530.96403850488127

   => Energetics <=

    Nuclear Repulsion Energy =            525.2273170085998117
    One-Electron Energy =               -1776.9087842249541609
    Two-Electron Energy =                 720.7174287114730760
    Total Energy =                       -530.9640385048812732
  Basis Set: (AUG-CC-PVTZ AUX)
    Blend: AUG-CC-PVTZ-RI
    Molecular point group: c1

    Geometry (in Angstrom), charge = 0, multiplicity = 1:

       Center              X                  Y                   Z               Mass
    ------------   -----------------  -----------------  -----------------  -----------------
         F           -1.604920737259    -0.118144432104     0.964979701801    18.998403162730
         F            0.897883262741    -1.329908432104     0.965198701801    18.998403162730
         F            0.695900262741     1.443465567896     0.965146701801    18.998403162730
         C           -1.463700737259    -0.107885432104    -0.427784298199    12.000000000000
         C            0.818543262741    -1.212862432104    -0.427585298199    12.000000000000
         C            0.676167662741     1.333841967896    -0.400181298199    12.000000000000
         C           -0.640423737259    -1.316934432104    -0.842140298199    12.000000000000
         C           -0.824290737259     1.207674567896    -0.842188298199    12.000000000000
         C            1.454018262741     0.104603567896    -0.841988298199    12.000000000000
         H           -2.474617737259    -0.181517432104    -0.848771298199     1.007825032230
         H            1.387816262741    -2.051564432104    -0.848433298199     1.007825032230
         H            1.076107262741     2.228425567896    -0.848513298199     1.007825032230
         H           -0.691621737259    -1.422874432104    -1.933833298199     1.007825032230
         H           -1.076869737259    -2.218299432104    -0.400829298199     1.007825032230
         H           -1.386730737259     2.036308567896    -0.400908298199     1.007825032230
         H           -0.890294737259     1.305039567896    -1.933884298199     1.007825032230
         H            2.452797262741     0.177351567896    -0.400573298199     1.007825032230
         H            1.571485262741     0.113137567896    -1.933669298199     1.007825032230

  Basis Set: AUG-CC-PVTZ
    Blend: AUG-CC-PVTZ
  Basis Set: (AUG-CC-PVTZ AUX)
    Blend: AUG-CC-PVTZ-JKFIT
	 Reference Energy          =    -530.9640385048812732 [Eh]
	 Singles Energy            =      -0.0000000000000000 [Eh]
	 Same-Spin Energy          =      -0.4696720232649824 [Eh]
	 Opposite-Spin Energy      =      -1.4858786931287820 [Eh]
	 Correlation Energy        =      -1.9555507163937644 [Eh]
	 Total Energy              =    -532.9195892212750323 [Eh]

	 ================> DF-SCS-MP2 Energies <==================
	-----------------------------------------------------------
	 SCS Same-Spin Scale       =       0.3333333333333333 [-]
	 SCS Opposite-Spin Scale   =       1.2000000000000000 [-]
	 SCS Same-Spin Energy      =      -0.1565573410883274 [Eh]
	 SCS Opposite-Spin Energy  =      -1.7830544317545383 [Eh]
	 SCS Correlation Energy    =      -1.9396117728428657 [Eh]
	 SCS Total Energy          =    -532.9036502777241822 [Eh]
	-----------------------------------------------------------

  Dipole Moment: [D]
     X:     0.1010      Y:     0.0553      Z:    -5.0965     Total:     5.0978

*** Psi4 exiting successfully. Buy a developer a beer!
