                               Psi4 1.4a3.dev225

  ==> Input File <==

--------------------------------------------------------------------------
#psi4
#
memory 32 gb

molecule  {
0 1
  F       -1.6012940    -0.1166020     1.0531380
  F        0.9015100    -1.3283660     1.0533570
  F        0.6995270     1.4450080     1.0533050
  C       -1.4600740    -0.1063430    -0.3396260
  C        0.8221700    -1.2113200    -0.3394270
  C        0.6379870     1.3176500    -0.3394740
  C       -0.6367970    -1.3153920    -0.7539820
  C       -0.8206640     1.2092170    -0.7540300
  C        1.4576450     0.1061460    -0.7538300
  H       -2.4709910    -0.1799750    -0.7606130
  H        1.3914430    -2.0500220    -0.7602750
  H        1.0797340     2.2299680    -0.7603550
  H       -0.6879950    -1.4213320    -1.8456750
  H       -1.0732430    -2.2167570    -0.3126710
  H       -1.3873424     2.0440977    -0.3302955
  H       -0.8866680     1.3065820    -1.8457260
  H        2.4564240     0.1788940    -0.3124150
  H        1.5751120     0.1146800    -1.8455110
units angstrom
no_reorient  #important for SAPT in psi4, default
symmetry c1  #important for SAPT in psi4, default
}

set PROPERTIES_ORIGIN ["COM"]
properties('MP2/aug-cc-pvtz', properties = ['dipole'])
--------------------------------------------------------------------------

    Molecular point group: c1
  Charge       = 0
  Multiplicity = 1
  Basis Set: AUG-CC-PVTZ
    Blend: AUG-CC-PVTZ
  Basis Set: (AUG-CC-PVTZ AUX)
    Blend: AUG-CC-PVTZ-JKFIT

    Orbital Energies [Eh]
    ---------------------

    Doubly Occupied:

       1A    -26.265236     2A    -26.265140     3A    -26.265138
       4A    -11.320219     5A    -11.320212     6A    -11.320138
       7A    -11.244082     8A    -11.244071     9A    -11.244031
      10A     -1.581979    11A     -1.572561    12A     -1.572502
      13A     -1.136720    14A     -1.032716    15A     -1.032638
      16A     -0.871242    17A     -0.871157    18A     -0.779892
      19A     -0.745569    20A     -0.696858    21A     -0.696829
      22A     -0.671541    23A     -0.659767    24A     -0.656589
      25A     -0.656521    26A     -0.641152    27A     -0.640936
      28A     -0.584074    29A     -0.558033    30A     -0.548141
      31A     -0.547219    32A     -0.524695    33A     -0.524244
      34A     -0.520826    35A     -0.454770    36A     -0.454425

  @DF-RHF Final Energy:  -530.96547048399498

   => Energetics <=

    Nuclear Repulsion Energy =            525.5035225880046710
    One-Electron Energy =               -1777.4942578858283468
    Two-Electron Energy =                 721.0252648138286986
    Total Energy =                       -530.9654704839949773
  Basis Set: (AUG-CC-PVTZ AUX)
    Blend: AUG-CC-PVTZ-RI
    Molecular point group: c1

    Geometry (in Angstrom), charge = 0, multiplicity = 1:

       Center              X                  Y                   Z               Mass
    ------------   -----------------  -----------------  -----------------  -----------------
         F           -1.601256100751    -0.116648641934     0.967493685782    18.998403162730
         F            0.901547899249    -1.328412641934     0.967712685782    18.998403162730
         F            0.699564899249     1.444961358066     0.967660685782    18.998403162730
         C           -1.460036100751    -0.106389641934    -0.425270314218    12.000000000000
         C            0.822207899249    -1.211366641934    -0.425071314218    12.000000000000
         C            0.638024899249     1.317603358066    -0.425118314218    12.000000000000
         C           -0.636759100751    -1.315438641934    -0.839626314218    12.000000000000
         C           -0.820626100751     1.209170358066    -0.839674314218    12.000000000000
         C            1.457682899249     0.106099358066    -0.839474314218    12.000000000000
         H           -2.470953100751    -0.180021641934    -0.846257314218     1.007825032230
         H            1.391480899249    -2.050068641934    -0.845919314218     1.007825032230
         H            1.079771899249     2.229921358066    -0.845999314218     1.007825032230
         H           -0.687957100751    -1.421378641934    -1.931319314218     1.007825032230
         H           -1.073205100751    -2.216803641934    -0.398315314218     1.007825032230
         H           -1.387304500751     2.044051058066    -0.415939814218     1.007825032230
         H           -0.886630100751     1.306535358066    -1.931370314218     1.007825032230
         H            2.456461899249     0.178847358066    -0.398059314218     1.007825032230
         H            1.575149899249     0.114633358066    -1.931155314218     1.007825032230

  Basis Set: AUG-CC-PVTZ
    Blend: AUG-CC-PVTZ
  Basis Set: (AUG-CC-PVTZ AUX)
    Blend: AUG-CC-PVTZ-JKFIT
	 Reference Energy          =    -530.9654704839949773 [Eh]
	 Singles Energy            =      -0.0000000000000000 [Eh]
	 Same-Spin Energy          =      -0.4699908422620473 [Eh]
	 Opposite-Spin Energy      =      -1.4865974080270365 [Eh]
	 Correlation Energy        =      -1.9565882502890839 [Eh]
	 Total Energy              =    -532.9220587342840645 [Eh]

	 ================> DF-SCS-MP2 Energies <==================
	-----------------------------------------------------------
	 SCS Same-Spin Scale       =       0.3333333333333333 [-]
	 SCS Opposite-Spin Scale   =       1.2000000000000000 [-]
	 SCS Same-Spin Energy      =      -0.1566636140873491 [Eh]
	 SCS Opposite-Spin Energy  =      -1.7839168896324438 [Eh]
	 SCS Correlation Energy    =      -1.9405805037197930 [Eh]
	 SCS Total Energy          =    -532.9060509877148206 [Eh]
	-----------------------------------------------------------

  Dipole Moment: [D]
     X:    -0.0011      Y:     0.0022      Z:    -5.2306     Total:     5.2306

*** Psi4 exiting successfully. Buy a developer a beer!
