                               Psi4 1.4a3.dev225

  ==> Input File <==

--------------------------------------------------------------------------
#psi4
#
memory 32 gb

molecule  {
0 1
  F       -1.6012940    -0.1166020     1.0531380
  F        0.9015100    -1.3283660     1.0533570
  F        0.6995270     1.4450080     1.0533050
  C       -1.4600740    -0.1063430    -0.3396260
  C        0.8221700    -1.2113200    -0.3394270
  C        0.6379870     1.3176500    -0.3394740
  C       -0.6367970    -1.3153920    -0.7539820
  C       -0.8206640     1.2092170    -0.7540300
  C        1.4576450     0.1061460    -0.7538300
  H       -2.4709910    -0.1799750    -0.7606130
  H        1.3914430    -2.0500220    -0.7602750
  H        1.0797340     2.2299680    -0.7603550
  H       -0.6879950    -1.4213320    -1.8456750
  H       -1.0732430    -2.2167570    -0.3126710
  H       -1.3831040     2.0378510    -0.3127500
  H       -0.8746456     1.2888473    -1.6468770
  H        2.4564240     0.1788940    -0.3124150
  H        1.5751120     0.1146800    -1.8455110
units angstrom
no_reorient  #important for SAPT in psi4, default
symmetry c1  #important for SAPT in psi4, default
}

set PROPERTIES_ORIGIN ["COM"]
properties('MP2/aug-cc-pvtz', properties = ['dipole'])
--------------------------------------------------------------------------

    Molecular point group: c1
  Charge       = 0
  Multiplicity = 1
  Basis Set: AUG-CC-PVTZ
    Blend: AUG-CC-PVTZ
  Basis Set: (AUG-CC-PVTZ AUX)
    Blend: AUG-CC-PVTZ-JKFIT

    Orbital Energies [Eh]
    ---------------------

    Doubly Occupied:

       1A    -26.265055     2A    -26.263538     3A    -26.263536
       4A    -11.320074     5A    -11.318798     6A    -11.318791
       7A    -11.244086     8A    -11.244073     9A    -11.218905
      10A     -1.580943    11A     -1.571861    12A     -1.570994
      13A     -1.141576    14A     -1.043893    15A     -1.032405
      16A     -0.879855    17A     -0.870416    18A     -0.788268
      19A     -0.746848    20A     -0.705063    21A     -0.696133
      22A     -0.670521    23A     -0.659128    24A     -0.657476
      25A     -0.655430    26A     -0.643730    27A     -0.640279
      28A     -0.584323    29A     -0.574818    30A     -0.553342
      31A     -0.548069    32A     -0.525526    33A     -0.523688
      34A     -0.519981    35A     -0.453817    36A     -0.453495

  @DF-RHF Final Energy:  -530.93264242041357

   => Energetics <=

    Nuclear Repulsion Energy =            526.7537811298143424
    One-Electron Energy =               -1779.8753770545372390
    Two-Electron Energy =                 722.1889535043093247
    Total Energy =                       -530.9326424204135719
  Basis Set: (AUG-CC-PVTZ AUX)
    Blend: AUG-CC-PVTZ-RI
    Molecular point group: c1

    Geometry (in Angstrom), charge = 0, multiplicity = 1:

       Center              X                  Y                   Z               Mass
    ------------   -----------------  -----------------  -----------------  -----------------
         F           -1.601374798220    -0.116473587111     0.965914090727    18.998403162730
         F            0.901429201780    -1.328237587111     0.966133090727    18.998403162730
         F            0.699446201780     1.445136412889     0.966081090727    18.998403162730
         C           -1.460154798220    -0.106214587111    -0.426849909273    12.000000000000
         C            0.822089201780    -1.211191587111    -0.426650909273    12.000000000000
         C            0.637906201780     1.317778412889    -0.426697909273    12.000000000000
         C           -0.636877798220    -1.315263587111    -0.841205909273    12.000000000000
         C           -0.820744798220     1.209345412889    -0.841253909273    12.000000000000
         C            1.457564201780     0.106274412889    -0.841053909273    12.000000000000
         H           -2.471071798220    -0.179846587111    -0.847836909273     1.007825032230
         H            1.391362201780    -2.049893587111    -0.847498909273     1.007825032230
         H            1.079653201780     2.230096412889    -0.847578909273     1.007825032230
         H           -0.688075798220    -1.421203587111    -1.932898909273     1.007825032230
         H           -1.073323798220    -2.216628587111    -0.399894909273     1.007825032230
         H           -1.383184798220     2.037979412889    -0.399973909273     1.007825032230
         H           -0.874726398220     1.288975712889    -1.734100909273     1.007825032230
         H            2.456343201780     0.179022412889    -0.399638909273     1.007825032230
         H            1.575031201780     0.114808412889    -1.932734909273     1.007825032230

  Basis Set: AUG-CC-PVTZ
    Blend: AUG-CC-PVTZ
  Basis Set: (AUG-CC-PVTZ AUX)
    Blend: AUG-CC-PVTZ-JKFIT
	 Reference Energy          =    -530.9326424204135719 [Eh]
	 Singles Energy            =      -0.0000000000000000 [Eh]
	 Same-Spin Energy          =      -0.4700255905369161 [Eh]
	 Opposite-Spin Energy      =      -1.4859256835739021 [Eh]
	 Correlation Energy        =      -1.9559512741108183 [Eh]
	 Total Energy              =    -532.8885936945243884 [Eh]

	 ================> DF-SCS-MP2 Energies <==================
	-----------------------------------------------------------
	 SCS Same-Spin Scale       =       0.3333333333333333 [-]
	 SCS Opposite-Spin Scale   =       1.2000000000000000 [-]
	 SCS Same-Spin Energy      =      -0.1566751968456387 [Eh]
	 SCS Opposite-Spin Energy  =      -1.7831108202886825 [Eh]
	 SCS Correlation Energy    =      -1.9397860171343211 [Eh]
	 SCS Total Energy          =    -532.8724284375479101 [Eh]
	-----------------------------------------------------------

  Dipole Moment: [D]
     X:    -0.0029      Y:     0.0048      Z:    -5.2887     Total:     5.2887

*** Psi4 exiting successfully. Buy a developer a beer!
