                               Psi4 1.4a3.dev225

  ==> Input File <==

--------------------------------------------------------------------------
#psi4
#
memory 32 gb

molecule  {
0 1
  F       -1.6012940    -0.1166020     1.0531380
  F        0.9015100    -1.3283660     1.0533570
  F        0.6995270     1.4450080     1.0533050
  C       -1.4600740    -0.1063430    -0.3396260
  C        0.8221700    -1.2113200    -0.3394270
  C        0.6379870     1.3176500    -0.3394740
  C       -0.7451024    -1.1563367    -0.6994718
  C       -0.8206640     1.2092170    -0.7540300
  C        1.4576450     0.1061460    -0.7538300
  H       -2.4709910    -0.1799750    -0.7606130
  H        1.3914430    -2.0500220    -0.7602750
  H        1.0797340     2.2299680    -0.7603550
  H       -0.6879950    -1.4213320    -1.8456750
  H       -1.0732430    -2.2167570    -0.3126710
  H       -1.3831040     2.0378510    -0.3127500
  H       -0.8866680     1.3065820    -1.8457260
  H        2.4564240     0.1788940    -0.3124150
  H        1.5751120     0.1146800    -1.8455110
units angstrom
no_reorient  #important for SAPT in psi4, default
symmetry c1  #important for SAPT in psi4, default
}

set PROPERTIES_ORIGIN ["COM"]
properties('MP2/aug-cc-pvtz', properties = ['dipole'])
--------------------------------------------------------------------------

    Molecular point group: c1
  Charge       = 0
  Multiplicity = 1
  Basis Set: AUG-CC-PVTZ
    Blend: AUG-CC-PVTZ
  Basis Set: (AUG-CC-PVTZ AUX)
    Blend: AUG-CC-PVTZ-JKFIT

    Orbital Energies [Eh]
    ---------------------

    Doubly Occupied:

       1A    -26.265671     2A    -26.265008     3A    -26.264037
       4A    -11.326477     5A    -11.320844     6A    -11.309219
       7A    -11.251846     8A    -11.245111     9A    -11.242646
      10A     -1.583334    11A     -1.574236    12A     -1.572139
      13A     -1.153712    14A     -1.055814    15A     -1.023340
      16A     -0.883492    17A     -0.860995    18A     -0.777789
      19A     -0.750863    20A     -0.701075    21A     -0.695976
      22A     -0.680861    23A     -0.667399    24A     -0.657213
      25A     -0.654103    26A     -0.642614    27A     -0.635260
      28A     -0.587301    29A     -0.560114    30A     -0.548623
      31A     -0.544888    32A     -0.527562    33A     -0.517531
      34A     -0.506572    35A     -0.468652    36A     -0.429239

  @DF-RHF Final Energy:  -530.91366252751141

   => Energetics <=

    Nuclear Repulsion Energy =            528.1450489262398378
    One-Electron Energy =               -1782.6143157961721499
    Two-Electron Energy =                 723.5556043424207928
    Total Energy =                       -530.9136625275114056
  Basis Set: (AUG-CC-PVTZ AUX)
    Blend: AUG-CC-PVTZ-RI
    Molecular point group: c1

    Geometry (in Angstrom), charge = 0, multiplicity = 1:

       Center              X                  Y                   Z               Mass
    ------------   -----------------  -----------------  -----------------  -----------------
         F           -1.591873655681    -0.130427364079     0.962627846464    18.998403162730
         F            0.910930344319    -1.342191364079     0.962846846464    18.998403162730
         F            0.708947344319     1.431182635921     0.962794846464    18.998403162730
         C           -1.450653655681    -0.120168364079    -0.430136153536    12.000000000000
         C            0.831590344319    -1.225145364079    -0.429937153536    12.000000000000
         C            0.647407344319     1.303824635921    -0.429984153536    12.000000000000
         C           -0.735682055681    -1.170162064079    -0.789981953536    12.000000000000
         C           -0.811243655681     1.195391635921    -0.844540153536    12.000000000000
         C            1.467065344319     0.092320635921    -0.844340153536    12.000000000000
         H           -2.461570655681    -0.193800364079    -0.851123153536     1.007825032230
         H            1.400863344319    -2.063847364079    -0.850785153536     1.007825032230
         H            1.089154344319     2.216142635921    -0.850865153536     1.007825032230
         H           -0.678574655681    -1.435157364079    -1.936185153536     1.007825032230
         H           -1.063822655681    -2.230582364079    -0.403181153536     1.007825032230
         H           -1.373683655681     2.024025635921    -0.403260153536     1.007825032230
         H           -0.877247655681     1.292756635921    -1.936236153536     1.007825032230
         H            2.465844344319     0.165068635921    -0.402925153536     1.007825032230
         H            1.584532344319     0.100854635921    -1.936021153536     1.007825032230

  Basis Set: AUG-CC-PVTZ
    Blend: AUG-CC-PVTZ
  Basis Set: (AUG-CC-PVTZ AUX)
    Blend: AUG-CC-PVTZ-JKFIT
	 Reference Energy          =    -530.9136625275114056 [Eh]
	 Singles Energy            =      -0.0000000000000000 [Eh]
	 Same-Spin Energy          =      -0.4729396124794211 [Eh]
	 Opposite-Spin Energy      =      -1.4909648976218624 [Eh]
	 Correlation Energy        =      -1.9639045101012833 [Eh]
	 Total Energy              =    -532.8775670376127209 [Eh]

	 ================> DF-SCS-MP2 Energies <==================
	-----------------------------------------------------------
	 SCS Same-Spin Scale       =       0.3333333333333333 [-]
	 SCS Opposite-Spin Scale   =       1.2000000000000000 [-]
	 SCS Same-Spin Energy      =      -0.1576465374931403 [Eh]
	 SCS Opposite-Spin Energy  =      -1.7891578771462349 [Eh]
	 SCS Correlation Energy    =      -1.9468044146393753 [Eh]
	 SCS Total Energy          =    -532.8604669421507651 [Eh]
	-----------------------------------------------------------

  Dipole Moment: [D]
     X:     0.1056      Y:    -0.0304      Z:    -5.2478     Total:     5.2489

*** Psi4 exiting successfully. Buy a developer a beer!
