                               Psi4 1.4a3.dev225

  ==> Input File <==

--------------------------------------------------------------------------
#psi4
#
memory 32 gb

molecule  {
0 1
  F       -1.6012940    -0.1166020     1.0531380
  F        0.9015100    -1.3283660     1.0533570
  F        0.6995270     1.4450080     1.0533050
  C       -1.4600740    -0.1063430    -0.3396260
  C        0.8221700    -1.2113200    -0.3394270
  C        0.6379870     1.3176500    -0.3394740
  C       -0.6367970    -1.3153920    -0.7539820
  C       -0.8206640     1.2092170    -0.7540300
  C        1.4576450     0.1061460    -0.7538300
  H       -2.4709910    -0.1799750    -0.7606130
  H        1.3914430    -2.0500220    -0.7602750
  H        1.0797340     2.2299680    -0.7603550
  H       -0.6879950    -1.4213320    -1.8456750
  H       -1.0732430    -2.2167570    -0.3126710
  H       -1.3317112     1.9621348    -0.3530718
  H       -0.8866680     1.3065820    -1.8457260
  H        2.4564240     0.1788940    -0.3124150
  H        1.5751120     0.1146800    -1.8455110
units angstrom
no_reorient  #important for SAPT in psi4, default
symmetry c1  #important for SAPT in psi4, default
}

set PROPERTIES_ORIGIN ["COM"]
properties('MP2/aug-cc-pvtz', properties = ['dipole'])
--------------------------------------------------------------------------

    Molecular point group: c1
  Charge       = 0
  Multiplicity = 1
  Basis Set: AUG-CC-PVTZ
    Blend: AUG-CC-PVTZ
  Basis Set: (AUG-CC-PVTZ AUX)
    Blend: AUG-CC-PVTZ-JKFIT

    Orbital Energies [Eh]
    ---------------------

    Doubly Occupied:

       1A    -26.265357     2A    -26.265355     3A    -26.264900
       4A    -11.319673     5A    -11.319476     6A    -11.319468
       7A    -11.243397     8A    -11.243383     9A    -11.232333
      10A     -1.582024    11A     -1.572712    12A     -1.572418
      13A     -1.137573    14A     -1.037710    15A     -1.032124
      16A     -0.876226    17A     -0.870868    18A     -0.780486
      19A     -0.745985    20A     -0.696745    21A     -0.696646
      22A     -0.671492    23A     -0.670154    24A     -0.656547
      25A     -0.656471    26A     -0.641917    27A     -0.640729
      28A     -0.583932    29A     -0.561213    30A     -0.554528
      31A     -0.547701    32A     -0.524203    33A     -0.523874
      34A     -0.520546    35A     -0.456147    36A     -0.453882

  @DF-RHF Final Energy:  -530.95962889207567

   => Energetics <=

    Nuclear Repulsion Energy =            526.1113094536551671
    One-Electron Energy =               -1778.6654865807042825
    Two-Electron Energy =                 721.5945482349734448
    Total Energy =                       -530.9596288920756706
  Basis Set: (AUG-CC-PVTZ AUX)
    Blend: AUG-CC-PVTZ-RI
    Molecular point group: c1

    Geometry (in Angstrom), charge = 0, multiplicity = 1:

       Center              X                  Y                   Z               Mass
    ------------   -----------------  -----------------  -----------------  -----------------
         F           -1.601662186712    -0.116050344881     0.967659943847    18.998403162730
         F            0.901141813288    -1.327814344881     0.967878943847    18.998403162730
         F            0.699158813288     1.445559655119     0.967826943847    18.998403162730
         C           -1.460442186712    -0.105791344881    -0.425104056153    12.000000000000
         C            0.821801813288    -1.210768344881    -0.424905056153    12.000000000000
         C            0.637618813288     1.318201655119    -0.424952056153    12.000000000000
         C           -0.637165186712    -1.314840344881    -0.839460056153    12.000000000000
         C           -0.821032186712     1.209768655119    -0.839508056153    12.000000000000
         C            1.457276813288     0.106697655119    -0.839308056153    12.000000000000
         H           -2.471359186712    -0.179423344881    -0.846091056153     1.007825032230
         H            1.391074813288    -2.049470344881    -0.845753056153     1.007825032230
         H            1.079365813288     2.230519655119    -0.845833056153     1.007825032230
         H           -0.688363186712    -1.420780344881    -1.931153056153     1.007825032230
         H           -1.073611186712    -2.216205344881    -0.398149056153     1.007825032230
         H           -1.332079386712     1.962686455119    -0.438549856153     1.007825032230
         H           -0.887036186712     1.307133655119    -1.931204056153     1.007825032230
         H            2.456055813288     0.179445655119    -0.397893056153     1.007825032230
         H            1.574743813288     0.115231655119    -1.930989056153     1.007825032230

  Basis Set: AUG-CC-PVTZ
    Blend: AUG-CC-PVTZ
  Basis Set: (AUG-CC-PVTZ AUX)
    Blend: AUG-CC-PVTZ-JKFIT
	 Reference Energy          =    -530.9596288920756706 [Eh]
	 Singles Energy            =      -0.0000000000000000 [Eh]
	 Same-Spin Energy          =      -0.4699392216444445 [Eh]
	 Opposite-Spin Energy      =      -1.4860524268157755 [Eh]
	 Correlation Energy        =      -1.9559916484602200 [Eh]
	 Total Energy              =    -532.9156205405358833 [Eh]

	 ================> DF-SCS-MP2 Energies <==================
	-----------------------------------------------------------
	 SCS Same-Spin Scale       =       0.3333333333333333 [-]
	 SCS Opposite-Spin Scale   =       1.2000000000000000 [-]
	 SCS Same-Spin Energy      =      -0.1566464072148148 [Eh]
	 SCS Opposite-Spin Energy  =      -1.7832629121789305 [Eh]
	 SCS Correlation Energy    =      -1.9399093193937453 [Eh]
	 SCS Total Energy          =    -532.8995382114694621 [Eh]
	-----------------------------------------------------------

  Dipole Moment: [D]
     X:    -0.0223      Y:     0.0335      Z:    -5.2268     Total:     5.2269

*** Psi4 exiting successfully. Buy a developer a beer!
