                               Psi4 1.4a3.dev225

  ==> Input File <==

--------------------------------------------------------------------------
#psi4
#
memory 32 gb

molecule  {
0 1
  F       -1.6012940    -0.1166020     1.0531380
  F        0.9015100    -1.3283660     1.0533570
  F        0.6995270     1.4450080     1.0533050
  C       -1.4600740    -0.1063430    -0.3396260
  C        0.8221700    -1.2113200    -0.3394270
  C        0.6379870     1.3176500    -0.3394740
  C       -0.6367970    -1.3153920    -0.7539820
  C       -0.8206640     1.2092170    -0.7540300
  C        1.4199431     0.1317986    -0.7266926
  H       -2.4709910    -0.1799750    -0.7606130
  H        1.3914430    -2.0500220    -0.7602750
  H        1.0797340     2.2299680    -0.7603550
  H       -0.6879950    -1.4213320    -1.8456750
  H       -1.0732430    -2.2167570    -0.3126710
  H       -1.3831040     2.0378510    -0.3127500
  H       -0.8866680     1.3065820    -1.8457260
  H        2.4564240     0.1788940    -0.3124150
  H        1.5751120     0.1146800    -1.8455110
units angstrom
no_reorient  #important for SAPT in psi4, default
symmetry c1  #important for SAPT in psi4, default
}

set PROPERTIES_ORIGIN ["COM"]
properties('MP2/aug-cc-pvtz', properties = ['dipole'])
--------------------------------------------------------------------------

    Molecular point group: c1
  Charge       = 0
  Multiplicity = 1
  Basis Set: AUG-CC-PVTZ
    Blend: AUG-CC-PVTZ
  Basis Set: (AUG-CC-PVTZ AUX)
    Blend: AUG-CC-PVTZ-JKFIT

    Orbital Energies [Eh]
    ---------------------

    Doubly Occupied:

       1A    -26.265389     2A    -26.264742     3A    -26.264513
       4A    -11.320790     5A    -11.320383     6A    -11.318323
       7A    -11.246058     8A    -11.244069     9A    -11.243664
      10A     -1.582281    11A     -1.572907    12A     -1.572524
      13A     -1.140500    14A     -1.036992    15A     -1.031860
      16A     -0.874624    17A     -0.869185    18A     -0.778676
      19A     -0.747293    20A     -0.697282    21A     -0.696456
      22A     -0.673712    23A     -0.659822    24A     -0.657528
      25A     -0.656734    26A     -0.641738    27A     -0.639546
      28A     -0.585007    29A     -0.556887    30A     -0.548158
      31A     -0.536990    32A     -0.528424    33A     -0.524005
      34A     -0.521077    35A     -0.460768    36A     -0.451219

  @DF-RHF Final Energy:  -530.96188559971972

   => Energetics <=

    Nuclear Repulsion Energy =            526.5336554503513753
    One-Electron Energy =               -1779.5308261761970243
    Two-Electron Energy =                 722.0352851261258138
    Total Energy =                       -530.9618855997197215
  Basis Set: (AUG-CC-PVTZ AUX)
    Blend: AUG-CC-PVTZ-RI
    Molecular point group: c1

    Geometry (in Angstrom), charge = 0, multiplicity = 1:

       Center              X                  Y                   Z               Mass
    ------------   -----------------  -----------------  -----------------  -----------------
         F           -1.598010171849    -0.118832643911     0.965006958403    18.998403162730
         F            0.904793828151    -1.330596643911     0.965225958403    18.998403162730
         F            0.702810828151     1.442777356089     0.965173958403    18.998403162730
         C           -1.456790171849    -0.108573643911    -0.427757041597    12.000000000000
         C            0.825453828151    -1.213550643911    -0.427558041597    12.000000000000
         C            0.641270828151     1.315419356089    -0.427605041597    12.000000000000
         C           -0.633513171849    -1.317622643911    -0.842113041597    12.000000000000
         C           -0.817380171849     1.206986356089    -0.842161041597    12.000000000000
         C            1.423226928151     0.129567956089    -0.814823641597    12.000000000000
         H           -2.467707171849    -0.182205643911    -0.848744041597     1.007825032230
         H            1.394726828151    -2.052252643911    -0.848406041597     1.007825032230
         H            1.083017828151     2.227737356089    -0.848486041597     1.007825032230
         H           -0.684711171849    -1.423562643911    -1.933806041597     1.007825032230
         H           -1.069959171849    -2.218987643911    -0.400802041597     1.007825032230
         H           -1.379820171849     2.035620356089    -0.400881041597     1.007825032230
         H           -0.883384171849     1.304351356089    -1.933857041597     1.007825032230
         H            2.459707828151     0.176663356089    -0.400546041597     1.007825032230
         H            1.578395828151     0.112449356089    -1.933642041597     1.007825032230

  Basis Set: AUG-CC-PVTZ
    Blend: AUG-CC-PVTZ
  Basis Set: (AUG-CC-PVTZ AUX)
    Blend: AUG-CC-PVTZ-JKFIT
	 Reference Energy          =    -530.9618855997197215 [Eh]
	 Singles Energy            =      -0.0000000000000000 [Eh]
	 Same-Spin Energy          =      -0.4704704239645027 [Eh]
	 Opposite-Spin Energy      =      -1.4871692205607001 [Eh]
	 Correlation Energy        =      -1.9576396445252029 [Eh]
	 Total Energy              =    -532.9195252442449373 [Eh]

	 ================> DF-SCS-MP2 Energies <==================
	-----------------------------------------------------------
	 SCS Same-Spin Scale       =       0.3333333333333333 [-]
	 SCS Opposite-Spin Scale   =       1.2000000000000000 [-]
	 SCS Same-Spin Energy      =      -0.1568234746548342 [Eh]
	 SCS Opposite-Spin Energy  =      -1.7846030646728401 [Eh]
	 SCS Correlation Energy    =      -1.9414265393276744 [Eh]
	 SCS Total Energy          =    -532.9033121390474435 [Eh]
	-----------------------------------------------------------

  Dipole Moment: [D]
     X:    -0.0001      Y:    -0.0177      Z:    -5.2318     Total:     5.2318

*** Psi4 exiting successfully. Buy a developer a beer!
