                               Psi4 1.4a3.dev225

  ==> Input File <==

--------------------------------------------------------------------------
#psi4
#
memory 32 gb

molecule  {
0 1
  F       -1.6012940    -0.1166020     1.0531380
  F        0.9015100    -1.3283660     1.0533570
  F        0.6995270     1.4450080     1.0533050
  C       -1.4600740    -0.1063430    -0.3396260
  C        0.8221700    -1.2113200    -0.3394270
  C        0.6379870     1.3176500    -0.3394740
  C       -0.6367970    -1.3153920    -0.7539820
  C       -0.8206640     1.2092170    -0.7540300
  C        1.4762085     0.0927157    -0.7672114
  H       -2.4709910    -0.1799750    -0.7606130
  H        1.3914430    -2.0500220    -0.7602750
  H        1.0797340     2.2299680    -0.7603550
  H       -0.6879950    -1.4213320    -1.8456750
  H       -1.0732430    -2.2167570    -0.3126710
  H       -1.3831040     2.0378510    -0.3127500
  H       -0.8866680     1.3065820    -1.8457260
  H        2.4564240     0.1788940    -0.3124150
  H        1.5751120     0.1146800    -1.8455110
units angstrom
no_reorient  #important for SAPT in psi4, default
symmetry c1  #important for SAPT in psi4, default
}

set PROPERTIES_ORIGIN ["COM"]
properties('MP2/aug-cc-pvtz', properties = ['dipole'])
--------------------------------------------------------------------------

    Molecular point group: c1
  Charge       = 0
  Multiplicity = 1
  Basis Set: AUG-CC-PVTZ
    Blend: AUG-CC-PVTZ
  Basis Set: (AUG-CC-PVTZ AUX)
    Blend: AUG-CC-PVTZ-JKFIT

    Orbital Energies [Eh]
    ---------------------

    Doubly Occupied:

       1A    -26.265619     2A    -26.265456     3A    -26.265158
       4A    -11.320894     5A    -11.319988     6A    -11.319908
       7A    -11.244215     8A    -11.243999     9A    -11.243242
      10A     -1.581948    11A     -1.572645    12A     -1.572444
      13A     -1.135095    14A     -1.033129    15A     -1.030728
      16A     -0.872160    17A     -0.869567    18A     -0.780385
      19A     -0.744552    20A     -0.697144    21A     -0.696762
      22A     -0.670826    23A     -0.660427    24A     -0.656643
      25A     -0.655607    26A     -0.641545    27A     -0.640509
      28A     -0.583722    29A     -0.561174    30A     -0.551756
      31A     -0.548123    32A     -0.524363    33A     -0.523592
      34A     -0.518887    35A     -0.455800    36A     -0.450659

  @DF-RHF Final Energy:  -530.96503719620705

   => Energetics <=

    Nuclear Repulsion Energy =            525.0537371304584440
    One-Electron Energy =               -1776.6002071700252145
    Two-Electron Energy =                 720.5814328433598348
    Total Energy =                       -530.9650371962070494
  Basis Set: (AUG-CC-PVTZ AUX)
    Blend: AUG-CC-PVTZ-RI
    Molecular point group: c1

    Geometry (in Angstrom), charge = 0, multiplicity = 1:

       Center              X                  Y                   Z               Mass
    ------------   -----------------  -----------------  -----------------  -----------------
         F           -1.602900489422    -0.115435746481     0.968528657345    18.998403162730
         F            0.899903510578    -1.327199746481     0.968747657345    18.998403162730
         F            0.697920510578     1.446174253519     0.968695657345    18.998403162730
         C           -1.461680489422    -0.105176746481    -0.424235342655    12.000000000000
         C            0.820563510578    -1.210153746481    -0.424036342655    12.000000000000
         C            0.636380510578     1.318816253519    -0.424083342655    12.000000000000
         C           -0.638403489422    -1.314225746481    -0.838591342655    12.000000000000
         C           -0.822270489422     1.210383253519    -0.838639342655    12.000000000000
         C            1.474602010578     0.093881953519    -0.851820742655    12.000000000000
         H           -2.472597489422    -0.178808746481    -0.845222342655     1.007825032230
         H            1.389836510578    -2.048855746481    -0.844884342655     1.007825032230
         H            1.078127510578     2.231134253519    -0.844964342655     1.007825032230
         H           -0.689601489422    -1.420165746481    -1.930284342655     1.007825032230
         H           -1.074849489422    -2.215590746481    -0.397280342655     1.007825032230
         H           -1.384710489422     2.039017253519    -0.397359342655     1.007825032230
         H           -0.888274489422     1.307748253519    -1.930335342655     1.007825032230
         H            2.454817510578     0.180060253519    -0.397024342655     1.007825032230
         H            1.573505510578     0.115846253519    -1.930120342655     1.007825032230

  Basis Set: AUG-CC-PVTZ
    Blend: AUG-CC-PVTZ
  Basis Set: (AUG-CC-PVTZ AUX)
    Blend: AUG-CC-PVTZ-JKFIT
	 Reference Energy          =    -530.9650371962070494 [Eh]
	 Singles Energy            =      -0.0000000000000000 [Eh]
	 Same-Spin Energy          =      -0.4698483975493261 [Eh]
	 Opposite-Spin Energy      =      -1.4865063201960664 [Eh]
	 Correlation Energy        =      -1.9563547177453926 [Eh]
	 Total Energy              =    -532.9213919139524478 [Eh]

	 ================> DF-SCS-MP2 Energies <==================
	-----------------------------------------------------------
	 SCS Same-Spin Scale       =       0.3333333333333333 [-]
	 SCS Opposite-Spin Scale   =       1.2000000000000000 [-]
	 SCS Same-Spin Energy      =      -0.1566161325164420 [Eh]
	 SCS Opposite-Spin Energy  =      -1.7838075842352796 [Eh]
	 SCS Correlation Energy    =      -1.9404237167517215 [Eh]
	 SCS Total Energy          =    -532.9054609129588016 [Eh]
	-----------------------------------------------------------

  Dipole Moment: [D]
     X:    -0.0009      Y:     0.0083      Z:    -5.2195     Total:     5.2195

*** Psi4 exiting successfully. Buy a developer a beer!
