                               Psi4 1.4a3.dev225

  ==> Input File <==

--------------------------------------------------------------------------
#psi4
#
memory 32 gb

molecule  {
0 1
  F       -1.6012940    -0.1166020     1.0531380
  F        0.9015100    -1.3283660     1.0533570
  F        0.6995270     1.4450080     1.0533050
  C       -1.4600740    -0.1063430    -0.3396260
  C        0.8360132    -1.2155541    -0.3904796
  C        0.6379870     1.3176500    -0.3394740
  C       -0.6367970    -1.3153920    -0.7539820
  C       -0.8206640     1.2092170    -0.7540300
  C        1.4576450     0.1061460    -0.7538300
  H       -2.4709910    -0.1799750    -0.7606130
  H        1.3914430    -2.0500220    -0.7602750
  H        1.0797340     2.2299680    -0.7603550
  H       -0.6879950    -1.4213320    -1.8456750
  H       -1.0732430    -2.2167570    -0.3126710
  H       -1.3831040     2.0378510    -0.3127500
  H       -0.8866680     1.3065820    -1.8457260
  H        2.4564240     0.1788940    -0.3124150
  H        1.5751120     0.1146800    -1.8455110
units angstrom
no_reorient  #important for SAPT in psi4, default
symmetry c1  #important for SAPT in psi4, default
}

set PROPERTIES_ORIGIN ["COM"]
properties('MP2/aug-cc-pvtz', properties = ['dipole'])
--------------------------------------------------------------------------

    Molecular point group: c1
  Charge       = 0
  Multiplicity = 1
  Basis Set: AUG-CC-PVTZ
    Blend: AUG-CC-PVTZ
  Basis Set: (AUG-CC-PVTZ AUX)
    Blend: AUG-CC-PVTZ-JKFIT

    Orbital Energies [Eh]
    ---------------------

    Doubly Occupied:

       1A    -26.265058     2A    -26.264734     3A    -26.252829
       4A    -11.321662     5A    -11.321252     6A    -11.320256
       7A    -11.245906     8A    -11.245753     9A    -11.244748
      10A     -1.579197    11A     -1.572175    12A     -1.550626
      13A     -1.139111    14A     -1.036496    15A     -1.033722
      16A     -0.873436    17A     -0.872364    18A     -0.777254
      19A     -0.744245    20A     -0.694708    21A     -0.689722
      22A     -0.668838    23A     -0.660698    24A     -0.654525
      25A     -0.652179    26A     -0.634934    27A     -0.633754
      28A     -0.584773    29A     -0.554773    30A     -0.548788
      31A     -0.547856    32A     -0.525925    33A     -0.523945
      34A     -0.523065    35A     -0.460890    36A     -0.457520

  @DF-RHF Final Energy:  -530.96174109001697

   => Energetics <=

    Nuclear Repulsion Energy =            524.8091759674770174
    One-Electron Energy =               -1776.1864096606630028
    Two-Electron Energy =                 720.4154926031691275
    Total Energy =                       -530.9617410900169716
  Basis Set: (AUG-CC-PVTZ AUX)
    Blend: AUG-CC-PVTZ-RI
    Molecular point group: c1

    Geometry (in Angstrom), charge = 0, multiplicity = 1:

       Center              X                  Y                   Z               Mass
    ------------   -----------------  -----------------  -----------------  -----------------
         F           -1.602490223681    -0.116235035892     0.971802856611    18.998403162730
         F            0.900313776319    -1.327999035892     0.972021856611    18.998403162730
         F            0.698330776319     1.445374964108     0.971969856611    18.998403162730
         C           -1.461270223681    -0.105976035892    -0.420961143389    12.000000000000
         C            0.834816976319    -1.215187135892    -0.471814743389    12.000000000000
         C            0.636790776319     1.318016964108    -0.420809143389    12.000000000000
         C           -0.637993223681    -1.315025035892    -0.835317143389    12.000000000000
         C           -0.821860223681     1.209583964108    -0.835365143389    12.000000000000
         C            1.456448776319     0.106512964108    -0.835165143389    12.000000000000
         H           -2.472187223681    -0.179608035892    -0.841948143389     1.007825032230
         H            1.390246776319    -2.049655035892    -0.841610143389     1.007825032230
         H            1.078537776319     2.230334964108    -0.841690143389     1.007825032230
         H           -0.689191223681    -1.420965035892    -1.927010143389     1.007825032230
         H           -1.074439223681    -2.216390035892    -0.394006143389     1.007825032230
         H           -1.384300223681     2.038217964108    -0.394085143389     1.007825032230
         H           -0.887864223681     1.306948964108    -1.927061143389     1.007825032230
         H            2.455227776319     0.179260964108    -0.393750143389     1.007825032230
         H            1.573915776319     0.115046964108    -1.926846143389     1.007825032230

  Basis Set: AUG-CC-PVTZ
    Blend: AUG-CC-PVTZ
  Basis Set: (AUG-CC-PVTZ AUX)
    Blend: AUG-CC-PVTZ-JKFIT
	 Reference Energy          =    -530.9617410900169716 [Eh]
	 Singles Energy            =      -0.0000000000000000 [Eh]
	 Same-Spin Energy          =      -0.4702364150296471 [Eh]
	 Opposite-Spin Energy      =      -1.4877070401933374 [Eh]
	 Correlation Energy        =      -1.9579434552229844 [Eh]
	 Total Energy              =    -532.9196845452399884 [Eh]

	 ================> DF-SCS-MP2 Energies <==================
	-----------------------------------------------------------
	 SCS Same-Spin Scale       =       0.3333333333333333 [-]
	 SCS Opposite-Spin Scale   =       1.2000000000000000 [-]
	 SCS Same-Spin Energy      =      -0.1567454716765490 [Eh]
	 SCS Opposite-Spin Energy  =      -1.7852484482320048 [Eh]
	 SCS Correlation Energy    =      -1.9419939199085539 [Eh]
	 SCS Total Energy          =    -532.9037350099255264 [Eh]
	-----------------------------------------------------------

  Dipole Moment: [D]
     X:     0.0017      Y:     0.0334      Z:    -5.4155     Total:     5.4156

*** Psi4 exiting successfully. Buy a developer a beer!
