                               Psi4 1.4a3.dev225

  ==> Input File <==

--------------------------------------------------------------------------
#psi4
#
memory 32 gb

molecule  {
0 1
  F       -1.6012940    -0.1166020     1.0531380
  F        0.9015100    -1.3283660     1.0533570
  F        0.6995270     1.4450080     1.0533050
  C       -1.4802491    -0.1078086    -0.1406516
  C        0.8221700    -1.2113200    -0.3394270
  C        0.6379870     1.3176500    -0.3394740
  C       -0.6367970    -1.3153920    -0.7539820
  C       -0.8206640     1.2092170    -0.7540300
  C        1.4576450     0.1061460    -0.7538300
  H       -2.4709910    -0.1799750    -0.7606130
  H        1.3914430    -2.0500220    -0.7602750
  H        1.0797340     2.2299680    -0.7603550
  H       -0.6879950    -1.4213320    -1.8456750
  H       -1.0732430    -2.2167570    -0.3126710
  H       -1.3831040     2.0378510    -0.3127500
  H       -0.8866680     1.3065820    -1.8457260
  H        2.4564240     0.1788940    -0.3124150
  H        1.5751120     0.1146800    -1.8455110
units angstrom
no_reorient  #important for SAPT in psi4, default
symmetry c1  #important for SAPT in psi4, default
}

set PROPERTIES_ORIGIN ["COM"]
properties('MP2/aug-cc-pvtz', properties = ['dipole'])
--------------------------------------------------------------------------

    Molecular point group: c1
  Charge       = 0
  Multiplicity = 1
  Basis Set: AUG-CC-PVTZ
    Blend: AUG-CC-PVTZ
  Basis Set: (AUG-CC-PVTZ AUX)
    Blend: AUG-CC-PVTZ-JKFIT

    Orbital Energies [Eh]
    ---------------------

    Doubly Occupied:

       1A    -26.317817     2A    -26.266186     3A    -26.266184
       4A    -11.329830     5A    -11.315182     6A    -11.315174
       7A    -11.240370     8A    -11.237421     9A    -11.237408
      10A     -1.705872    11A     -1.579963    12A     -1.573782
      13A     -1.122554    14A     -1.023580    15A     -1.016750
      16A     -0.887197    17A     -0.865204    18A     -0.805735
      19A     -0.774590    20A     -0.742114    21A     -0.727361
      22A     -0.690024    23A     -0.686766    24A     -0.659360
      25A     -0.658784    26A     -0.649448    27A     -0.644324
      28A     -0.579631    29A     -0.563643    30A     -0.546965
      31A     -0.545627    32A     -0.519202    33A     -0.507309
      34A     -0.502595    35A     -0.428230    36A     -0.421455

  @DF-RHF Final Energy:  -530.92481199004283

   => Energetics <=

    Nuclear Repulsion Energy =            527.5108516367845368
    One-Electron Energy =               -1780.9640564389180781
    Two-Electron Energy =                 722.5283928120907149
    Total Energy =                       -530.9248119900428264
  Basis Set: (AUG-CC-PVTZ AUX)
    Blend: AUG-CC-PVTZ-RI
    Molecular point group: c1

    Geometry (in Angstrom), charge = 0, multiplicity = 1:

       Center              X                  Y                   Z               Mass
    ------------   -----------------  -----------------  -----------------  -----------------
         F           -1.599533516889    -0.116475660578     0.950071713993    18.998403162730
         F            0.903270483111    -1.328239660578     0.950290713993    18.998403162730
         F            0.701287483111     1.445134339422     0.950238713993    18.998403162730
         C           -1.478488616889    -0.107682260578    -0.243717886007    12.000000000000
         C            0.823930483111    -1.211193660578    -0.442493286007    12.000000000000
         C            0.639747483111     1.317776339422    -0.442540286007    12.000000000000
         C           -0.635036516889    -1.315265660578    -0.857048286007    12.000000000000
         C           -0.818903516889     1.209343339422    -0.857096286007    12.000000000000
         C            1.459405483111     0.106272339422    -0.856896286007    12.000000000000
         H           -2.469230516889    -0.179848660578    -0.863679286007     1.007825032230
         H            1.393203483111    -2.049895660578    -0.863341286007     1.007825032230
         H            1.081494483111     2.230094339422    -0.863421286007     1.007825032230
         H           -0.686234516889    -1.421205660578    -1.948741286007     1.007825032230
         H           -1.071482516889    -2.216630660578    -0.415737286007     1.007825032230
         H           -1.381343516889     2.037977339422    -0.415816286007     1.007825032230
         H           -0.884907516889     1.306708339422    -1.948792286007     1.007825032230
         H            2.458184483111     0.179020339422    -0.415481286007     1.007825032230
         H            1.576872483111     0.114806339422    -1.948577286007     1.007825032230

  Basis Set: AUG-CC-PVTZ
    Blend: AUG-CC-PVTZ
  Basis Set: (AUG-CC-PVTZ AUX)
    Blend: AUG-CC-PVTZ-JKFIT
	 Reference Energy          =    -530.9248119900428264 [Eh]
	 Singles Energy            =      -0.0000000000000000 [Eh]
	 Same-Spin Energy          =      -0.4698597359088927 [Eh]
	 Opposite-Spin Energy      =      -1.4841536575115124 [Eh]
	 Correlation Energy        =      -1.9540133934204051 [Eh]
	 Total Energy              =    -532.8788253834632087 [Eh]

	 ================> DF-SCS-MP2 Energies <==================
	-----------------------------------------------------------
	 SCS Same-Spin Scale       =       0.3333333333333333 [-]
	 SCS Opposite-Spin Scale   =       1.2000000000000000 [-]
	 SCS Same-Spin Energy      =      -0.1566199119696309 [Eh]
	 SCS Opposite-Spin Energy  =      -1.7809843890138148 [Eh]
	 SCS Correlation Energy    =      -1.9376043009834458 [Eh]
	 SCS Total Energy          =    -532.8624162910263067 [Eh]
	-----------------------------------------------------------

  Dipole Moment: [D]
     X:    -0.2013      Y:    -0.0147      Z:    -4.3078     Total:     4.3125

*** Psi4 exiting successfully. Buy a developer a beer!
