                               Psi4 1.4a3.dev225

  ==> Input File <==

--------------------------------------------------------------------------
#psi4
#
memory 32 gb

molecule  {
0 1
  F       -1.6012940    -0.1166020     1.0531380
  F        0.9015100    -1.3283660     1.0533570
  F        0.6995270     1.4450080     1.0533050
  C       -1.4600740    -0.1063430    -0.3396260
  C        0.8221700    -1.2113200    -0.3394270
  C        0.6379870     1.3176500    -0.3394740
  C       -0.5284916    -1.4744473    -0.8084922
  C       -0.8206640     1.2092170    -0.7540300
  C        1.4576450     0.1061460    -0.7538300
  H       -2.4709910    -0.1799750    -0.7606130
  H        1.3914430    -2.0500220    -0.7602750
  H        1.0797340     2.2299680    -0.7603550
  H       -0.6879950    -1.4213320    -1.8456750
  H       -1.0732430    -2.2167570    -0.3126710
  H       -1.3831040     2.0378510    -0.3127500
  H       -0.8866680     1.3065820    -1.8457260
  H        2.4564240     0.1788940    -0.3124150
  H        1.5751120     0.1146800    -1.8455110
units angstrom
no_reorient  #important for SAPT in psi4, default
symmetry c1  #important for SAPT in psi4, default
}

set PROPERTIES_ORIGIN ["COM"]
properties('MP2/aug-cc-pvtz', properties = ['dipole'])
--------------------------------------------------------------------------

    Molecular point group: c1
  Charge       = 0
  Multiplicity = 1
  Basis Set: AUG-CC-PVTZ
    Blend: AUG-CC-PVTZ
  Basis Set: (AUG-CC-PVTZ AUX)
    Blend: AUG-CC-PVTZ-JKFIT

    Orbital Energies [Eh]
    ---------------------

    Doubly Occupied:

       1A    -26.267646     2A    -26.265313     3A    -26.265004
       4A    -11.324332     5A    -11.319683     6A    -11.317614
       7A    -11.246328     8A    -11.244817     9A    -11.243713
      10A     -1.581981    11A     -1.573431    12A     -1.571229
      13A     -1.131802    14A     -1.043037    15A     -1.019557
      16A     -0.877625    17A     -0.862700    18A     -0.782309
      19A     -0.741426    20A     -0.699328    21A     -0.696486
      22A     -0.671303    23A     -0.667956    24A     -0.656781
      25A     -0.652511    26A     -0.642694    27A     -0.636383
      28A     -0.583683    29A     -0.577274    30A     -0.554970
      31A     -0.548279    32A     -0.533559    33A     -0.524022
      34A     -0.504386    35A     -0.465914    36A     -0.414542

  @DF-RHF Final Energy:  -530.93494296023619

   => Energetics <=

    Nuclear Repulsion Energy =            523.1553690208162379
    One-Electron Energy =               -1772.7613870139302890
    Two-Electron Energy =                 718.6710750328779795
    Total Energy =                       -530.9349429602361852
  Basis Set: (AUG-CC-PVTZ AUX)
    Blend: AUG-CC-PVTZ-RI
    Molecular point group: c1

    Geometry (in Angstrom), charge = 0, multiplicity = 1:

       Center              X                  Y                   Z               Mass
    ------------   -----------------  -----------------  -----------------  -----------------
         F           -1.610700423140    -0.102778722864     0.972103374550    18.998403162730
         F            0.892103576860    -1.314542722864     0.972322374550    18.998403162730
         F            0.690120576860     1.458831277136     0.972270374550    18.998403162730
         C           -1.469480423140    -0.092519722864    -0.420660625450    12.000000000000
         C            0.812763576860    -1.197496722864    -0.420461625450    12.000000000000
         C            0.628580576860     1.331473277136    -0.420508625450    12.000000000000
         C           -0.537898023140    -1.460624022864    -0.889526825450    12.000000000000
         C           -0.830070423140     1.223040277136    -0.835064625450    12.000000000000
         C            1.448238576860     0.119969277136    -0.834864625450    12.000000000000
         H           -2.480397423140    -0.166151722864    -0.841647625450     1.007825032230
         H            1.382036576860    -2.036198722864    -0.841309625450     1.007825032230
         H            1.070327576860     2.243791277136    -0.841389625450     1.007825032230
         H           -0.697401423140    -1.407508722864    -1.926709625450     1.007825032230
         H           -1.082649423140    -2.202933722864    -0.393705625450     1.007825032230
         H           -1.392510423140     2.051674277136    -0.393784625450     1.007825032230
         H           -0.896074423140     1.320405277136    -1.926760625450     1.007825032230
         H            2.447017576860     0.192717277136    -0.393449625450     1.007825032230
         H            1.565705576860     0.128503277136    -1.926545625450     1.007825032230

  Basis Set: AUG-CC-PVTZ
    Blend: AUG-CC-PVTZ
  Basis Set: (AUG-CC-PVTZ AUX)
    Blend: AUG-CC-PVTZ-JKFIT
	 Reference Energy          =    -530.9349429602361852 [Eh]
	 Singles Energy            =      -0.0000000000000000 [Eh]
	 Same-Spin Energy          =      -0.4706739932591778 [Eh]
	 Opposite-Spin Energy      =      -1.4887693277371719 [Eh]
	 Correlation Energy        =      -1.9594433209963498 [Eh]
	 Total Energy              =    -532.8943862812325278 [Eh]

	 ================> DF-SCS-MP2 Energies <==================
	-----------------------------------------------------------
	 SCS Same-Spin Scale       =       0.3333333333333333 [-]
	 SCS Opposite-Spin Scale   =       1.2000000000000000 [-]
	 SCS Same-Spin Energy      =      -0.1568913310863926 [Eh]
	 SCS Opposite-Spin Energy  =      -1.7865231932846062 [Eh]
	 SCS Correlation Energy    =      -1.9434145243709988 [Eh]
	 SCS Total Energy          =    -532.8783574846071360 [Eh]
	-----------------------------------------------------------

  Dipole Moment: [D]
     X:    -0.0674      Y:     0.0644      Z:    -5.1858     Total:     5.1866

*** Psi4 exiting successfully. Buy a developer a beer!
