                               Psi4 1.4a3.dev225

  ==> Input File <==

--------------------------------------------------------------------------
#psi4
#
memory 32 gb

molecule  {
0 1
  F       -1.6012940    -0.1166020     1.0531380
  F        0.9015100    -1.3283660     1.0533570
  F        0.6995270     1.4450080     1.0533050
  C       -1.4600740    -0.1063430    -0.3396260
  C        0.8221700    -1.2113200    -0.3394270
  C        0.6174546     1.3082279    -0.3533909
  C       -0.6367970    -1.3153920    -0.7539820
  C       -0.8206640     1.2092170    -0.7540300
  C        1.4576450     0.1061460    -0.7538300
  H       -2.4709910    -0.1799750    -0.7606130
  H        1.3914430    -2.0500220    -0.7602750
  H        1.0797340     2.2299680    -0.7603550
  H       -0.6879950    -1.4213320    -1.8456750
  H       -1.0732430    -2.2167570    -0.3126710
  H       -1.3831040     2.0378510    -0.3127500
  H       -0.8866680     1.3065820    -1.8457260
  H        2.4564240     0.1788940    -0.3124150
  H        1.5751120     0.1146800    -1.8455110
units angstrom
no_reorient  #important for SAPT in psi4, default
symmetry c1  #important for SAPT in psi4, default
}

set PROPERTIES_ORIGIN ["COM"]
properties('MP2/aug-cc-pvtz', properties = ['dipole'])
--------------------------------------------------------------------------

    Molecular point group: c1
  Charge       = 0
  Multiplicity = 1
  Basis Set: AUG-CC-PVTZ
    Blend: AUG-CC-PVTZ
  Basis Set: (AUG-CC-PVTZ AUX)
    Blend: AUG-CC-PVTZ-JKFIT

    Orbital Energies [Eh]
    ---------------------

    Doubly Occupied:

       1A    -26.265675     2A    -26.265148     3A    -26.261213
       4A    -11.320759     5A    -11.320568     6A    -11.320119
       7A    -11.244639     8A    -11.244493     9A    -11.244401
      10A     -1.580647    11A     -1.572745    12A     -1.566149
      13A     -1.139464    14A     -1.036084    15A     -1.032796
      16A     -0.872908    17A     -0.869828    18A     -0.778306
      19A     -0.745147    20A     -0.696624    21A     -0.694373
      22A     -0.670992    23A     -0.661188    24A     -0.656077
      25A     -0.653600    26A     -0.639763    27A     -0.638758
      28A     -0.582919    29A     -0.557824    30A     -0.548931
      31A     -0.547838    32A     -0.527622    33A     -0.524189
      34A     -0.522234    35A     -0.458108    36A     -0.452812

  @DF-RHF Final Energy:  -530.96410678609595

   => Energetics <=

    Nuclear Repulsion Energy =            525.6991511889424373
    One-Electron Energy =               -1777.8966368797755422
    Two-Electron Energy =                 721.2333789047372647
    Total Energy =                       -530.9641067860959538
  Basis Set: (AUG-CC-PVTZ AUX)
    Blend: AUG-CC-PVTZ-RI
    Molecular point group: c1

    Geometry (in Angstrom), charge = 0, multiplicity = 1:

       Center              X                  Y                   Z               Mass
    ------------   -----------------  -----------------  -----------------  -----------------
         F           -1.599502462094    -0.115784119920     0.968575200426    18.998403162730
         F            0.903301537906    -1.327548119920     0.968794200426    18.998403162730
         F            0.701318537906     1.445825880080     0.968742200426    18.998403162730
         C           -1.458282462094    -0.105525119920    -0.424188799574    12.000000000000
         C            0.823961537906    -1.210502119920    -0.423989799574    12.000000000000
         C            0.619246137906     1.309045780080    -0.437953699574    12.000000000000
         C           -0.635005462094    -1.314574119920    -0.838544799574    12.000000000000
         C           -0.818872462094     1.210034880080    -0.838592799574    12.000000000000
         C            1.459436537906     0.106963880080    -0.838392799574    12.000000000000
         H           -2.469199462094    -0.179157119920    -0.845175799574     1.007825032230
         H            1.393234537906    -2.049204119920    -0.844837799574     1.007825032230
         H            1.081525537906     2.230785880080    -0.844917799574     1.007825032230
         H           -0.686203462094    -1.420514119920    -1.930237799574     1.007825032230
         H           -1.071451462094    -2.215939119920    -0.397233799574     1.007825032230
         H           -1.381312462094     2.038668880080    -0.397312799574     1.007825032230
         H           -0.884876462094     1.307399880080    -1.930288799574     1.007825032230
         H            2.458215537906     0.179711880080    -0.396977799574     1.007825032230
         H            1.576903537906     0.115497880080    -1.930073799574     1.007825032230

  Basis Set: AUG-CC-PVTZ
    Blend: AUG-CC-PVTZ
  Basis Set: (AUG-CC-PVTZ AUX)
    Blend: AUG-CC-PVTZ-JKFIT
	 Reference Energy          =    -530.9641067860959538 [Eh]
	 Singles Energy            =      -0.0000000000000000 [Eh]
	 Same-Spin Energy          =      -0.4702513275021645 [Eh]
	 Opposite-Spin Energy      =      -1.4871494178238558 [Eh]
	 Correlation Energy        =      -1.9574007453260203 [Eh]
	 Total Energy              =    -532.9215075314219803 [Eh]

	 ================> DF-SCS-MP2 Energies <==================
	-----------------------------------------------------------
	 SCS Same-Spin Scale       =       0.3333333333333333 [-]
	 SCS Opposite-Spin Scale   =       1.2000000000000000 [-]
	 SCS Same-Spin Energy      =      -0.1567504425007215 [Eh]
	 SCS Opposite-Spin Energy  =      -1.7845793013886269 [Eh]
	 SCS Correlation Energy    =      -1.9413297438893484 [Eh]
	 SCS Total Energy          =    -532.9054365299853089 [Eh]
	-----------------------------------------------------------

  Dipole Moment: [D]
     X:    -0.0489      Y:    -0.0293      Z:    -5.2878     Total:     5.2881

*** Psi4 exiting successfully. Buy a developer a beer!
