                               Psi4 1.4a3.dev225

  ==> Input File <==

--------------------------------------------------------------------------
#psi4
#
memory 32 gb

molecule  {
0 1
  F       -1.6012940    -0.1166020     1.0531380
  F        0.9015100    -1.3283660     1.0533570
  F        0.6995270     1.4450080     1.0533050
  C       -1.4600740    -0.1063430    -0.3396260
  C        0.8221700    -1.2113200    -0.3394270
  C        0.6121818     1.4050572    -0.2851198
  C       -0.6367970    -1.3153920    -0.7539820
  C       -0.8206640     1.2092170    -0.7540300
  C        1.4576450     0.1061460    -0.7538300
  H       -2.4709910    -0.1799750    -0.7606130
  H        1.3914430    -2.0500220    -0.7602750
  H        1.0797340     2.2299680    -0.7603550
  H       -0.6879950    -1.4213320    -1.8456750
  H       -1.0732430    -2.2167570    -0.3126710
  H       -1.3831040     2.0378510    -0.3127500
  H       -0.8866680     1.3065820    -1.8457260
  H        2.4564240     0.1788940    -0.3124150
  H        1.5751120     0.1146800    -1.8455110
units angstrom
no_reorient  #important for SAPT in psi4, default
symmetry c1  #important for SAPT in psi4, default
}

set PROPERTIES_ORIGIN ["COM"]
properties('MP2/aug-cc-pvtz', properties = ['dipole'])
--------------------------------------------------------------------------

    Molecular point group: c1
  Charge       = 0
  Multiplicity = 1
  Basis Set: AUG-CC-PVTZ
    Blend: AUG-CC-PVTZ
  Basis Set: (AUG-CC-PVTZ AUX)
    Blend: AUG-CC-PVTZ-JKFIT

    Orbital Energies [Eh]
    ---------------------

    Doubly Occupied:

       1A    -26.280661     2A    -26.265665     3A    -26.263378
       4A    -11.320467     5A    -11.320243     6A    -11.317466
       7A    -11.242622     8A    -11.242179     9A    -11.241194
      10A     -1.608655    11A     -1.577845    12A     -1.571725
      13A     -1.128015    14A     -1.032565    15A     -1.020285
      16A     -0.876920    17A     -0.865096    18A     -0.785504
      19A     -0.748880    20A     -0.709382    21A     -0.700371
      22A     -0.677622    23A     -0.667342    24A     -0.658057
      25A     -0.654291    26A     -0.649324    27A     -0.642707
      28A     -0.587721    29A     -0.560401    30A     -0.548112
      31A     -0.544874    32A     -0.523673    33A     -0.519537
      34A     -0.507586    35A     -0.459058    36A     -0.433695

  @DF-RHF Final Energy:  -530.95745994825586

   => Energetics <=

    Nuclear Repulsion Energy =            524.9256413593274146
    One-Electron Energy =               -1776.2599659948054978
    Two-Electron Energy =                 720.3768646872221098
    Total Energy =                       -530.9574599482558597
  Basis Set: (AUG-CC-PVTZ AUX)
    Blend: AUG-CC-PVTZ-RI
    Molecular point group: c1

    Geometry (in Angstrom), charge = 0, multiplicity = 1:

       Center              X                  Y                   Z               Mass
    ------------   -----------------  -----------------  -----------------  -----------------
         F           -1.599044175714    -0.124200056310     0.962641405233    18.998403162730
         F            0.903759824286    -1.335964056310     0.962860405233    18.998403162730
         F            0.701776824286     1.437409943690     0.962808405233    18.998403162730
         C           -1.457824175714    -0.113941056310    -0.430122594767    12.000000000000
         C            0.824419824286    -1.218918056310    -0.429923594767    12.000000000000
         C            0.614431624286     1.397459143690    -0.375616394767    12.000000000000
         C           -0.634547175714    -1.322990056310    -0.844478594767    12.000000000000
         C           -0.818414175714     1.201618943690    -0.844526594767    12.000000000000
         C            1.459894824286     0.098547943690    -0.844326594767    12.000000000000
         H           -2.468741175714    -0.187573056310    -0.851109594767     1.007825032230
         H            1.393692824286    -2.057620056310    -0.850771594767     1.007825032230
         H            1.081983824286     2.222369943690    -0.850851594767     1.007825032230
         H           -0.685745175714    -1.428930056310    -1.936171594767     1.007825032230
         H           -1.070993175714    -2.224355056310    -0.403167594767     1.007825032230
         H           -1.380854175714     2.030252943690    -0.403246594767     1.007825032230
         H           -0.884418175714     1.298983943690    -1.936222594767     1.007825032230
         H            2.458673824286     0.171295943690    -0.402911594767     1.007825032230
         H            1.577361824286     0.107081943690    -1.936007594767     1.007825032230

  Basis Set: AUG-CC-PVTZ
    Blend: AUG-CC-PVTZ
  Basis Set: (AUG-CC-PVTZ AUX)
    Blend: AUG-CC-PVTZ-JKFIT
	 Reference Energy          =    -530.9574599482558597 [Eh]
	 Singles Energy            =      -0.0000000000000000 [Eh]
	 Same-Spin Energy          =      -0.4695743846972197 [Eh]
	 Opposite-Spin Energy      =      -1.4855665729428518 [Eh]
	 Correlation Energy        =      -1.9551409576400713 [Eh]
	 Total Energy              =    -532.9126009058959426 [Eh]

	 ================> DF-SCS-MP2 Energies <==================
	-----------------------------------------------------------
	 SCS Same-Spin Scale       =       0.3333333333333333 [-]
	 SCS Opposite-Spin Scale   =       1.2000000000000000 [-]
	 SCS Same-Spin Energy      =      -0.1565247948990732 [Eh]
	 SCS Opposite-Spin Energy  =      -1.7826798875314220 [Eh]
	 SCS Correlation Energy    =      -1.9392046824304952 [Eh]
	 SCS Total Energy          =    -532.8966646306863595 [Eh]
	-----------------------------------------------------------

  Dipole Moment: [D]
     X:    -0.0430      Y:     0.2272      Z:    -4.9679     Total:     4.9733

*** Psi4 exiting successfully. Buy a developer a beer!
