                               Psi4 1.4a3.dev225

  ==> Input File <==

--------------------------------------------------------------------------
#psi4
#
memory 32 gb

molecule  {
0 1
  F       -1.6012940    -0.1166020     1.0531380
  F        0.9015100    -1.3283660     1.0533570
  F        0.6995270     1.4450080     1.0533050
  C       -1.4600740    -0.1063430    -0.3396260
  C        0.8221700    -1.2113200    -0.3394270
  C        0.6379870     1.3176500    -0.3394740
  C       -0.6367970    -1.3153920    -0.7539820
  C       -0.8206640     1.2092170    -0.7540300
  C        1.4576450     0.1061460    -0.7538300
  H       -2.4709910    -0.1799750    -0.7606130
  H        1.3914430    -2.0500220    -0.7602750
  H        1.1602313     2.3962150    -0.8370500
  H       -0.6879950    -1.4213320    -1.8456750
  H       -1.0732430    -2.2167570    -0.3126710
  H       -1.3831040     2.0378510    -0.3127500
  H       -0.8866680     1.3065820    -1.8457260
  H        2.4564240     0.1788940    -0.3124150
  H        1.5751120     0.1146800    -1.8455110
units angstrom
no_reorient  #important for SAPT in psi4, default
symmetry c1  #important for SAPT in psi4, default
}

set PROPERTIES_ORIGIN ["COM"]
properties('MP2/aug-cc-pvtz', properties = ['dipole'])
--------------------------------------------------------------------------

    Molecular point group: c1
  Charge       = 0
  Multiplicity = 1
  Basis Set: AUG-CC-PVTZ
    Blend: AUG-CC-PVTZ
  Basis Set: (AUG-CC-PVTZ AUX)
    Blend: AUG-CC-PVTZ-JKFIT

    Orbital Energies [Eh]
    ---------------------

    Doubly Occupied:

       1A    -26.270415     2A    -26.266733     3A    -26.266731
       4A    -11.343141     5A    -11.321961     6A    -11.321954
       7A    -11.246357     8A    -11.246343     9A    -11.245425
      10A     -1.584468    11A     -1.575502    12A     -1.574128
      13A     -1.137351    14A     -1.034515    15A     -1.029652
      16A     -0.872720    17A     -0.862812    18A     -0.778632
      19A     -0.740669    20A     -0.698826    21A     -0.695122
      22A     -0.673832    23A     -0.660849    24A     -0.658483
      25A     -0.653775    26A     -0.643003    27A     -0.640179
      28A     -0.576215    29A     -0.559737    30A     -0.549482
      31A     -0.547410    32A     -0.526474    33A     -0.522584
      34A     -0.519120    35A     -0.456619    36A     -0.442949

  @DF-RHF Final Energy:  -530.94467599277084

   => Energetics <=

    Nuclear Repulsion Energy =            524.4435838468283464
    One-Electron Energy =               -1775.2881876125634335
    Two-Electron Energy =                 719.8999277729641335
    Total Energy =                       -530.9446759927708399
  Basis Set: (AUG-CC-PVTZ AUX)
    Blend: AUG-CC-PVTZ-RI
    Molecular point group: c1

    Geometry (in Angstrom), charge = 0, multiplicity = 1:

       Center              X                  Y                   Z               Mass
    ------------   -----------------  -----------------  -----------------  -----------------
         F           -1.601874638157    -0.117816581427     0.967925453954    18.998403162730
         F            0.900929361843    -1.329580581427     0.968144453954    18.998403162730
         F            0.698946361843     1.443793418573     0.968092453954    18.998403162730
         C           -1.460654638157    -0.107557581427    -0.424838546046    12.000000000000
         C            0.821589361843    -1.212534581427    -0.424639546046    12.000000000000
         C            0.637406361843     1.316435418573    -0.424686546046    12.000000000000
         C           -0.637377638157    -1.316606581427    -0.839194546046    12.000000000000
         C           -0.821244638157     1.208002418573    -0.839242546046    12.000000000000
         C            1.457064361843     0.104931418573    -0.839042546046    12.000000000000
         H           -2.471571638157    -0.181189581427    -0.845825546046     1.007825032230
         H            1.390862361843    -2.051236581427    -0.845487546046     1.007825032230
         H            1.159650661843     2.395000418573    -0.922262546046     1.007825032230
         H           -0.688575638157    -1.422546581427    -1.930887546046     1.007825032230
         H           -1.073823638157    -2.217971581427    -0.397883546046     1.007825032230
         H           -1.383684638157     2.036636418573    -0.397962546046     1.007825032230
         H           -0.887248638157     1.305367418573    -1.930938546046     1.007825032230
         H            2.455843361843     0.177679418573    -0.397627546046     1.007825032230
         H            1.574531361843     0.113465418573    -1.930723546046     1.007825032230

  Basis Set: AUG-CC-PVTZ
    Blend: AUG-CC-PVTZ
  Basis Set: (AUG-CC-PVTZ AUX)
    Blend: AUG-CC-PVTZ-JKFIT
	 Reference Energy          =    -530.9446759927708399 [Eh]
	 Singles Energy            =      -0.0000000000000000 [Eh]
	 Same-Spin Energy          =      -0.4704505700892622 [Eh]
	 Opposite-Spin Energy      =      -1.4888964823439161 [Eh]
	 Correlation Energy        =      -1.9593470524331784 [Eh]
	 Total Energy              =    -532.9040230452039850 [Eh]

	 ================> DF-SCS-MP2 Energies <==================
	-----------------------------------------------------------
	 SCS Same-Spin Scale       =       0.3333333333333333 [-]
	 SCS Opposite-Spin Scale   =       1.2000000000000000 [-]
	 SCS Same-Spin Energy      =      -0.1568168566964207 [Eh]
	 SCS Opposite-Spin Energy  =      -1.7866757788126992 [Eh]
	 SCS Correlation Energy    =      -1.9434926355091200 [Eh]
	 SCS Total Energy          =    -532.8881686282799137 [Eh]
	-----------------------------------------------------------

  Dipole Moment: [D]
     X:    -0.0836      Y:    -0.1736      Z:    -5.1321     Total:     5.1357

*** Psi4 exiting successfully. Buy a developer a beer!
