                               Psi4 1.4a3.dev225

  ==> Input File <==

--------------------------------------------------------------------------
#psi4
#
memory 32 gb

molecule  {
0 1
  F       -1.6012940    -0.1166020     1.0531380
  F        0.9015100    -1.3283660     1.0533570
  F        0.6995270     1.4450080     1.0533050
  C       -1.4600740    -0.1063430    -0.3396260
  C        0.7891700    -1.2032372    -0.2388986
  C        0.6379870     1.3176500    -0.3394740
  C       -0.6367970    -1.3153920    -0.7539820
  C       -0.8206640     1.2092170    -0.7540300
  C        1.4576450     0.1061460    -0.7538300
  H       -2.4709910    -0.1799750    -0.7606130
  H        1.3914430    -2.0500220    -0.7602750
  H        1.0797340     2.2299680    -0.7603550
  H       -0.6879950    -1.4213320    -1.8456750
  H       -1.0732430    -2.2167570    -0.3126710
  H       -1.3831040     2.0378510    -0.3127500
  H       -0.8866680     1.3065820    -1.8457260
  H        2.4564240     0.1788940    -0.3124150
  H        1.5751120     0.1146800    -1.8455110
units angstrom
no_reorient  #important for SAPT in psi4, default
symmetry c1  #important for SAPT in psi4, default
}

set PROPERTIES_ORIGIN ["COM"]
properties('MP2/aug-cc-pvtz', properties = ['dipole'])
--------------------------------------------------------------------------

    Molecular point group: c1
  Charge       = 0
  Multiplicity = 1
  Basis Set: AUG-CC-PVTZ
    Blend: AUG-CC-PVTZ
  Basis Set: (AUG-CC-PVTZ AUX)
    Blend: AUG-CC-PVTZ-JKFIT

    Orbital Energies [Eh]
    ---------------------

    Doubly Occupied:

       1A    -26.289576     2A    -26.266701     3A    -26.265792
       4A    -11.323383     5A    -11.318202     6A    -11.317195
       7A    -11.242783     8A    -11.241409     9A    -11.241114
      10A     -1.631572    11A     -1.579727    12A     -1.573709
      13A     -1.132582    14A     -1.031389    15A     -1.025097
      16A     -0.871933    17A     -0.868440    18A     -0.791029
      19A     -0.751841    20A     -0.713124    21A     -0.710060
      22A     -0.682010    23A     -0.672524    24A     -0.659879
      25A     -0.658526    26A     -0.650041    27A     -0.644977
      28A     -0.579436    29A     -0.565076    30A     -0.548947
      31A     -0.547247    32A     -0.524518    33A     -0.517175
      34A     -0.513323    35A     -0.446329    36A     -0.436602

  @DF-RHF Final Energy:  -530.95636747652952

   => Energetics <=

    Nuclear Repulsion Energy =            527.0655860326567108
    One-Electron Energy =               -1780.3773699632547505
    Two-Electron Energy =                 722.3554164540685179
    Total Energy =                       -530.9563674765295218
  Basis Set: (AUG-CC-PVTZ AUX)
    Blend: AUG-CC-PVTZ-RI
    Molecular point group: c1

    Geometry (in Angstrom), charge = 0, multiplicity = 1:

       Center              X                  Y                   Z               Mass
    ------------   -----------------  -----------------  -----------------  -----------------
         F           -1.598418838351    -0.117305561518     0.958628166161    18.998403162730
         F            0.904385161649    -1.329069561518     0.958847166161    18.998403162730
         F            0.702402161649     1.444304438482     0.958795166161    18.998403162730
         C           -1.457198838351    -0.107046561518    -0.434135833839    12.000000000000
         C            0.792045161649    -1.203940761518    -0.333408433839    12.000000000000
         C            0.640862161649     1.316946438482    -0.433983833839    12.000000000000
         C           -0.633921838351    -1.316095561518    -0.848491833839    12.000000000000
         C           -0.817788838351     1.208513438482    -0.848539833839    12.000000000000
         C            1.460520161649     0.105442438482    -0.848339833839    12.000000000000
         H           -2.468115838351    -0.180678561518    -0.855122833839     1.007825032230
         H            1.394318161649    -2.050725561518    -0.854784833839     1.007825032230
         H            1.082609161649     2.229264438482    -0.854864833839     1.007825032230
         H           -0.685119838351    -1.422035561518    -1.940184833839     1.007825032230
         H           -1.070367838351    -2.217460561518    -0.407180833839     1.007825032230
         H           -1.380228838351     2.037147438482    -0.407259833839     1.007825032230
         H           -0.883792838351     1.305878438482    -1.940235833839     1.007825032230
         H            2.459299161649     0.178190438482    -0.406924833839     1.007825032230
         H            1.577987161649     0.113976438482    -1.940020833839     1.007825032230

  Basis Set: AUG-CC-PVTZ
    Blend: AUG-CC-PVTZ
  Basis Set: (AUG-CC-PVTZ AUX)
    Blend: AUG-CC-PVTZ-JKFIT
	 Reference Energy          =    -530.9563674765295218 [Eh]
	 Singles Energy            =      -0.0000000000000000 [Eh]
	 Same-Spin Energy          =      -0.4699142266008108 [Eh]
	 Opposite-Spin Energy      =      -1.4852240812983235 [Eh]
	 Correlation Energy        =      -1.9551383078991342 [Eh]
	 Total Energy              =    -532.9115057844286412 [Eh]

	 ================> DF-SCS-MP2 Energies <==================
	-----------------------------------------------------------
	 SCS Same-Spin Scale       =       0.3333333333333333 [-]
	 SCS Opposite-Spin Scale   =       1.2000000000000000 [-]
	 SCS Same-Spin Energy      =      -0.1566380755336036 [Eh]
	 SCS Opposite-Spin Energy  =      -1.7822688975579881 [Eh]
	 SCS Correlation Energy    =      -1.9389069730915918 [Eh]
	 SCS Total Energy          =    -532.8952744496210698 [Eh]
	-----------------------------------------------------------

  Dipole Moment: [D]
     X:    -0.0321      Y:    -0.0462      Z:    -4.8146     Total:     4.8149

*** Psi4 exiting successfully. Buy a developer a beer!
