                               Psi4 1.4a3.dev225

  ==> Input File <==

--------------------------------------------------------------------------
#psi4
#
memory 32 gb

molecule  {
0 1
  F       -1.6012940    -0.1166020     1.0531380
  F        0.9015100    -1.3283660     1.0533570
  F        0.5531713     1.4377898     1.0527233
  C       -1.4600740    -0.1063430    -0.3396260
  C        0.8221700    -1.2113200    -0.3394270
  C        0.6379870     1.3176500    -0.3394740
  C       -0.6367970    -1.3153920    -0.7539820
  C       -0.8206640     1.2092170    -0.7540300
  C        1.4576450     0.1061460    -0.7538300
  H       -2.4709910    -0.1799750    -0.7606130
  H        1.3914430    -2.0500220    -0.7602750
  H        1.0797340     2.2299680    -0.7603550
  H       -0.6879950    -1.4213320    -1.8456750
  H       -1.0732430    -2.2167570    -0.3126710
  H       -1.3831040     2.0378510    -0.3127500
  H       -0.8866680     1.3065820    -1.8457260
  H        2.4564240     0.1788940    -0.3124150
  H        1.5751120     0.1146800    -1.8455110
units angstrom
no_reorient  #important for SAPT in psi4, default
symmetry c1  #important for SAPT in psi4, default
}

set PROPERTIES_ORIGIN ["COM"]
properties('MP2/aug-cc-pvtz', properties = ['dipole'])
--------------------------------------------------------------------------

    Molecular point group: c1
  Charge       = 0
  Multiplicity = 1
  Basis Set: AUG-CC-PVTZ
    Blend: AUG-CC-PVTZ
  Basis Set: (AUG-CC-PVTZ AUX)
    Blend: AUG-CC-PVTZ-JKFIT

    Orbital Energies [Eh]
    ---------------------

    Doubly Occupied:

       1A    -26.265721     2A    -26.264713     3A    -26.262582
       4A    -11.320621     5A    -11.320253     6A    -11.318496
       7A    -11.246414     8A    -11.243441     9A    -11.240101
      10A     -1.582321    11A     -1.573255    12A     -1.570264
      13A     -1.136018    14A     -1.032926    15A     -1.031438
      16A     -0.870815    17A     -0.870722    18A     -0.779040
      19A     -0.745941    20A     -0.698540    21A     -0.695626
      22A     -0.670896    23A     -0.659255    24A     -0.656192
      25A     -0.653491    26A     -0.642140    27A     -0.639191
      28A     -0.585712    29A     -0.558421    30A     -0.548984
      31A     -0.545156    32A     -0.524458    33A     -0.521678
      34A     -0.518551    35A     -0.455055    36A     -0.453048

  @DF-RHF Final Energy:  -530.96216989886102

   => Energetics <=

    Nuclear Repulsion Energy =            527.0052496146828389
    One-Electron Energy =               -1780.5318841748935483
    Two-Electron Energy =                 722.5644646613498026
    Total Energy =                       -530.9621698988610206
  Basis Set: (AUG-CC-PVTZ AUX)
    Blend: AUG-CC-PVTZ-RI
    Molecular point group: c1

    Geometry (in Angstrom), charge = 0, multiplicity = 1:

       Center              X                  Y                   Z               Mass
    ------------   -----------------  -----------------  -----------------  -----------------
         F           -1.581147888939    -0.115609789256     0.967445654836    18.998403162730
         F            0.921656111061    -1.327373789256     0.967664654836    18.998403162730
         F            0.573317411061     1.438782010744     0.967030954836    18.998403162730
         C           -1.439927888939    -0.105350789256    -0.425318345164    12.000000000000
         C            0.842316111061    -1.210327789256    -0.425119345164    12.000000000000
         C            0.658133111061     1.318642210744    -0.425166345164    12.000000000000
         C           -0.616650888939    -1.314399789256    -0.839674345164    12.000000000000
         C           -0.800517888939     1.210209210744    -0.839722345164    12.000000000000
         C            1.477791111061     0.107138210744    -0.839522345164    12.000000000000
         H           -2.450844888939    -0.178982789256    -0.846305345164     1.007825032230
         H            1.411589111061    -2.049029789256    -0.845967345164     1.007825032230
         H            1.099880111061     2.230960210744    -0.846047345164     1.007825032230
         H           -0.667848888939    -1.420339789256    -1.931367345164     1.007825032230
         H           -1.053096888939    -2.215764789256    -0.398363345164     1.007825032230
         H           -1.362957888939     2.038843210744    -0.398442345164     1.007825032230
         H           -0.866521888939     1.307574210744    -1.931418345164     1.007825032230
         H            2.476570111061     0.179886210744    -0.398107345164     1.007825032230
         H            1.595258111061     0.115672210744    -1.931203345164     1.007825032230

  Basis Set: AUG-CC-PVTZ
    Blend: AUG-CC-PVTZ
  Basis Set: (AUG-CC-PVTZ AUX)
    Blend: AUG-CC-PVTZ-JKFIT
	 Reference Energy          =    -530.9621698988610206 [Eh]
	 Singles Energy            =      -0.0000000000000000 [Eh]
	 Same-Spin Energy          =      -0.4702379271431185 [Eh]
	 Opposite-Spin Energy      =      -1.4869917516153914 [Eh]
	 Correlation Energy        =      -1.9572296787585099 [Eh]
	 Total Energy              =    -532.9193995776195152 [Eh]

	 ================> DF-SCS-MP2 Energies <==================
	-----------------------------------------------------------
	 SCS Same-Spin Scale       =       0.3333333333333333 [-]
	 SCS Opposite-Spin Scale   =       1.2000000000000000 [-]
	 SCS Same-Spin Energy      =      -0.1567459757143728 [Eh]
	 SCS Opposite-Spin Energy  =      -1.7843901019384696 [Eh]
	 SCS Correlation Energy    =      -1.9411360776528424 [Eh]
	 SCS Total Energy          =    -532.9033059765138205 [Eh]
	-----------------------------------------------------------

  Dipole Moment: [D]
     X:     0.2237      Y:     0.0016      Z:    -5.1918     Total:     5.1966

*** Psi4 exiting successfully. Buy a developer a beer!
