                               Psi4 1.4a3.dev225

  ==> Input File <==

--------------------------------------------------------------------------
#psi4
#
memory 32 gb

molecule  {
0 1
  F       -1.6012940    -0.1166020     1.0531380
  F        0.9015100    -1.3283660     1.0533570
  F        0.6995270     1.4450080     1.0533050
  C       -1.4600740    -0.1063430    -0.3396260
  C        0.8221700    -1.2113200    -0.3394270
  C        0.6566858     1.2297145    -0.3958478
  C       -0.6367970    -1.3153920    -0.7539820
  C       -0.8206640     1.2092170    -0.7540300
  C        1.4576450     0.1061460    -0.7538300
  H       -2.4709910    -0.1799750    -0.7606130
  H        1.3914430    -2.0500220    -0.7602750
  H        1.0797340     2.2299680    -0.7603550
  H       -0.6879950    -1.4213320    -1.8456750
  H       -1.0732430    -2.2167570    -0.3126710
  H       -1.3831040     2.0378510    -0.3127500
  H       -0.8866680     1.3065820    -1.8457260
  H        2.4564240     0.1788940    -0.3124150
  H        1.5751120     0.1146800    -1.8455110
units angstrom
no_reorient  #important for SAPT in psi4, default
symmetry c1  #important for SAPT in psi4, default
}

set PROPERTIES_ORIGIN ["COM"]
properties('MP2/aug-cc-pvtz', properties = ['dipole'])
--------------------------------------------------------------------------

    Molecular point group: c1
  Charge       = 0
  Multiplicity = 1
  Basis Set: AUG-CC-PVTZ
    Blend: AUG-CC-PVTZ
  Basis Set: (AUG-CC-PVTZ AUX)
    Blend: AUG-CC-PVTZ-JKFIT

    Orbital Energies [Eh]
    ---------------------

    Doubly Occupied:

       1A    -26.267041     2A    -26.264979     3A    -26.248569
       4A    -11.322979     5A    -11.322755     6A    -11.320240
       7A    -11.247111     8A    -11.245996     9A    -11.245005
      10A     -1.580378    11A     -1.573141    12A     -1.543402
      13A     -1.149374    14A     -1.046813    15A     -1.033323
      16A     -0.878543    17A     -0.866161    18A     -0.773940
      19A     -0.744942    20A     -0.696629    21A     -0.689113
      22A     -0.671438    23A     -0.666881    24A     -0.654954
      25A     -0.642518    26A     -0.634080    27A     -0.632802
      28A     -0.579685    29A     -0.557261    30A     -0.552665
      31A     -0.545715    32A     -0.535972    33A     -0.524507
      34A     -0.523514    35A     -0.466434    36A     -0.446831

  @DF-RHF Final Energy:  -530.95097233558181

   => Energetics <=

    Nuclear Repulsion Energy =            526.2097185099216858
    One-Electron Energy =               -1778.9299946196474593
    Two-Electron Energy =                 721.7693037741439639
    Total Energy =                       -530.9509723355818096
  Basis Set: (AUG-CC-PVTZ AUX)
    Blend: AUG-CC-PVTZ-RI
    Molecular point group: c1

    Geometry (in Angstrom), charge = 0, multiplicity = 1:

       Center              X                  Y                   Z               Mass
    ------------   -----------------  -----------------  -----------------  -----------------
         F           -1.602912249046    -0.108960113341     0.972265349686    18.998403162730
         F            0.899891750954    -1.320724113341     0.972484349686    18.998403162730
         F            0.697908750954     1.452649886659     0.972432349686    18.998403162730
         C           -1.461692249046    -0.098701113341    -0.420498650314    12.000000000000
         C            0.820551750954    -1.203678113341    -0.420299650314    12.000000000000
         C            0.655067550954     1.237356386659    -0.476720450314    12.000000000000
         C           -0.638415249046    -1.307750113341    -0.834854650314    12.000000000000
         C           -0.822282249046     1.216858886659    -0.834902650314    12.000000000000
         C            1.456026750954     0.113787886659    -0.834702650314    12.000000000000
         H           -2.472609249046    -0.172333113341    -0.841485650314     1.007825032230
         H            1.389824750954    -2.042380113341    -0.841147650314     1.007825032230
         H            1.078115750954     2.237609886659    -0.841227650314     1.007825032230
         H           -0.689613249046    -1.413690113341    -1.926547650314     1.007825032230
         H           -1.074861249046    -2.209115113341    -0.393543650314     1.007825032230
         H           -1.384722249046     2.045492886659    -0.393622650314     1.007825032230
         H           -0.888286249046     1.314223886659    -1.926598650314     1.007825032230
         H            2.454805750954     0.186535886659    -0.393287650314     1.007825032230
         H            1.573493750954     0.122321886659    -1.926383650314     1.007825032230

  Basis Set: AUG-CC-PVTZ
    Blend: AUG-CC-PVTZ
  Basis Set: (AUG-CC-PVTZ AUX)
    Blend: AUG-CC-PVTZ-JKFIT
	 Reference Energy          =    -530.9509723355818096 [Eh]
	 Singles Energy            =      -0.0000000000000000 [Eh]
	 Same-Spin Energy          =      -0.4713624674564284 [Eh]
	 Opposite-Spin Energy      =      -1.4893433045299713 [Eh]
	 Correlation Energy        =      -1.9607057719863996 [Eh]
	 Total Energy              =    -532.9116781075682638 [Eh]

	 ================> DF-SCS-MP2 Energies <==================
	-----------------------------------------------------------
	 SCS Same-Spin Scale       =       0.3333333333333333 [-]
	 SCS Opposite-Spin Scale   =       1.2000000000000000 [-]
	 SCS Same-Spin Energy      =      -0.1571208224854761 [Eh]
	 SCS Opposite-Spin Energy  =      -1.7872119654359655 [Eh]
	 SCS Correlation Energy    =      -1.9443327879214416 [Eh]
	 SCS Total Energy          =    -532.8953051235032490 [Eh]
	-----------------------------------------------------------

  Dipole Moment: [D]
     X:     0.0261      Y:    -0.2322      Z:    -5.4798     Total:     5.4847

*** Psi4 exiting successfully. Buy a developer a beer!
