                               Psi4 1.4a3.dev225

  ==> Input File <==

--------------------------------------------------------------------------
#psi4
#
memory 32 gb

molecule  {
0 1
  F       -1.6012940    -0.1166020     1.0531380
  F        0.9015100    -1.3283660     1.0533570
  F        0.6995270     1.4450080     1.0533050
  C       -1.4600740    -0.1063430    -0.3396260
  C        0.8221700    -1.2113200    -0.3394270
  C        0.6379870     1.3176500    -0.3394740
  C       -0.6367970    -1.3153920    -0.7539820
  C       -0.8206640     1.2092170    -0.7540300
  C        1.4576450     0.1061460    -0.7538300
  H       -2.4709910    -0.1799750    -0.7606130
  H        1.3914430    -2.0500220    -0.7602750
  H        1.0797340     2.2299680    -0.7603550
  H       -0.6879950    -1.4213320    -1.8456750
  H       -1.0732430    -2.2167570    -0.3126710
  H       -1.3831040     2.0378510    -0.3127500
  H       -0.8866680     1.3065820    -1.8457260
  H        2.5476872     0.1855413    -0.2720808
  H        1.5751120     0.1146800    -1.8455110
units angstrom
no_reorient  #important for SAPT in psi4, default
symmetry c1  #important for SAPT in psi4, default
}

set PROPERTIES_ORIGIN ["COM"]
properties('MP2/aug-cc-pvtz', properties = ['dipole'])
--------------------------------------------------------------------------

    Molecular point group: c1
  Charge       = 0
  Multiplicity = 1
  Basis Set: AUG-CC-PVTZ
    Blend: AUG-CC-PVTZ
  Basis Set: (AUG-CC-PVTZ AUX)
    Blend: AUG-CC-PVTZ-JKFIT

    Orbital Energies [Eh]
    ---------------------

    Doubly Occupied:

       1A    -26.265664     2A    -26.265178     3A    -26.265175
       4A    -11.320977     5A    -11.320969     6A    -11.320689
       7A    -11.255030     8A    -11.244845     9A    -11.244831
      10A     -1.582139    11A     -1.572837    12A     -1.572524
      13A     -1.136586    14A     -1.033417    15A     -1.029405
      16A     -0.871623    17A     -0.867641    18A     -0.779508
      19A     -0.745255    20A     -0.697259    21A     -0.697139
      22A     -0.671811    23A     -0.657280    24A     -0.656892
      25A     -0.652360    26A     -0.641310    27A     -0.639088
      28A     -0.584366    29A     -0.558369    30A     -0.548697
      31A     -0.538580    32A     -0.524736    33A     -0.523308
      34A     -0.521293    35A     -0.455152    36A     -0.451885

  @DF-RHF Final Energy:  -530.95877850898330

   => Energetics <=

    Nuclear Repulsion Energy =            525.0198012470197000
    One-Electron Energy =               -1776.5295251058239501
    Two-Electron Energy =                 720.5509453498208359
    Total Energy =                       -530.9587785089833005
  Basis Set: (AUG-CC-PVTZ AUX)
    Blend: AUG-CC-PVTZ-RI
    Molecular point group: c1

    Geometry (in Angstrom), charge = 0, multiplicity = 1:

       Center              X                  Y                   Z               Mass
    ------------   -----------------  -----------------  -----------------  -----------------
         F           -1.601953225009    -0.116651566157     0.967071186652    18.998403162730
         F            0.900850774991    -1.328415566157     0.967290186652    18.998403162730
         F            0.698867774991     1.444958433843     0.967238186652    18.998403162730
         C           -1.460733225009    -0.106392566157    -0.425692813348    12.000000000000
         C            0.821510774991    -1.211369566157    -0.425493813348    12.000000000000
         C            0.637327774991     1.317600433843    -0.425540813348    12.000000000000
         C           -0.637456225009    -1.315441566157    -0.840048813348    12.000000000000
         C           -0.821323225009     1.209167433843    -0.840096813348    12.000000000000
         C            1.456985774991     0.106096433843    -0.839896813348    12.000000000000
         H           -2.471650225009    -0.180024566157    -0.846679813348     1.007825032230
         H            1.390783774991    -2.050071566157    -0.846341813348     1.007825032230
         H            1.079074774991     2.229918433843    -0.846421813348     1.007825032230
         H           -0.688654225009    -1.421381566157    -1.931741813348     1.007825032230
         H           -1.073902225009    -2.216806566157    -0.398737813348     1.007825032230
         H           -1.383763225009     2.037801433843    -0.398816813348     1.007825032230
         H           -0.887327225009     1.306532433843    -1.931792813348     1.007825032230
         H            2.547027974991     0.185491733843    -0.358147613348     1.007825032230
         H            1.574452774991     0.114630433843    -1.931577813348     1.007825032230

  Basis Set: AUG-CC-PVTZ
    Blend: AUG-CC-PVTZ
  Basis Set: (AUG-CC-PVTZ AUX)
    Blend: AUG-CC-PVTZ-JKFIT
	 Reference Energy          =    -530.9587785089833005 [Eh]
	 Singles Energy            =      -0.0000000000000000 [Eh]
	 Same-Spin Energy          =      -0.4700996528711733 [Eh]
	 Opposite-Spin Energy      =      -1.4874439656448719 [Eh]
	 Correlation Energy        =      -1.9575436185160453 [Eh]
	 Total Energy              =    -532.9163221274993703 [Eh]

	 ================> DF-SCS-MP2 Energies <==================
	-----------------------------------------------------------
	 SCS Same-Spin Scale       =       0.3333333333333333 [-]
	 SCS Opposite-Spin Scale   =       1.2000000000000000 [-]
	 SCS Same-Spin Energy      =      -0.1566998842903911 [Eh]
	 SCS Opposite-Spin Energy  =      -1.7849327587738462 [Eh]
	 SCS Correlation Energy    =      -1.9416326430642372 [Eh]
	 SCS Total Energy          =    -532.9004111520475817 [Eh]
	-----------------------------------------------------------

  Dipole Moment: [D]
     X:    -0.0563      Y:    -0.0042      Z:    -5.2240     Total:     5.2243

*** Psi4 exiting successfully. Buy a developer a beer!
