                               Psi4 1.4a3.dev225

  ==> Input File <==

--------------------------------------------------------------------------
#psi4
#
memory 32 gb

molecule  {
0 1
  F       -1.6012940    -0.1166020     1.0531380
  F        0.9015100    -1.3283660     1.0533570
  F        0.6995270     1.4450080     1.0533050
  C       -1.4600740    -0.1063430    -0.3396260
  C        0.8221700    -1.2113200    -0.3394270
  C        0.6379870     1.3176500    -0.3394740
  C       -0.6367970    -1.3153920    -0.7539820
  C       -0.8206640     1.2092170    -0.7540300
  C        1.4576450     0.1061460    -0.7538300
  H       -2.4709910    -0.1799750    -0.7606130
  H        1.3914430    -2.0500220    -0.7602750
  H        1.0797340     2.2299680    -0.7603550
  H       -0.6879950    -1.4213320    -1.8456750
  H       -1.0732430    -2.2167570    -0.3126710
  H       -1.4059215     2.0714810    -0.4198511
  H       -0.8866680     1.3065820    -1.8457260
  H        2.4564240     0.1788940    -0.3124150
  H        1.5751120     0.1146800    -1.8455110
units angstrom
no_reorient  #important for SAPT in psi4, default
symmetry c1  #important for SAPT in psi4, default
}

set PROPERTIES_ORIGIN ["COM"]
properties('MP2/aug-cc-pvtz', properties = ['dipole'])
--------------------------------------------------------------------------

    Molecular point group: c1
  Charge       = 0
  Multiplicity = 1
  Basis Set: AUG-CC-PVTZ
    Blend: AUG-CC-PVTZ
  Basis Set: (AUG-CC-PVTZ AUX)
    Blend: AUG-CC-PVTZ-JKFIT

    Orbital Energies [Eh]
    ---------------------

    Doubly Occupied:

       1A    -26.265287     2A    -26.264739     3A    -26.264737
       4A    -11.320779     5A    -11.320772     6A    -11.320270
       7A    -11.244361     8A    -11.244348     9A    -11.244126
      10A     -1.581750    11A     -1.572458    12A     -1.572136
      13A     -1.136721    14A     -1.032878    15A     -1.032511
      16A     -0.871708    17A     -0.871129    18A     -0.780501
      19A     -0.746248    20A     -0.696860    21A     -0.696739
      22A     -0.671312    23A     -0.660097    24A     -0.656426
      25A     -0.655912    26A     -0.641993    27A     -0.640817
      28A     -0.583983    29A     -0.557317    30A     -0.548209
      31A     -0.541662    32A     -0.526602    33A     -0.524314
      34A     -0.520811    35A     -0.456323    36A     -0.454528

  @DF-RHF Final Energy:  -530.96438674984745

   => Energetics <=

    Nuclear Repulsion Energy =            525.3416744341045614
    One-Electron Energy =               -1777.1693974047295796
    Two-Electron Energy =                 720.8633362207775690
    Total Energy =                       -530.9643867498474492
  Basis Set: (AUG-CC-PVTZ AUX)
    Blend: AUG-CC-PVTZ-RI
    Molecular point group: c1

    Geometry (in Angstrom), charge = 0, multiplicity = 1:

       Center              X                  Y                   Z               Mass
    ------------   -----------------  -----------------  -----------------  -----------------
         F           -1.601120480602    -0.116848529293     0.968147406569    18.998403162730
         F            0.901683519398    -1.328612529293     0.968366406569    18.998403162730
         F            0.699700519398     1.444761470707     0.968314406569    18.998403162730
         C           -1.459900480602    -0.106589529293    -0.424616593431    12.000000000000
         C            0.822343519398    -1.211566529293    -0.424417593431    12.000000000000
         C            0.638160519398     1.317403470707    -0.424464593431    12.000000000000
         C           -0.636623480602    -1.315638529293    -0.838972593431    12.000000000000
         C           -0.820490480602     1.208970470707    -0.839020593431    12.000000000000
         C            1.457818519398     0.105899470707    -0.838820593431    12.000000000000
         H           -2.470817480602    -0.180221529293    -0.845603593431     1.007825032230
         H            1.391616519398    -2.050268529293    -0.845265593431     1.007825032230
         H            1.079907519398     2.229721470707    -0.845345593431     1.007825032230
         H           -0.687821480602    -1.421578529293    -1.930665593431     1.007825032230
         H           -1.073069480602    -2.217003529293    -0.397661593431     1.007825032230
         H           -1.405747980602     2.071234470707    -0.504841693431     1.007825032230
         H           -0.886494480602     1.306335470707    -1.930716593431     1.007825032230
         H            2.456597519398     0.178647470707    -0.397405593431     1.007825032230
         H            1.575285519398     0.114433470707    -1.930501593431     1.007825032230

  Basis Set: AUG-CC-PVTZ
    Blend: AUG-CC-PVTZ
  Basis Set: (AUG-CC-PVTZ AUX)
    Blend: AUG-CC-PVTZ-JKFIT
	 Reference Energy          =    -530.9643867498474492 [Eh]
	 Singles Energy            =      -0.0000000000000000 [Eh]
	 Same-Spin Energy          =      -0.4700046666486724 [Eh]
	 Opposite-Spin Energy      =      -1.4865630922608273 [Eh]
	 Correlation Energy        =      -1.9565677589094996 [Eh]
	 Total Energy              =    -532.9209545087569495 [Eh]

	 ================> DF-SCS-MP2 Energies <==================
	-----------------------------------------------------------
	 SCS Same-Spin Scale       =       0.3333333333333333 [-]
	 SCS Opposite-Spin Scale   =       1.2000000000000000 [-]
	 SCS Same-Spin Energy      =      -0.1566682222162241 [Eh]
	 SCS Opposite-Spin Energy  =      -1.7838757107129928 [Eh]
	 SCS Correlation Energy    =      -1.9405439329292169 [Eh]
	 SCS Total Energy          =    -532.9049306827766941 [Eh]
	-----------------------------------------------------------

  Dipole Moment: [D]
     X:    -0.0081      Y:     0.0125      Z:    -5.2656     Total:     5.2657

*** Psi4 exiting successfully. Buy a developer a beer!
