                               Psi4 1.4a3.dev225

  ==> Input File <==

--------------------------------------------------------------------------
#psi4
#
memory 32 gb

molecule  {
0 1
  F       -1.6012940    -0.1166020     1.0531380
  F        0.9015100    -1.3283660     1.0533570
  F        0.6995270     1.4450080     1.0533050
  C       -1.4600740    -0.1063430    -0.3396260
  C        0.8221700    -1.2113200    -0.3394270
  C        0.6379870     1.3176500    -0.3394740
  C       -0.6367970    -1.3153920    -0.7539820
  C       -0.8206640     1.2092170    -0.7540300
  C        1.4576450     0.1061460    -0.7538300
  H       -2.4709910    -0.1799750    -0.7606130
  H        1.3914430    -2.0500220    -0.7602750
  H        1.0797340     2.2299680    -0.7603550
  H       -0.6879950    -1.4213320    -1.8456750
  H       -1.0732430    -2.2167570    -0.3126710
  H       -1.3831040     2.0378510    -0.3127500
  H       -0.8926792     1.3154494    -1.9451505
  H        2.4564240     0.1788940    -0.3124150
  H        1.5751120     0.1146800    -1.8455110
units angstrom
no_reorient  #important for SAPT in psi4, default
symmetry c1  #important for SAPT in psi4, default
}

set PROPERTIES_ORIGIN ["COM"]
properties('MP2/aug-cc-pvtz', properties = ['dipole'])
--------------------------------------------------------------------------

    Molecular point group: c1
  Charge       = 0
  Multiplicity = 1
  Basis Set: AUG-CC-PVTZ
    Blend: AUG-CC-PVTZ
  Basis Set: (AUG-CC-PVTZ AUX)
    Blend: AUG-CC-PVTZ-JKFIT

    Orbital Energies [Eh]
    ---------------------

    Doubly Occupied:

       1A    -26.266453     2A    -26.266451     3A    -26.265407
       4A    -11.321121     5A    -11.321114     6A    -11.320212
       7A    -11.255936     8A    -11.244076     9A    -11.244062
      10A     -1.582882    11A     -1.573717    12A     -1.573083
      13A     -1.135707    14A     -1.032981    15A     -1.029654
      16A     -0.871774    17A     -0.868944    18A     -0.777427
      19A     -0.745108    20A     -0.697489    21A     -0.693925
      22A     -0.672406    23A     -0.660353    24A     -0.657511
      25A     -0.656603    26A     -0.641516    27A     -0.640095
      28A     -0.584607    29A     -0.556257    30A     -0.548248
      31A     -0.539840    32A     -0.524692    33A     -0.521568
      34A     -0.519963    35A     -0.455172    36A     -0.454898

  @DF-RHF Final Energy:  -530.95892945444245

   => Energetics <=

    Nuclear Repulsion Energy =            525.0219353669323255
    One-Electron Energy =               -1776.5192267771831212
    Two-Electron Energy =                 720.5383619558084547
    Total Energy =                       -530.9589294544424547
  Basis Set: (AUG-CC-PVTZ AUX)
    Blend: AUG-CC-PVTZ-RI
    Molecular point group: c1

    Geometry (in Angstrom), charge = 0, multiplicity = 1:

       Center              X                  Y                   Z               Mass
    ------------   -----------------  -----------------  -----------------  -----------------
         F           -1.601243160006    -0.116667772017     0.968091370397    18.998403162730
         F            0.901560839994    -1.328431772017     0.968310370397    18.998403162730
         F            0.699577839994     1.444942227983     0.968258370397    18.998403162730
         C           -1.460023160006    -0.106408772017    -0.424672629603    12.000000000000
         C            0.822220839994    -1.211385772017    -0.424473629603    12.000000000000
         C            0.638037839994     1.317584227983    -0.424520629603    12.000000000000
         C           -0.636746160006    -1.315457772017    -0.839028629603    12.000000000000
         C           -0.820613160006     1.209151227983    -0.839076629603    12.000000000000
         C            1.457695839994     0.106080227983    -0.838876629603    12.000000000000
         H           -2.470940160006    -0.180040772017    -0.845659629603     1.007825032230
         H            1.391493839994    -2.050087772017    -0.845321629603     1.007825032230
         H            1.079784839994     2.229902227983    -0.845401629603     1.007825032230
         H           -0.687944160006    -1.421397772017    -1.930721629603     1.007825032230
         H           -1.073192160006    -2.216822772017    -0.397717629603     1.007825032230
         H           -1.383053160006     2.037785227983    -0.397796629603     1.007825032230
         H           -0.892628360006     1.315383627983    -2.030197129603     1.007825032230
         H            2.456474839994     0.178828227983    -0.397461629603     1.007825032230
         H            1.575162839994     0.114614227983    -1.930557629603     1.007825032230

  Basis Set: AUG-CC-PVTZ
    Blend: AUG-CC-PVTZ
  Basis Set: (AUG-CC-PVTZ AUX)
    Blend: AUG-CC-PVTZ-JKFIT
	 Reference Energy          =    -530.9589294544424547 [Eh]
	 Singles Energy            =      -0.0000000000000000 [Eh]
	 Same-Spin Energy          =      -0.4700330043479904 [Eh]
	 Opposite-Spin Energy      =      -1.4873865176944761 [Eh]
	 Correlation Energy        =      -1.9574195220424664 [Eh]
	 Total Energy              =    -532.9163489764848691 [Eh]

	 ================> DF-SCS-MP2 Energies <==================
	-----------------------------------------------------------
	 SCS Same-Spin Scale       =       0.3333333333333333 [-]
	 SCS Opposite-Spin Scale   =       1.2000000000000000 [-]
	 SCS Same-Spin Energy      =      -0.1566776681159968 [Eh]
	 SCS Opposite-Spin Energy  =      -1.7848638212333712 [Eh]
	 SCS Correlation Energy    =      -1.9415414893493679 [Eh]
	 SCS Total Energy          =    -532.9004709437917882 [Eh]
	-----------------------------------------------------------

  Dipole Moment: [D]
     X:     0.0053      Y:    -0.0072      Z:    -5.1725     Total:     5.1725

*** Psi4 exiting successfully. Buy a developer a beer!
