                               Psi4 1.4a3.dev225

  ==> Input File <==

--------------------------------------------------------------------------
#psi4
#
memory 32 gb

molecule  {
0 1
  F       -1.6012940    -0.1166020     1.0531380
  F        0.9015100    -1.3283660     1.0533570
  F        0.6995270     1.4450080     1.0533050
  C       -1.4600740    -0.1063430    -0.3396260
  C        0.8221700    -1.2113200    -0.3394270
  C        0.6379870     1.3176500    -0.3394740
  C       -0.6367970    -1.3153920    -0.7539820
  C       -0.8206640     1.2092170    -0.7540300
  C        1.4576450     0.1061460    -0.7538300
  H       -2.4709910    -0.1799750    -0.7606130
  H        1.3914430    -2.0500220    -0.7602750
  H        1.0797340     2.2299680    -0.7603550
  H       -0.6879950    -1.4213320    -1.8456750
  H       -1.0732430    -2.2167570    -0.3126710
  H       -1.3728254     2.0227078    -0.3208144
  H       -0.8866680     1.3065820    -1.8457260
  H        2.4564240     0.1788940    -0.3124150
  H        1.5751120     0.1146800    -1.8455110
units angstrom
no_reorient  #important for SAPT in psi4, default
symmetry c1  #important for SAPT in psi4, default
}

set PROPERTIES_ORIGIN ["COM"]
properties('MP2/aug-cc-pvtz', properties = ['dipole'])
--------------------------------------------------------------------------

    Molecular point group: c1
  Charge       = 0
  Multiplicity = 1
  Basis Set: AUG-CC-PVTZ
    Blend: AUG-CC-PVTZ
  Basis Set: (AUG-CC-PVTZ AUX)
    Blend: AUG-CC-PVTZ-JKFIT

    Orbital Energies [Eh]
    ---------------------

    Doubly Occupied:

       1A    -26.265247     2A    -26.265244     3A    -26.265151
       4A    -11.320012     5A    -11.319968     6A    -11.319960
       7A    -11.243882     8A    -11.243868     9A    -11.241721
      10A     -1.582023    11A     -1.572604    12A     -1.572543
      13A     -1.136831    14A     -1.033534    15A     -1.032557
      16A     -0.872047    17A     -0.871094    18A     -0.779894
      19A     -0.745520    20A     -0.696850    21A     -0.696828
      22A     -0.671564    23A     -0.661508    24A     -0.656648
      25A     -0.656587    26A     -0.641211    27A     -0.640908
      28A     -0.584054    29A     -0.558546    30A     -0.549889
      31A     -0.548029    32A     -0.524254    33A     -0.524148
      34A     -0.520760    35A     -0.454803    36A     -0.454283

  @DF-RHF Final Energy:  -530.96554187973732

   => Energetics <=

    Nuclear Repulsion Energy =            525.6481625563976650
    One-Electron Energy =               -1777.7782702260069527
    Two-Electron Energy =                 721.1645657898719719
    Total Energy =                       -530.9655418797373159
  Basis Set: (AUG-CC-PVTZ AUX)
    Blend: AUG-CC-PVTZ-RI
    Molecular point group: c1

    Geometry (in Angstrom), charge = 0, multiplicity = 1:

       Center              X                  Y                   Z               Mass
    ------------   -----------------  -----------------  -----------------  -----------------
         F           -1.601362069163    -0.116492504045     0.967424477467    18.998403162730
         F            0.901441930837    -1.328256504045     0.967643477467    18.998403162730
         F            0.699458930837     1.445117495955     0.967591477467    18.998403162730
         C           -1.460142069163    -0.106233504045    -0.425339522533    12.000000000000
         C            0.822101930837    -1.211210504045    -0.425140522533    12.000000000000
         C            0.637918930837     1.317759495955    -0.425187522533    12.000000000000
         C           -0.636865069163    -1.315282504045    -0.839695522533    12.000000000000
         C           -0.820732069163     1.209326495955    -0.839743522533    12.000000000000
         C            1.457576930837     0.106255495955    -0.839543522533    12.000000000000
         H           -2.471059069163    -0.179865504045    -0.846326522533     1.007825032230
         H            1.391374930837    -2.049912504045    -0.845988522533     1.007825032230
         H            1.079665930837     2.230077495955    -0.846068522533     1.007825032230
         H           -0.688063069163    -1.421222504045    -1.931388522533     1.007825032230
         H           -1.073311069163    -2.216647504045    -0.398384522533     1.007825032230
         H           -1.372893469163     2.022817295955    -0.406527922533     1.007825032230
         H           -0.886736069163     1.306691495955    -1.931439522533     1.007825032230
         H            2.456355930837     0.179003495955    -0.398128522533     1.007825032230
         H            1.575043930837     0.114789495955    -1.931224522533     1.007825032230

  Basis Set: AUG-CC-PVTZ
    Blend: AUG-CC-PVTZ
  Basis Set: (AUG-CC-PVTZ AUX)
    Blend: AUG-CC-PVTZ-JKFIT
	 Reference Energy          =    -530.9655418797373159 [Eh]
	 Singles Energy            =      -0.0000000000000000 [Eh]
	 Same-Spin Energy          =      -0.4699832343540802 [Eh]
	 Opposite-Spin Energy      =      -1.4864823248467878 [Eh]
	 Correlation Energy        =      -1.9564655592008680 [Eh]
	 Total Energy              =    -532.9220074389381807 [Eh]

	 ================> DF-SCS-MP2 Energies <==================
	-----------------------------------------------------------
	 SCS Same-Spin Scale       =       0.3333333333333333 [-]
	 SCS Opposite-Spin Scale   =       1.2000000000000000 [-]
	 SCS Same-Spin Energy      =      -0.1566610781180267 [Eh]
	 SCS Opposite-Spin Energy  =      -1.7837787898161452 [Eh]
	 SCS Correlation Energy    =      -1.9404398679341719 [Eh]
	 SCS Total Energy          =    -532.9059817476714898 [Eh]
	-----------------------------------------------------------

  Dipole Moment: [D]
     X:    -0.0049      Y:     0.0077      Z:    -5.2245     Total:     5.2245

*** Psi4 exiting successfully. Buy a developer a beer!
