                               Psi4 1.4a3.dev225

  ==> Input File <==

--------------------------------------------------------------------------
#psi4
#
memory 32 gb

molecule  {
0 1
  F       -1.6012940    -0.1166020     1.0531380
  F        0.9015100    -1.3283660     1.0533570
  F        0.6995270     1.4450080     1.0533050
  C       -1.4600740    -0.1063430    -0.3396260
  C        0.8221700    -1.2113200    -0.3394270
  C        0.6379870     1.3176500    -0.3394740
  C       -0.6367970    -1.3153920    -0.7539820
  C       -0.8206640     1.2092170    -0.7540300
  C        1.4576450     0.1061460    -0.7538300
  H       -2.4709910    -0.1799750    -0.7606130
  H        1.3914430    -2.0500220    -0.7602750
  H        1.0797340     2.2299680    -0.7603550
  H       -0.6879950    -1.4213320    -1.8456750
  H       -1.0732430    -2.2167570    -0.3126710
  H       -1.3933826     2.0529942    -0.3046856
  H       -0.8866680     1.3065820    -1.8457260
  H        2.4564240     0.1788940    -0.3124150
  H        1.5751120     0.1146800    -1.8455110
units angstrom
no_reorient  #important for SAPT in psi4, default
symmetry c1  #important for SAPT in psi4, default
}

set PROPERTIES_ORIGIN ["COM"]
properties('MP2/aug-cc-pvtz', properties = ['dipole'])
--------------------------------------------------------------------------

    Molecular point group: c1
  Charge       = 0
  Multiplicity = 1
  Basis Set: AUG-CC-PVTZ
    Blend: AUG-CC-PVTZ
  Basis Set: (AUG-CC-PVTZ AUX)
    Blend: AUG-CC-PVTZ-JKFIT

    Orbital Energies [Eh]
    ---------------------

    Doubly Occupied:

       1A    -26.265303     2A    -26.265209     3A    -26.265207
       4A    -11.320268     5A    -11.320262     6A    -11.320214
       7A    -11.246282     8A    -11.244171     9A    -11.244157
      10A     -1.582045    11A     -1.572627    12A     -1.572565
      13A     -1.136648    14A     -1.032815    15A     -1.031900
      16A     -0.871244    17A     -0.870346    18A     -0.779703
      19A     -0.745377    20A     -0.696950    21A     -0.696927
      22A     -0.671627    23A     -0.658218    24A     -0.656670
      25A     -0.656455    26A     -0.641024    27A     -0.640679
      28A     -0.584140    29A     -0.558272    30A     -0.548228
      31A     -0.546248    32A     -0.524319    33A     -0.524177
      34A     -0.520909    35A     -0.454537    36A     -0.453978

  @DF-RHF Final Energy:  -530.96492352226539

   => Energetics <=

    Nuclear Repulsion Energy =            525.4306805610935953
    One-Electron Energy =               -1777.3518055908764381
    Two-Electron Energy =                 720.9562015075174486
    Total Energy =                       -530.9649235222653942
  Basis Set: (AUG-CC-PVTZ AUX)
    Blend: AUG-CC-PVTZ-RI
    Molecular point group: c1

    Geometry (in Angstrom), charge = 0, multiplicity = 1:

       Center              X                  Y                   Z               Mass
    ------------   -----------------  -----------------  -----------------  -----------------
         F           -1.601212009658    -0.116713582898     0.967306743547    18.998403162730
         F            0.901591990342    -1.328477582898     0.967525743547    18.998403162730
         F            0.699608990342     1.444896417102     0.967473743547    18.998403162730
         C           -1.459992009658    -0.106454582898    -0.425457256453    12.000000000000
         C            0.822251990342    -1.211431582898    -0.425258256453    12.000000000000
         C            0.638068990342     1.317538417102    -0.425305256453    12.000000000000
         C           -0.636715009658    -1.315503582898    -0.839813256453    12.000000000000
         C           -0.820582009658     1.209105417102    -0.839861256453    12.000000000000
         C            1.457726990342     0.106034417102    -0.839661256453    12.000000000000
         H           -2.470909009658    -0.180086582898    -0.846444256453     1.007825032230
         H            1.391524990342    -2.050133582898    -0.846106256453     1.007825032230
         H            1.079815990342     2.229856417102    -0.846186256453     1.007825032230
         H           -0.687913009658    -1.421443582898    -1.931506256453     1.007825032230
         H           -1.073161009658    -2.216868582898    -0.398502256453     1.007825032230
         H           -1.393300609658     2.052882617102    -0.390516856453     1.007825032230
         H           -0.886586009658     1.306470417102    -1.931557256453     1.007825032230
         H            2.456505990342     0.178782417102    -0.398246256453     1.007825032230
         H            1.575193990342     0.114568417102    -1.931342256453     1.007825032230

  Basis Set: AUG-CC-PVTZ
    Blend: AUG-CC-PVTZ
  Basis Set: (AUG-CC-PVTZ AUX)
    Blend: AUG-CC-PVTZ-JKFIT
	 Reference Energy          =    -530.9649235222653942 [Eh]
	 Singles Energy            =      -0.0000000000000000 [Eh]
	 Same-Spin Energy          =      -0.4700174621248403 [Eh]
	 Opposite-Spin Energy      =      -1.4867684710928699 [Eh]
	 Correlation Energy        =      -1.9567859332177102 [Eh]
	 Total Energy              =    -532.9217094554830965 [Eh]

	 ================> DF-SCS-MP2 Energies <==================
	-----------------------------------------------------------
	 SCS Same-Spin Scale       =       0.3333333333333333 [-]
	 SCS Opposite-Spin Scale   =       1.2000000000000000 [-]
	 SCS Same-Spin Energy      =      -0.1566724873749468 [Eh]
	 SCS Opposite-Spin Energy  =      -1.7841221653114439 [Eh]
	 SCS Correlation Energy    =      -1.9407946526863906 [Eh]
	 SCS Total Energy          =    -532.9057181749517440 [Eh]
	-----------------------------------------------------------

  Dipole Moment: [D]
     X:     0.0061      Y:    -0.0084      Z:    -5.2239     Total:     5.2239

*** Psi4 exiting successfully. Buy a developer a beer!
