                               Psi4 1.4a3.dev225

  ==> Input File <==

--------------------------------------------------------------------------
#psi4
#
memory 32 gb

molecule  {
0 1
  F       -1.6012940    -0.1166020     1.0531380
  F        0.9015100    -1.3283660     1.0533570
  F        0.6995270     1.4450080     1.0533050
  C       -1.4600740    -0.1063430    -0.3396260
  C        0.8221700    -1.2113200    -0.3394270
  C        0.6379870     1.3176500    -0.3394740
  C       -0.6367970    -1.3153920    -0.7539820
  C       -0.8206640     1.2092170    -0.7540300
  C        1.4576450     0.1061460    -0.7538300
  H       -2.4709910    -0.1799750    -0.7606130
  H        1.3914430    -2.0500220    -0.7602750
  H        1.0797340     2.2299680    -0.7603550
  H       -0.6879950    -1.4213320    -1.8456750
  H       -1.0732430    -2.2167570    -0.3126710
  H       -1.3831040     2.0378510    -0.3127500
  H       -0.8866680     1.3065820    -1.8457260
  H        2.4564240     0.1788940    -0.3124150
  H        1.5751120     0.1146800    -1.8455110
units angstrom
no_reorient  #important for SAPT in psi4, default
symmetry c1  #important for SAPT in psi4, default
}

set PROPERTIES_ORIGIN ["COM"]
properties('MP2/aug-cc-pvtz', properties = ['dipole'])
--------------------------------------------------------------------------

    Molecular point group: c1
  Charge       = 0
  Multiplicity = 1
  Basis Set: AUG-CC-PVTZ
    Blend: AUG-CC-PVTZ
  Basis Set: (AUG-CC-PVTZ AUX)
    Blend: AUG-CC-PVTZ-JKFIT

    Orbital Energies [Eh]
    ---------------------

    Doubly Occupied:

       1A    -26.265226     2A    -26.265226     3A    -26.265223
       4A    -11.320114     5A    -11.320114     6A    -11.320102
       7A    -11.244023     8A    -11.244022     9A    -11.244002
      10A     -1.582032    11A     -1.572583    12A     -1.572583
      13A     -1.136726    14A     -1.032682    15A     -1.032682
      16A     -0.871166    17A     -0.871166    18A     -0.779790
      19A     -0.745441    20A     -0.696886    21A     -0.696886
      22A     -0.671593    23A     -0.659714    24A     -0.656626
      25A     -0.656626    26A     -0.640964    27A     -0.640964
      28A     -0.584095    29A     -0.558363    30A     -0.548126
      31A     -0.548125    32A     -0.524231    33A     -0.524231
      34A     -0.520831    35A     -0.454406    36A     -0.454406

  @DF-RHF Final Energy:  -530.96547782729942

   => Energetics <=

    Nuclear Repulsion Energy =            525.5383405462773680
    One-Electron Energy =               -1777.5636886894108102
    Two-Electron Energy =                 721.0598703158340186
    Total Energy =                       -530.9654778272994236
  Basis Set: (AUG-CC-PVTZ AUX)
    Blend: AUG-CC-PVTZ-RI
    Molecular point group: c1

    Geometry (in Angstrom), charge = 0, multiplicity = 1:

       Center              X                  Y                   Z               Mass
    ------------   -----------------  -----------------  -----------------  -----------------
         F           -1.601287039411    -0.116603043471     0.967365610507    18.998403162730
         F            0.901516960589    -1.328367043471     0.967584610507    18.998403162730
         F            0.699533960589     1.445006956529     0.967532610507    18.998403162730
         C           -1.460067039411    -0.106344043471    -0.425398389493    12.000000000000
         C            0.822176960589    -1.211321043471    -0.425199389493    12.000000000000
         C            0.637993960589     1.317648956529    -0.425246389493    12.000000000000
         C           -0.636790039411    -1.315393043471    -0.839754389493    12.000000000000
         C           -0.820657039411     1.209215956529    -0.839802389493    12.000000000000
         C            1.457651960589     0.106144956529    -0.839602389493    12.000000000000
         H           -2.470984039411    -0.179976043471    -0.846385389493     1.007825032230
         H            1.391449960589    -2.050023043471    -0.846047389493     1.007825032230
         H            1.079740960589     2.229966956529    -0.846127389493     1.007825032230
         H           -0.687988039411    -1.421333043471    -1.931447389493     1.007825032230
         H           -1.073236039411    -2.216758043471    -0.398443389493     1.007825032230
         H           -1.383097039411     2.037849956529    -0.398522389493     1.007825032230
         H           -0.886661039411     1.306580956529    -1.931498389493     1.007825032230
         H            2.456430960589     0.178892956529    -0.398187389493     1.007825032230
         H            1.575118960589     0.114678956529    -1.931283389493     1.007825032230

  Basis Set: AUG-CC-PVTZ
    Blend: AUG-CC-PVTZ
  Basis Set: (AUG-CC-PVTZ AUX)
    Blend: AUG-CC-PVTZ-JKFIT
	 Reference Energy          =    -530.9654778272994236 [Eh]
	 Singles Energy            =      -0.0000000000000000 [Eh]
	 Same-Spin Energy          =      -0.4699995699479015 [Eh]
	 Opposite-Spin Energy      =      -1.4866203704007699 [Eh]
	 Correlation Energy        =      -1.9566199403486713 [Eh]
	 Total Energy              =    -532.9220977676480970 [Eh]

	 ================> DF-SCS-MP2 Energies <==================
	-----------------------------------------------------------
	 SCS Same-Spin Scale       =       0.3333333333333333 [-]
	 SCS Opposite-Spin Scale   =       1.2000000000000000 [-]
	 SCS Same-Spin Energy      =      -0.1566665233159671 [Eh]
	 SCS Opposite-Spin Energy  =      -1.7839444444809238 [Eh]
	 SCS Correlation Energy    =      -1.9406109677968910 [Eh]
	 SCS Total Energy          =    -532.9060887950963661 [Eh]
	-----------------------------------------------------------

  Dipole Moment: [D]
     X:     0.0004      Y:    -0.0001      Z:    -5.2241     Total:     5.2241

*** Psi4 exiting successfully. Buy a developer a beer!
