                               Psi4 1.4a3.dev225

  ==> Input File <==

--------------------------------------------------------------------------
#psi4
#
memory 32 gb

molecule  {
0 1
  F       -1.6012940    -0.1166020     1.0531380
  F        0.9015100    -1.3283660     1.0533570
  F        0.6995270     1.4450080     1.0533050
  C       -1.4550302    -0.1059766    -0.3893696
  C        0.8221700    -1.2113200    -0.3394270
  C        0.6379870     1.3176500    -0.3394740
  C       -0.6367970    -1.3153920    -0.7539820
  C       -0.8206640     1.2092170    -0.7540300
  C        1.4576450     0.1061460    -0.7538300
  H       -2.4709910    -0.1799750    -0.7606130
  H        1.3914430    -2.0500220    -0.7602750
  H        1.0797340     2.2299680    -0.7603550
  H       -0.6879950    -1.4213320    -1.8456750
  H       -1.0732430    -2.2167570    -0.3126710
  H       -1.3831040     2.0378510    -0.3127500
  H       -0.8866680     1.3065820    -1.8457260
  H        2.4564240     0.1788940    -0.3124150
  H        1.5751120     0.1146800    -1.8455110
units angstrom
no_reorient  #important for SAPT in psi4, default
symmetry c1  #important for SAPT in psi4, default
}

set PROPERTIES_ORIGIN ["COM"]
properties('MP2/aug-cc-pvtz', properties = ['dipole'])
--------------------------------------------------------------------------

    Molecular point group: c1
  Charge       = 0
  Multiplicity = 1
  Basis Set: AUG-CC-PVTZ
    Blend: AUG-CC-PVTZ
  Basis Set: (AUG-CC-PVTZ AUX)
    Blend: AUG-CC-PVTZ-JKFIT

    Orbital Energies [Eh]
    ---------------------

    Doubly Occupied:

       1A    -26.265104     2A    -26.265102     3A    -26.252625
       4A    -11.321378     5A    -11.321371     6A    -11.320602
       7A    -11.245757     8A    -11.245743     9A    -11.244933
      10A     -1.579412    11A     -1.572389    12A     -1.550452
      13A     -1.140639    14A     -1.036530    15A     -1.035196
      16A     -0.873570    17A     -0.871694    18A     -0.776607
      19A     -0.744422    20A     -0.695050    21A     -0.689800
      22A     -0.669289    23A     -0.661649    24A     -0.654648
      25A     -0.650603    26A     -0.635079    27A     -0.633981
      28A     -0.583635    29A     -0.555114    30A     -0.549356
      31A     -0.547441    32A     -0.525903    33A     -0.525728
      34A     -0.523953    35A     -0.459428    36A     -0.458504

  @DF-RHF Final Energy:  -530.96200298779718

   => Energetics <=

    Nuclear Repulsion Energy =            525.1122436147227290
    One-Electron Energy =               -1776.7831219991383023
    Two-Electron Energy =                 720.7088753966183958
    Total Energy =                       -530.9620029877971774
  Basis Set: (AUG-CC-PVTZ AUX)
    Blend: AUG-CC-PVTZ-RI
    Molecular point group: c1

    Geometry (in Angstrom), charge = 0, multiplicity = 1:

       Center              X                  Y                   Z               Mass
    ------------   -----------------  -----------------  -----------------  -----------------
         F           -1.601725422214    -0.116634889195     0.971689084635    18.998403162730
         F            0.901078577786    -1.328398889195     0.971908084635    18.998403162730
         F            0.699095577786     1.444975110805     0.971856084635    18.998403162730
         C           -1.455461622214    -0.106009489195    -0.470818515365    12.000000000000
         C            0.821738577786    -1.211352889195    -0.420875915365    12.000000000000
         C            0.637555577786     1.317617110805    -0.420922915365    12.000000000000
         C           -0.637228422214    -1.315424889195    -0.835430915365    12.000000000000
         C           -0.821095422214     1.209184110805    -0.835478915365    12.000000000000
         C            1.457213577786     0.106113110805    -0.835278915365    12.000000000000
         H           -2.471422422214    -0.180007889195    -0.842061915365     1.007825032230
         H            1.391011577786    -2.050054889195    -0.841723915365     1.007825032230
         H            1.079302577786     2.229935110805    -0.841803915365     1.007825032230
         H           -0.688426422214    -1.421364889195    -1.927123915365     1.007825032230
         H           -1.073674422214    -2.216789889195    -0.394119915365     1.007825032230
         H           -1.383535422214     2.037818110805    -0.394198915365     1.007825032230
         H           -0.887099422214     1.306549110805    -1.927174915365     1.007825032230
         H            2.455992577786     0.178861110805    -0.393863915365     1.007825032230
         H            1.574680577786     0.114647110805    -1.926959915365     1.007825032230

  Basis Set: AUG-CC-PVTZ
    Blend: AUG-CC-PVTZ
  Basis Set: (AUG-CC-PVTZ AUX)
    Blend: AUG-CC-PVTZ-JKFIT
	 Reference Energy          =    -530.9620029877971774 [Eh]
	 Singles Energy            =      -0.0000000000000000 [Eh]
	 Same-Spin Energy          =      -0.4703706985558704 [Eh]
	 Opposite-Spin Energy      =      -1.4878270135447000 [Eh]
	 Correlation Energy        =      -1.9581977121005705 [Eh]
	 Total Energy              =    -532.9202006998976913 [Eh]

	 ================> DF-SCS-MP2 Energies <==================
	-----------------------------------------------------------
	 SCS Same-Spin Scale       =       0.3333333333333333 [-]
	 SCS Opposite-Spin Scale   =       1.2000000000000000 [-]
	 SCS Same-Spin Energy      =      -0.1567902328519568 [Eh]
	 SCS Opposite-Spin Energy  =      -1.7853924162536401 [Eh]
	 SCS Correlation Energy    =      -1.9421826491055969 [Eh]
	 SCS Total Energy          =    -532.9041856369027528 [Eh]
	-----------------------------------------------------------

  Dipole Moment: [D]
     X:     0.0564      Y:     0.0040      Z:    -5.4193     Total:     5.4196

*** Psi4 exiting successfully. Buy a developer a beer!
