                               Psi4 1.4a3.dev225

  ==> Input File <==

--------------------------------------------------------------------------
#psi4
#
memory 32 gb

molecule  {
0 1
  F       -1.6012940    -0.1166020     1.0531380
  F        0.9239520    -1.2849858     1.0548670
  F        0.6995270     1.4450080     1.0533050
  C       -1.4600740    -0.1063430    -0.3396260
  C        0.8221700    -1.2113200    -0.3394270
  C        0.6379870     1.3176500    -0.3394740
  C       -0.6367970    -1.3153920    -0.7539820
  C       -0.8206640     1.2092170    -0.7540300
  C        1.4576450     0.1061460    -0.7538300
  H       -2.4709910    -0.1799750    -0.7606130
  H        1.3914430    -2.0500220    -0.7602750
  H        1.0797340     2.2299680    -0.7603550
  H       -0.6879950    -1.4213320    -1.8456750
  H       -1.0732430    -2.2167570    -0.3126710
  H       -1.3831040     2.0378510    -0.3127500
  H       -0.8866680     1.3065820    -1.8457260
  H        2.4564240     0.1788940    -0.3124150
  H        1.5751120     0.1146800    -1.8455110
units angstrom
no_reorient  #important for SAPT in psi4, default
symmetry c1  #important for SAPT in psi4, default
}

set PROPERTIES_ORIGIN ["COM"]
properties('MP2/aug-cc-pvtz', properties = ['dipole'])
--------------------------------------------------------------------------

    Molecular point group: c1
  Charge       = 0
  Multiplicity = 1
  Basis Set: AUG-CC-PVTZ
    Blend: AUG-CC-PVTZ
  Basis Set: (AUG-CC-PVTZ AUX)
    Blend: AUG-CC-PVTZ-JKFIT

    Orbital Energies [Eh]
    ---------------------

    Doubly Occupied:

       1A    -26.265376     2A    -26.265084     3A    -26.264368
       4A    -11.320284     5A    -11.320169     6A    -11.319587
       7A    -11.244828     8A    -11.243833     9A    -11.242707
      10A     -1.582047    11A     -1.572756    12A     -1.571844
      13A     -1.136503    14A     -1.032776    15A     -1.032281
      16A     -0.871044    17A     -0.870999    18A     -0.779538
      19A     -0.745570    20A     -0.697378    21A     -0.696445
      22A     -0.671256    23A     -0.659518    24A     -0.656461
      25A     -0.655637    26A     -0.641359    27A     -0.640491
      28A     -0.584648    29A     -0.558091    30A     -0.548564
      31A     -0.547199    32A     -0.524347    33A     -0.523293
      34A     -0.520481    35A     -0.454636    36A     -0.454034

  @DF-RHF Final Energy:  -530.96495263025054

   => Energetics <=

    Nuclear Repulsion Energy =            526.0025968277064976
    One-Electron Energy =               -1778.5042311545864777
    Two-Electron Energy =                 721.5366816966293300
    Total Energy =                       -530.9649526302505365
  Basis Set: (AUG-CC-PVTZ AUX)
    Blend: AUG-CC-PVTZ-RI
    Molecular point group: c1

    Geometry (in Angstrom), charge = 0, multiplicity = 1:

       Center              X                  Y                   Z               Mass
    ------------   -----------------  -----------------  -----------------  -----------------
         F           -1.604375151557    -0.122572338656     0.967157828253    18.998403162730
         F            0.920870848443    -1.290956138656     0.968886828253    18.998403162730
         F            0.696445848443     1.439037661344     0.967324828253    18.998403162730
         C           -1.463155151557    -0.112313338656    -0.425606171747    12.000000000000
         C            0.819088848443    -1.217290338656    -0.425407171747    12.000000000000
         C            0.634905848443     1.311679661344    -0.425454171747    12.000000000000
         C           -0.639878151557    -1.321362338656    -0.839962171747    12.000000000000
         C           -0.823745151557     1.203246661344    -0.840010171747    12.000000000000
         C            1.454563848443     0.100175661344    -0.839810171747    12.000000000000
         H           -2.474072151557    -0.185945338656    -0.846593171747     1.007825032230
         H            1.388361848443    -2.055992338656    -0.846255171747     1.007825032230
         H            1.076652848443     2.223997661344    -0.846335171747     1.007825032230
         H           -0.691076151557    -1.427302338656    -1.931655171747     1.007825032230
         H           -1.076324151557    -2.222727338656    -0.398651171747     1.007825032230
         H           -1.386185151557     2.031880661344    -0.398730171747     1.007825032230
         H           -0.889749151557     1.300611661344    -1.931706171747     1.007825032230
         H            2.453342848443     0.172923661344    -0.398395171747     1.007825032230
         H            1.572030848443     0.108709661344    -1.931491171747     1.007825032230

  Basis Set: AUG-CC-PVTZ
    Blend: AUG-CC-PVTZ
  Basis Set: (AUG-CC-PVTZ AUX)
    Blend: AUG-CC-PVTZ-JKFIT
	 Reference Energy          =    -530.9649526302505365 [Eh]
	 Singles Energy            =      -0.0000000000000000 [Eh]
	 Same-Spin Energy          =      -0.4700565372446852 [Eh]
	 Opposite-Spin Energy      =      -1.4867070731601812 [Eh]
	 Correlation Energy        =      -1.9567636104048665 [Eh]
	 Total Energy              =    -532.9217162406554280 [Eh]

	 ================> DF-SCS-MP2 Energies <==================
	-----------------------------------------------------------
	 SCS Same-Spin Scale       =       0.3333333333333333 [-]
	 SCS Opposite-Spin Scale   =       1.2000000000000000 [-]
	 SCS Same-Spin Energy      =      -0.1566855124148950 [Eh]
	 SCS Opposite-Spin Energy  =      -1.7840484877922174 [Eh]
	 SCS Correlation Energy    =      -1.9407340002071125 [Eh]
	 SCS Total Energy          =    -532.9056866304576943 [Eh]
	-----------------------------------------------------------

  Dipole Moment: [D]
     X:    -0.0368      Y:    -0.0644      Z:    -5.2170     Total:     5.2176

*** Psi4 exiting successfully. Buy a developer a beer!
