                               Psi4 1.4a3.dev225

  ==> Input File <==

--------------------------------------------------------------------------
#psi4
#
memory 32 gb

molecule  {
0 1
  F       -1.6012940    -0.1166020     1.0531380
  F        0.9015100    -1.3283660     1.0533570
  F        0.8452084     1.4508308     1.0386271
  C       -1.4600740    -0.1063430    -0.3396260
  C        0.8221700    -1.2113200    -0.3394270
  C        0.6379870     1.3176500    -0.3394740
  C       -0.6367970    -1.3153920    -0.7539820
  C       -0.8206640     1.2092170    -0.7540300
  C        1.4576450     0.1061460    -0.7538300
  H       -2.4709910    -0.1799750    -0.7606130
  H        1.3914430    -2.0500220    -0.7602750
  H        1.0797340     2.2299680    -0.7603550
  H       -0.6879950    -1.4213320    -1.8456750
  H       -1.0732430    -2.2167570    -0.3126710
  H       -1.3831040     2.0378510    -0.3127500
  H       -0.8866680     1.3065820    -1.8457260
  H        2.4564240     0.1788940    -0.3124150
  H        1.5751120     0.1146800    -1.8455110
units angstrom
no_reorient  #important for SAPT in psi4, default
symmetry c1  #important for SAPT in psi4, default
}

set PROPERTIES_ORIGIN ["COM"]
properties('MP2/aug-cc-pvtz', properties = ['dipole'])
--------------------------------------------------------------------------

    Molecular point group: c1
  Charge       = 0
  Multiplicity = 1
  Basis Set: AUG-CC-PVTZ
    Blend: AUG-CC-PVTZ
  Basis Set: (AUG-CC-PVTZ AUX)
    Blend: AUG-CC-PVTZ-JKFIT

    Orbital Energies [Eh]
    ---------------------

    Doubly Occupied:

       1A    -26.267641     2A    -26.265450     3A    -26.264854
       4A    -11.321583     5A    -11.319894     6A    -11.319566
       7A    -11.247916     8A    -11.244503     9A    -11.241501
      10A     -1.582384    11A     -1.574607    12A     -1.572331
      13A     -1.137309    14A     -1.033797    15A     -1.032317
      16A     -0.871757    17A     -0.871546    18A     -0.780533
      19A     -0.745244    20A     -0.698288    21A     -0.695743
      22A     -0.673129    23A     -0.660629    24A     -0.659290
      25A     -0.657030    26A     -0.641798    27A     -0.639736
      28A     -0.582387    29A     -0.560873    30A     -0.550216
      31A     -0.546230    32A     -0.526223    33A     -0.523774
      34A     -0.520652    35A     -0.455086    36A     -0.453613

  @DF-RHF Final Energy:  -530.96381055489019

   => Energetics <=

    Nuclear Repulsion Energy =            524.2882211648357043
    One-Electron Energy =               -1775.0252059618790099
    Two-Electron Energy =                 719.7731742421531180
    Total Energy =                       -530.9638105548901876
  Basis Set: (AUG-CC-PVTZ AUX)
    Blend: AUG-CC-PVTZ-RI
    Molecular point group: c1

    Geometry (in Angstrom), charge = 0, multiplicity = 1:

       Center              X                  Y                   Z               Mass
    ------------   -----------------  -----------------  -----------------  -----------------
         F           -1.621333403410    -0.117404284867     0.969385350337    18.998403162730
         F            0.881470596590    -1.329168284867     0.969604350337    18.998403162730
         F            0.825168996590     1.450028515133     0.954874450337    18.998403162730
         C           -1.480113403410    -0.107145284867    -0.423378649663    12.000000000000
         C            0.802130596590    -1.212122284867    -0.423179649663    12.000000000000
         C            0.617947596590     1.316847715133    -0.423226649663    12.000000000000
         C           -0.656836403410    -1.316194284867    -0.837734649663    12.000000000000
         C           -0.840703403410     1.208414715133    -0.837782649663    12.000000000000
         C            1.437605596590     0.105343715133    -0.837582649663    12.000000000000
         H           -2.491030403410    -0.180777284867    -0.844365649663     1.007825032230
         H            1.371403596590    -2.050824284867    -0.844027649663     1.007825032230
         H            1.059694596590     2.229165715133    -0.844107649663     1.007825032230
         H           -0.708034403410    -1.422134284867    -1.929427649663     1.007825032230
         H           -1.093282403410    -2.217559284867    -0.396423649663     1.007825032230
         H           -1.403143403410     2.037048715133    -0.396502649663     1.007825032230
         H           -0.906707403410     1.305779715133    -1.929478649663     1.007825032230
         H            2.436384596590     0.178091715133    -0.396167649663     1.007825032230
         H            1.555072596590     0.113877715133    -1.929263649663     1.007825032230

  Basis Set: AUG-CC-PVTZ
    Blend: AUG-CC-PVTZ
  Basis Set: (AUG-CC-PVTZ AUX)
    Blend: AUG-CC-PVTZ-JKFIT
	 Reference Energy          =    -530.9638105548901876 [Eh]
	 Singles Energy            =      -0.0000000000000000 [Eh]
	 Same-Spin Energy          =      -0.4699527277195050 [Eh]
	 Opposite-Spin Energy      =      -1.4865719875345935 [Eh]
	 Correlation Energy        =      -1.9565247152540985 [Eh]
	 Total Energy              =    -532.9203352701442782 [Eh]

	 ================> DF-SCS-MP2 Energies <==================
	-----------------------------------------------------------
	 SCS Same-Spin Scale       =       0.3333333333333333 [-]
	 SCS Opposite-Spin Scale   =       1.2000000000000000 [-]
	 SCS Same-Spin Energy      =      -0.1566509092398350 [Eh]
	 SCS Opposite-Spin Energy  =      -1.7838863850415121 [Eh]
	 SCS Correlation Energy    =      -1.9405372942813470 [Eh]
	 SCS Total Energy          =    -532.9043478491715859 [Eh]
	-----------------------------------------------------------

  Dipole Moment: [D]
     X:    -0.2198      Y:     0.0037      Z:    -5.2247     Total:     5.2293

*** Psi4 exiting successfully. Buy a developer a beer!
