                               Psi4 1.4a3.dev225

  ==> Input File <==

--------------------------------------------------------------------------
#psi4
#
memory 32 gb

molecule  {
0 1
  F       -1.6012940    -0.1166020     1.0531380
  F        0.9015100    -1.3283660     1.0533570
  F        0.6995270     1.4450080     1.0533050
  C       -1.4600740    -0.1063430    -0.3396260
  C        0.8221700    -1.2113200    -0.3394270
  C        0.6379870     1.3176500    -0.3394740
  C       -0.6367970    -1.3153920    -0.7539820
  C       -0.8206640     1.2092170    -0.7540300
  C        1.4576450     0.1061460    -0.7538300
  H       -2.4709910    -0.1799750    -0.7606130
  H        1.3914430    -2.0500220    -0.7602750
  H        1.0394854     2.1468445    -0.7220075
  H       -0.6879950    -1.4213320    -1.8456750
  H       -1.0732430    -2.2167570    -0.3126710
  H       -1.3831040     2.0378510    -0.3127500
  H       -0.8866680     1.3065820    -1.8457260
  H        2.4564240     0.1788940    -0.3124150
  H        1.5751120     0.1146800    -1.8455110
units angstrom
no_reorient  #important for SAPT in psi4, default
symmetry c1  #important for SAPT in psi4, default
}

set PROPERTIES_ORIGIN ["COM"]
properties('MP2/aug-cc-pvtz', properties = ['dipole'])
--------------------------------------------------------------------------

    Molecular point group: c1
  Charge       = 0
  Multiplicity = 1
  Basis Set: AUG-CC-PVTZ
    Blend: AUG-CC-PVTZ
  Basis Set: (AUG-CC-PVTZ AUX)
    Blend: AUG-CC-PVTZ-JKFIT

    Orbital Energies [Eh]
    ---------------------

    Doubly Occupied:

       1A    -26.264761     2A    -26.264759     3A    -26.263377
       4A    -11.319576     5A    -11.319569     6A    -11.307601
       7A    -11.243584     8A    -11.243284     9A    -11.243269
      10A     -1.581305    11A     -1.572099    12A     -1.571588
      13A     -1.137373    14A     -1.036328    15A     -1.032123
      16A     -0.879338    17A     -0.870733    18A     -0.782201
      19A     -0.748804    20A     -0.698443    21A     -0.696268
      22A     -0.670900    23A     -0.661122    24A     -0.657653
      25A     -0.656036    26A     -0.641352    27A     -0.640282
      28A     -0.588497    29A     -0.557994    30A     -0.548595
      31A     -0.547753    32A     -0.525827    33A     -0.523530
      34A     -0.520301    35A     -0.458304    36A     -0.453738

  @DF-RHF Final Energy:  -530.96029388335205

   => Energetics <=

    Nuclear Repulsion Energy =            526.1729723435213373
    One-Electron Energy =               -1778.8099897145507384
    Two-Electron Energy =                 721.6767234876772363
    Total Energy =                       -530.9602938833520511
  Basis Set: (AUG-CC-PVTZ AUX)
    Blend: AUG-CC-PVTZ-RI
    Molecular point group: c1

    Geometry (in Angstrom), charge = 0, multiplicity = 1:

       Center              X                  Y                   Z               Mass
    ------------   -----------------  -----------------  -----------------  -----------------
         F           -1.600993240402    -0.115996274494     0.967085688784    18.998403162730
         F            0.901810759598    -1.327760274494     0.967304688784    18.998403162730
         F            0.699827759598     1.445613725506     0.967252688784    18.998403162730
         C           -1.459773240402    -0.105737274494    -0.425678311216    12.000000000000
         C            0.822470759598    -1.210714274494    -0.425479311216    12.000000000000
         C            0.638287759598     1.318255725506    -0.425526311216    12.000000000000
         C           -0.636496240402    -1.314786274494    -0.840034311216    12.000000000000
         C           -0.820363240402     1.209822725506    -0.840082311216    12.000000000000
         C            1.457945759598     0.106751725506    -0.839882311216    12.000000000000
         H           -2.470690240402    -0.179369274494    -0.846665311216     1.007825032230
         H            1.391743759598    -2.049416274494    -0.846327311216     1.007825032230
         H            1.039786159598     2.147450225506    -0.808059811216     1.007825032230
         H           -0.687694240402    -1.420726274494    -1.931727311216     1.007825032230
         H           -1.072942240402    -2.216151274494    -0.398723311216     1.007825032230
         H           -1.382803240402     2.038456725506    -0.398802311216     1.007825032230
         H           -0.886367240402     1.307187725506    -1.931778311216     1.007825032230
         H            2.456724759598     0.179499725506    -0.398467311216     1.007825032230
         H            1.575412759598     0.115285725506    -1.931563311216     1.007825032230

  Basis Set: AUG-CC-PVTZ
    Blend: AUG-CC-PVTZ
  Basis Set: (AUG-CC-PVTZ AUX)
    Blend: AUG-CC-PVTZ-JKFIT
	 Reference Energy          =    -530.9602938833520511 [Eh]
	 Singles Energy            =      -0.0000000000000000 [Eh]
	 Same-Spin Energy          =      -0.4698498428035089 [Eh]
	 Opposite-Spin Energy      =      -1.4858734563325566 [Eh]
	 Correlation Energy        =      -1.9557232991360656 [Eh]
	 Total Energy              =    -532.9160171824880763 [Eh]

	 ================> DF-SCS-MP2 Energies <==================
	-----------------------------------------------------------
	 SCS Same-Spin Scale       =       0.3333333333333333 [-]
	 SCS Opposite-Spin Scale   =       1.2000000000000000 [-]
	 SCS Same-Spin Energy      =      -0.1566166142678363 [Eh]
	 SCS Opposite-Spin Energy  =      -1.7830481475990678 [Eh]
	 SCS Correlation Energy    =      -1.9396647618669041 [Eh]
	 SCS Total Energy          =    -532.8999586452189305 [Eh]
	-----------------------------------------------------------

  Dipole Moment: [D]
     X:     0.0251      Y:     0.0510      Z:    -5.2563     Total:     5.2566

*** Psi4 exiting successfully. Buy a developer a beer!
