                               Psi4 1.4a3.dev225

  ==> Input File <==

--------------------------------------------------------------------------
#psi4
#
memory 32 gb

molecule  {
0 1
  F       -1.6012940    -0.1166020     1.0531380
  F        0.9015100    -1.3283660     1.0533570
  F        0.6995270     1.4450080     1.0533050
  C       -1.4600740    -0.1063430    -0.3396260
  C        0.7700535    -1.1993983    -0.1895453
  C        0.6379870     1.3176500    -0.3394740
  C       -0.6367970    -1.3153920    -0.7539820
  C       -0.8206640     1.2092170    -0.7540300
  C        1.4576450     0.1061460    -0.7538300
  H       -2.4709910    -0.1799750    -0.7606130
  H        1.3914430    -2.0500220    -0.7602750
  H        1.0797340     2.2299680    -0.7603550
  H       -0.6879950    -1.4213320    -1.8456750
  H       -1.0732430    -2.2167570    -0.3126710
  H       -1.3831040     2.0378510    -0.3127500
  H       -0.8866680     1.3065820    -1.8457260
  H        2.4564240     0.1788940    -0.3124150
  H        1.5751120     0.1146800    -1.8455110
units angstrom
no_reorient  #important for SAPT in psi4, default
symmetry c1  #important for SAPT in psi4, default
}

set PROPERTIES_ORIGIN ["COM"]
properties('MP2/aug-cc-pvtz', properties = ['dipole'])
--------------------------------------------------------------------------

    Molecular point group: c1
  Charge       = 0
  Multiplicity = 1
  Basis Set: AUG-CC-PVTZ
    Blend: AUG-CC-PVTZ
  Basis Set: (AUG-CC-PVTZ AUX)
    Blend: AUG-CC-PVTZ-JKFIT

    Orbital Energies [Eh]
    ---------------------

    Doubly Occupied:

       1A    -26.302102     2A    -26.267742     3A    -26.266202
       4A    -11.326923     5A    -11.317469     6A    -11.315835
       7A    -11.242288     8A    -11.240765     9A    -11.239782
      10A     -1.663117    11A     -1.580738    12A     -1.574439
      13A     -1.130881    14A     -1.031172    15A     -1.021475
      16A     -0.875600    17A     -0.868071    18A     -0.798721
      19A     -0.758953    20A     -0.723291    21A     -0.720569
      22A     -0.685562    23A     -0.680675    24A     -0.660609
      25A     -0.659037    26A     -0.651774    27A     -0.645480
      28A     -0.577557    29A     -0.567153    30A     -0.549575
      31A     -0.546798    32A     -0.524454    33A     -0.512866
      34A     -0.509618    35A     -0.441159    36A     -0.424985

  @DF-RHF Final Energy:  -530.94199157982246

   => Energetics <=

    Nuclear Repulsion Energy =            527.8692520720018138
    One-Electron Energy =               -1781.8156172776332369
    Two-Electron Energy =                 723.0043736258090803
    Total Energy =                       -530.9419915798224565
  Basis Set: (AUG-CC-PVTZ AUX)
    Blend: AUG-CC-PVTZ-RI
    Molecular point group: c1

    Geometry (in Angstrom), charge = 0, multiplicity = 1:

       Center              X                  Y                   Z               Mass
    ------------   -----------------  -----------------  -----------------  -----------------
         F           -1.596757324243    -0.117639220216     0.954338615028    18.998403162730
         F            0.906046675757    -1.329403220216     0.954557615028    18.998403162730
         F            0.704063675757     1.443970779784     0.954505615028    18.998403162730
         C           -1.455537324243    -0.107380220216    -0.438425384972    12.000000000000
         C            0.774590175757    -1.200435520216    -0.288344684972    12.000000000000
         C            0.642523675757     1.316612779784    -0.438273384972    12.000000000000
         C           -0.632260324243    -1.316429220216    -0.852781384972    12.000000000000
         C           -0.816127324243     1.208179779784    -0.852829384972    12.000000000000
         C            1.462181675757     0.105108779784    -0.852629384972    12.000000000000
         H           -2.466454324243    -0.181012220216    -0.859412384972     1.007825032230
         H            1.395979675757    -2.051059220216    -0.859074384972     1.007825032230
         H            1.084270675757     2.228930779784    -0.859154384972     1.007825032230
         H           -0.683458324243    -1.422369220216    -1.944474384972     1.007825032230
         H           -1.068706324243    -2.217794220216    -0.411470384972     1.007825032230
         H           -1.378567324243     2.036813779784    -0.411549384972     1.007825032230
         H           -0.882131324243     1.305544779784    -1.944525384972     1.007825032230
         H            2.460960675757     0.177856779784    -0.411214384972     1.007825032230
         H            1.579648675757     0.113642779784    -1.944310384972     1.007825032230

  Basis Set: AUG-CC-PVTZ
    Blend: AUG-CC-PVTZ
  Basis Set: (AUG-CC-PVTZ AUX)
    Blend: AUG-CC-PVTZ-JKFIT
	 Reference Energy          =    -530.9419915798224565 [Eh]
	 Singles Energy            =      -0.0000000000000000 [Eh]
	 Same-Spin Energy          =      -0.4700844841994742 [Eh]
	 Opposite-Spin Energy      =      -1.4850285347946512 [Eh]
	 Correlation Energy        =      -1.9551130189941255 [Eh]
	 Total Energy              =    -532.8971045988165542 [Eh]

	 ================> DF-SCS-MP2 Energies <==================
	-----------------------------------------------------------
	 SCS Same-Spin Scale       =       0.3333333333333333 [-]
	 SCS Opposite-Spin Scale   =       1.2000000000000000 [-]
	 SCS Same-Spin Energy      =      -0.1566948280664914 [Eh]
	 SCS Opposite-Spin Energy  =      -1.7820342417535815 [Eh]
	 SCS Correlation Energy    =      -1.9387290698200730 [Eh]
	 SCS Total Energy          =    -532.8807206496425124 [Eh]
	-----------------------------------------------------------

  Dipole Moment: [D]
     X:    -0.0671      Y:    -0.0577      Z:    -4.5898     Total:     4.5906

*** Psi4 exiting successfully. Buy a developer a beer!
