                               Psi4 1.4a3.dev225

  ==> Input File <==

--------------------------------------------------------------------------
#psi4
#
memory 32 gb

molecule  {
0 1
  F       -1.6012940    -0.1166020     1.0531380
  F        0.9015100    -1.3283660     1.0533570
  F        0.6995270     1.4450080     1.0533050
  C       -1.4600740    -0.1063430    -0.3396260
  C        0.8221700    -1.2113200    -0.3394270
  C        0.6379870     1.3176500    -0.3394740
  C       -0.6367970    -1.3153920    -0.7539820
  C       -0.8206640     1.2092170    -0.7540300
  C        1.4576450     0.1061460    -0.7538300
  H       -2.4709910    -0.1799750    -0.7606130
  H        1.3914430    -2.0500220    -0.7602750
  H        1.0797340     2.2299680    -0.7603550
  H       -0.6879950    -1.4213320    -1.8456750
  H       -1.0732430    -2.2167570    -0.3126710
  H       -1.3831040     2.0378510    -0.3127500
  H       -0.8878702     1.3083555    -1.8656109
  H        2.4564240     0.1788940    -0.3124150
  H        1.5751120     0.1146800    -1.8455110
units angstrom
no_reorient  #important for SAPT in psi4, default
symmetry c1  #important for SAPT in psi4, default
}

set PROPERTIES_ORIGIN ["COM"]
properties('MP2/aug-cc-pvtz', properties = ['dipole'])
--------------------------------------------------------------------------

    Molecular point group: c1
  Charge       = 0
  Multiplicity = 1
  Basis Set: AUG-CC-PVTZ
    Blend: AUG-CC-PVTZ
  Basis Set: (AUG-CC-PVTZ AUX)
    Blend: AUG-CC-PVTZ-JKFIT

    Orbital Energies [Eh]
    ---------------------

    Doubly Occupied:

       1A    -26.265451     2A    -26.265449     3A    -26.265256
       4A    -11.320297     5A    -11.320290     6A    -11.320125
       7A    -11.246461     8A    -11.244028     9A    -11.244014
      10A     -1.582185    11A     -1.572792    12A     -1.572676
      13A     -1.136465    14A     -1.032732    15A     -1.031958
      16A     -0.871274    17A     -0.870626    18A     -0.779224
      19A     -0.745351    20A     -0.696994    21A     -0.696221
      22A     -0.671741    23A     -0.659825    24A     -0.656788
      25A     -0.656598    26A     -0.641063    27A     -0.640752
      28A     -0.584179    29A     -0.557610    30A     -0.548144
      31A     -0.546523    32A     -0.524312    33A     -0.523771
      34A     -0.520962    35A     -0.454543    36A     -0.454495

  @DF-RHF Final Energy:  -530.96493597678534

   => Energetics <=

    Nuclear Repulsion Energy =            525.4310126232574021
    One-Electron Energy =               -1777.3495477276512702
    Two-Electron Energy =                 720.9535991276085269
    Total Energy =                       -530.9649359767853412
  Basis Set: (AUG-CC-PVTZ AUX)
    Blend: AUG-CC-PVTZ-RI
    Molecular point group: c1

    Geometry (in Angstrom), charge = 0, multiplicity = 1:

       Center              X                  Y                   Z               Mass
    ------------   -----------------  -----------------  -----------------  -----------------
         F           -1.601278263822    -0.116615989326     0.967510762485    18.998403162730
         F            0.901525736178    -1.328379989326     0.967729762485    18.998403162730
         F            0.699542736178     1.444994010674     0.967677762485    18.998403162730
         C           -1.460058263822    -0.106356989326    -0.425253237515    12.000000000000
         C            0.822185736178    -1.211333989326    -0.425054237515    12.000000000000
         C            0.638002736178     1.317636010674    -0.425101237515    12.000000000000
         C           -0.636781263822    -1.315405989326    -0.839609237515    12.000000000000
         C           -0.820648263822     1.209203010674    -0.839657237515    12.000000000000
         C            1.457660736178     0.106132010674    -0.839457237515    12.000000000000
         H           -2.470975263822    -0.179988989326    -0.846240237515     1.007825032230
         H            1.391458736178    -2.050035989326    -0.845902237515     1.007825032230
         H            1.079749736178     2.229954010674    -0.845982237515     1.007825032230
         H           -0.687979263822    -1.421345989326    -1.931302237515     1.007825032230
         H           -1.073227263822    -2.216770989326    -0.398298237515     1.007825032230
         H           -1.383088263822     2.037837010674    -0.398377237515     1.007825032230
         H           -0.887854463822     1.308341510674    -1.951238137515     1.007825032230
         H            2.456439736178     0.178880010674    -0.398042237515     1.007825032230
         H            1.575127736178     0.114666010674    -1.931138237515     1.007825032230

  Basis Set: AUG-CC-PVTZ
    Blend: AUG-CC-PVTZ
  Basis Set: (AUG-CC-PVTZ AUX)
    Blend: AUG-CC-PVTZ-JKFIT
	 Reference Energy          =    -530.9649359767853412 [Eh]
	 Singles Energy            =      -0.0000000000000000 [Eh]
	 Same-Spin Energy          =      -0.4700056682510060 [Eh]
	 Opposite-Spin Energy      =      -1.4867582735239442 [Eh]
	 Correlation Energy        =      -1.9567639417749503 [Eh]
	 Total Energy              =    -532.9216999185603072 [Eh]

	 ================> DF-SCS-MP2 Energies <==================
	-----------------------------------------------------------
	 SCS Same-Spin Scale       =       0.3333333333333333 [-]
	 SCS Opposite-Spin Scale   =       1.2000000000000000 [-]
	 SCS Same-Spin Energy      =      -0.1566685560836687 [Eh]
	 SCS Opposite-Spin Energy  =      -1.7841099282287329 [Eh]
	 SCS Correlation Energy    =      -1.9407784843124016 [Eh]
	 SCS Total Energy          =    -532.9057144610977730 [Eh]
	-----------------------------------------------------------

  Dipole Moment: [D]
     X:     0.0012      Y:    -0.0012      Z:    -5.2148     Total:     5.2148

*** Psi4 exiting successfully. Buy a developer a beer!
