                               Psi4 1.4a3.dev225

  ==> Input File <==

--------------------------------------------------------------------------
#psi4
#
memory 32 gb

molecule  {
0 1
  F       -1.6012940    -0.1166020     1.0531380
  F        0.9015100    -1.3283660     1.0533570
  F        0.6995270     1.4450080     1.0533050
  C       -1.4398989    -0.1048774    -0.5386004
  C        0.8221700    -1.2113200    -0.3394270
  C        0.6379870     1.3176500    -0.3394740
  C       -0.6367970    -1.3153920    -0.7539820
  C       -0.8206640     1.2092170    -0.7540300
  C        1.4576450     0.1061460    -0.7538300
  H       -2.4709910    -0.1799750    -0.7606130
  H        1.3914430    -2.0500220    -0.7602750
  H        1.0797340     2.2299680    -0.7603550
  H       -0.6879950    -1.4213320    -1.8456750
  H       -1.0732430    -2.2167570    -0.3126710
  H       -1.3831040     2.0378510    -0.3127500
  H       -0.8866680     1.3065820    -1.8457260
  H        2.4564240     0.1788940    -0.3124150
  H        1.5751120     0.1146800    -1.8455110
units angstrom
no_reorient  #important for SAPT in psi4, default
symmetry c1  #important for SAPT in psi4, default
}

set PROPERTIES_ORIGIN ["COM"]
properties('MP2/aug-cc-pvtz', properties = ['dipole'])
--------------------------------------------------------------------------

    Molecular point group: c1
  Charge       = 0
  Multiplicity = 1
  Basis Set: AUG-CC-PVTZ
    Blend: AUG-CC-PVTZ
  Basis Set: (AUG-CC-PVTZ AUX)
    Blend: AUG-CC-PVTZ-JKFIT

    Orbital Energies [Eh]
    ---------------------

    Doubly Occupied:

       1A    -26.264976     2A    -26.264974     3A    -26.212415
       4A    -11.327775     5A    -11.325353     6A    -11.325346
       7A    -11.252103     8A    -11.252086     9A    -11.247845
      10A     -1.578521    11A     -1.571988    12A     -1.487978
      13A     -1.153037    14A     -1.047102    15A     -1.043386
      16A     -0.881746    17A     -0.875709    18A     -0.773185
      19A     -0.744531    20A     -0.693936    21A     -0.679747
      22A     -0.670900    23A     -0.669396    24A     -0.653676
      25A     -0.640082    26A     -0.619438    27A     -0.608551
      28A     -0.573917    29A     -0.562869    30A     -0.552018
      31A     -0.535056    32A     -0.528010    33A     -0.521072
      34A     -0.511333    35A     -0.469326    36A     -0.467469

  @DF-RHF Final Energy:  -530.93316125779347

   => Energetics <=

    Nuclear Repulsion Energy =            523.8646705992008492
    One-Electron Energy =               -1774.4219568852345219
    Two-Electron Energy =                 719.6241250282400870
    Total Energy =                       -530.9331612577934720
  Basis Set: (AUG-CC-PVTZ AUX)
    Blend: AUG-CC-PVTZ-RI
    Molecular point group: c1

    Geometry (in Angstrom), charge = 0, multiplicity = 1:

       Center              X                  Y                   Z               Mass
    ------------   -----------------  -----------------  -----------------  -----------------
         F           -1.603040561932    -0.116730426365     0.984659507021    18.998403162730
         F            0.899763438068    -1.328494426365     0.984878507021    18.998403162730
         F            0.697780438068     1.444879573635     0.984826507021    18.998403162730
         C           -1.441645461932    -0.105005826365    -0.607078892979    12.000000000000
         C            0.820423438068    -1.211448426365    -0.407905492979    12.000000000000
         C            0.636240438068     1.317521573635    -0.407952492979    12.000000000000
         C           -0.638543561932    -1.315520426365    -0.822460492979    12.000000000000
         C           -0.822410561932     1.209088573635    -0.822508492979    12.000000000000
         C            1.455898438068     0.106017573635    -0.822308492979    12.000000000000
         H           -2.472737561932    -0.180103426365    -0.829091492979     1.007825032230
         H            1.389696438068    -2.050150426365    -0.828753492979     1.007825032230
         H            1.077987438068     2.229839573635    -0.828833492979     1.007825032230
         H           -0.689741561932    -1.421460426365    -1.914153492979     1.007825032230
         H           -1.074989561932    -2.216885426365    -0.381149492979     1.007825032230
         H           -1.384850561932     2.037722573635    -0.381228492979     1.007825032230
         H           -0.888414561932     1.306453573635    -1.914204492979     1.007825032230
         H            2.454677438068     0.178765573635    -0.380893492979     1.007825032230
         H            1.573365438068     0.114551573635    -1.913989492979     1.007825032230

  Basis Set: AUG-CC-PVTZ
    Blend: AUG-CC-PVTZ
  Basis Set: (AUG-CC-PVTZ AUX)
    Blend: AUG-CC-PVTZ-JKFIT
	 Reference Energy          =    -530.9331612577934720 [Eh]
	 Singles Energy            =      -0.0000000000000000 [Eh]
	 Same-Spin Energy          =      -0.4720013378355563 [Eh]
	 Opposite-Spin Energy      =      -1.4917955216870273 [Eh]
	 Correlation Energy        =      -1.9637968595225836 [Eh]
	 Total Energy              =    -532.8969581173161032 [Eh]

	 ================> DF-SCS-MP2 Energies <==================
	-----------------------------------------------------------
	 SCS Same-Spin Scale       =       0.3333333333333333 [-]
	 SCS Opposite-Spin Scale   =       1.2000000000000000 [-]
	 SCS Same-Spin Energy      =      -0.1573337792785188 [Eh]
	 SCS Opposite-Spin Energy  =      -1.7901546260244328 [Eh]
	 SCS Correlation Energy    =      -1.9474884053029515 [Eh]
	 SCS Total Energy          =    -532.8806496630963920 [Eh]
	-----------------------------------------------------------

  Dipole Moment: [D]
     X:     0.2413      Y:     0.0175      Z:    -5.9764     Total:     5.9813

*** Psi4 exiting successfully. Buy a developer a beer!
