                               Psi4 1.4a3.dev225

  ==> Input File <==

--------------------------------------------------------------------------
#psi4
#
memory 32 gb

molecule  {
0 1
  F       -1.6012940    -0.1166020     1.0531380
  F        0.9015100    -1.3283660     1.0533570
  F        0.6995270     1.4450080     1.0533050
  C       -1.4600740    -0.1063430    -0.3396260
  C        0.8221700    -1.2113200    -0.3394270
  C        0.7662003     1.3663406    -0.2587686
  C       -0.6367970    -1.3153920    -0.7539820
  C       -0.8206640     1.2092170    -0.7540300
  C        1.4576450     0.1061460    -0.7538300
  H       -2.4709910    -0.1799750    -0.7606130
  H        1.3914430    -2.0500220    -0.7602750
  H        1.0797340     2.2299680    -0.7603550
  H       -0.6879950    -1.4213320    -1.8456750
  H       -1.0732430    -2.2167570    -0.3126710
  H       -1.3831040     2.0378510    -0.3127500
  H       -0.8866680     1.3065820    -1.8457260
  H        2.4564240     0.1788940    -0.3124150
  H        1.5751120     0.1146800    -1.8455110
units angstrom
no_reorient  #important for SAPT in psi4, default
symmetry c1  #important for SAPT in psi4, default
}

set PROPERTIES_ORIGIN ["COM"]
properties('MP2/aug-cc-pvtz', properties = ['dipole'])
--------------------------------------------------------------------------

    Molecular point group: c1
  Charge       = 0
  Multiplicity = 1
  Basis Set: AUG-CC-PVTZ
    Blend: AUG-CC-PVTZ
  Basis Set: (AUG-CC-PVTZ AUX)
    Blend: AUG-CC-PVTZ-JKFIT

    Orbital Energies [Eh]
    ---------------------

    Doubly Occupied:

       1A    -26.288173     2A    -26.265977     3A    -26.262400
       4A    -11.322160     5A    -11.320416     6A    -11.316065
       7A    -11.242627     8A    -11.241283     9A    -11.238890
      10A     -1.624610    11A     -1.578024    12A     -1.571143
      13A     -1.124749    14A     -1.032729    15A     -1.014872
      16A     -0.879956    17A     -0.862678    18A     -0.788188
      19A     -0.752629    20A     -0.715468    21A     -0.704323
      22A     -0.680769    23A     -0.672355    24A     -0.657958
      25A     -0.655387    26A     -0.649755    27A     -0.642528
      28A     -0.588515    29A     -0.561603    30A     -0.547720
      31A     -0.542916    32A     -0.522909    33A     -0.518161
      34A     -0.501936    35A     -0.460476    36A     -0.419935

  @DF-RHF Final Energy:  -530.94633616515102

   => Energetics <=

    Nuclear Repulsion Energy =            524.6268007902766612
    One-Electron Energy =               -1775.6057041051553824
    Two-Electron Energy =                 720.0325671497275835
    Total Energy =                       -530.9463361651510240
  Basis Set: (AUG-CC-PVTZ AUX)
    Blend: AUG-CC-PVTZ-RI
    Molecular point group: c1

    Geometry (in Angstrom), charge = 0, multiplicity = 1:

       Center              X                  Y                   Z               Mass
    ------------   -----------------  -----------------  -----------------  -----------------
         F           -1.612430721924    -0.120834995912     0.960351085846    18.998403162730
         F            0.890373278076    -1.332598995912     0.960570085846    18.998403162730
         F            0.688390278076     1.440775004088     0.960518085846    18.998403162730
         C           -1.471210721924    -0.110575995912    -0.432412914154    12.000000000000
         C            0.811033278076    -1.215552995912    -0.432213914154    12.000000000000
         C            0.755063578076     1.362107604088    -0.351555514154    12.000000000000
         C           -0.647933721924    -1.319624995912    -0.846768914154    12.000000000000
         C           -0.831800721924     1.204984004088    -0.846816914154    12.000000000000
         C            1.446508278076     0.101913004088    -0.846616914154    12.000000000000
         H           -2.482127721924    -0.184207995912    -0.853399914154     1.007825032230
         H            1.380306278076    -2.054254995912    -0.853061914154     1.007825032230
         H            1.068597278076     2.225735004088    -0.853141914154     1.007825032230
         H           -0.699131721924    -1.425564995912    -1.938461914154     1.007825032230
         H           -1.084379721924    -2.220989995912    -0.405457914154     1.007825032230
         H           -1.394240721924     2.033618004088    -0.405536914154     1.007825032230
         H           -0.897804721924     1.302349004088    -1.938512914154     1.007825032230
         H            2.445287278076     0.174661004088    -0.405201914154     1.007825032230
         H            1.563975278076     0.110447004088    -1.938297914154     1.007825032230

  Basis Set: AUG-CC-PVTZ
    Blend: AUG-CC-PVTZ
  Basis Set: (AUG-CC-PVTZ AUX)
    Blend: AUG-CC-PVTZ-JKFIT
	 Reference Energy          =    -530.9463361651510240 [Eh]
	 Singles Energy            =      -0.0000000000000000 [Eh]
	 Same-Spin Energy          =      -0.4696985816907386 [Eh]
	 Opposite-Spin Energy      =      -1.4856859404145402 [Eh]
	 Correlation Energy        =      -1.9553845221052788 [Eh]
	 Total Energy              =    -532.9017206872563293 [Eh]

	 ================> DF-SCS-MP2 Energies <==================
	-----------------------------------------------------------
	 SCS Same-Spin Scale       =       0.3333333333333333 [-]
	 SCS Opposite-Spin Scale   =       1.2000000000000000 [-]
	 SCS Same-Spin Energy      =      -0.1565661938969128 [Eh]
	 SCS Opposite-Spin Energy  =      -1.7828231284974481 [Eh]
	 SCS Correlation Energy    =      -1.9393893223943610 [Eh]
	 SCS Total Energy          =    -532.8857254875454146 [Eh]
	-----------------------------------------------------------

  Dipole Moment: [D]
     X:     0.3155      Y:     0.1545      Z:    -4.8380     Total:     4.8507

*** Psi4 exiting successfully. Buy a developer a beer!
