                               Psi4 1.4a3.dev225

  ==> Input File <==

--------------------------------------------------------------------------
#psi4
#
memory 32 gb

molecule  {
0 1
  F       -1.6012940    -0.1166020     1.0531380
  F        0.9015100    -1.3283660     1.0533570
  F        0.6995270     1.4450080     1.0533050
  C       -1.4600740    -0.1063430    -0.3396260
  C        0.8480620    -1.2199099    -0.4419750
  C        0.6379870     1.3176500    -0.3394740
  C       -0.6367970    -1.3153920    -0.7539820
  C       -0.8206640     1.2092170    -0.7540300
  C        1.4576450     0.1061460    -0.7538300
  H       -2.4709910    -0.1799750    -0.7606130
  H        1.3914430    -2.0500220    -0.7602750
  H        1.0797340     2.2299680    -0.7603550
  H       -0.6879950    -1.4213320    -1.8456750
  H       -1.0732430    -2.2167570    -0.3126710
  H       -1.3831040     2.0378510    -0.3127500
  H       -0.8866680     1.3065820    -1.8457260
  H        2.4564240     0.1788940    -0.3124150
  H        1.5751120     0.1146800    -1.8455110
units angstrom
no_reorient  #important for SAPT in psi4, default
symmetry c1  #important for SAPT in psi4, default
}

set PROPERTIES_ORIGIN ["COM"]
properties('MP2/aug-cc-pvtz', properties = ['dipole'])
--------------------------------------------------------------------------

    Molecular point group: c1
  Charge       = 0
  Multiplicity = 1
  Basis Set: AUG-CC-PVTZ
    Blend: AUG-CC-PVTZ
  Basis Set: (AUG-CC-PVTZ AUX)
    Blend: AUG-CC-PVTZ-JKFIT

    Orbital Energies [Eh]
    ---------------------

    Doubly Occupied:

       1A    -26.264962     2A    -26.264377     3A    -26.240008
       4A    -11.323268     5A    -11.322503     6A    -11.321516
       7A    -11.248155     8A    -11.247771     9A    -11.245554
      10A     -1.578575    11A     -1.571857    12A     -1.528346
      13A     -1.141666    14A     -1.040246    15A     -1.035005
      16A     -0.876194    17A     -0.874050    18A     -0.776605
      19A     -0.743593    20A     -0.693669    21A     -0.684078
      22A     -0.668086    23A     -0.662023    24A     -0.653485
      25A     -0.649921    26A     -0.627054    27A     -0.626058
      28A     -0.582904    29A     -0.552678    30A     -0.550552
      31A     -0.546148    32A     -0.526126    33A     -0.524767
      34A     -0.521065    35A     -0.466137    36A     -0.460134

  @DF-RHF Final Energy:  -530.95348676624860

   => Energetics <=

    Nuclear Repulsion Energy =            524.0978948438607858
    One-Electron Energy =               -1774.8244892358341076
    Two-Electron Energy =                 719.7731076257247196
    Total Energy =                       -530.9534867662486022
  Basis Set: (AUG-CC-PVTZ AUX)
    Blend: AUG-CC-PVTZ-RI
    Molecular point group: c1

    Geometry (in Angstrom), charge = 0, multiplicity = 1:

       Center              X                  Y                   Z               Mass
    ------------   -----------------  -----------------  -----------------  -----------------
         F           -1.603537447345    -0.115856450736     0.976278588758    18.998403162730
         F            0.899266552655    -1.327620450736     0.976497588758    18.998403162730
         F            0.697283552655     1.445753549264     0.976445588758    18.998403162730
         C           -1.462317447345    -0.105597450736    -0.416485411242    12.000000000000
         C            0.845818552655    -1.219164350736    -0.518834411242    12.000000000000
         C            0.635743552655     1.318395549264    -0.416333411242    12.000000000000
         C           -0.639040447345    -1.314646450736    -0.830841411242    12.000000000000
         C           -0.822907447345     1.209962549264    -0.830889411242    12.000000000000
         C            1.455401552655     0.106891549264    -0.830689411242    12.000000000000
         H           -2.473234447345    -0.179229450736    -0.837472411242     1.007825032230
         H            1.389199552655    -2.049276450736    -0.837134411242     1.007825032230
         H            1.077490552655     2.230713549264    -0.837214411242     1.007825032230
         H           -0.690238447345    -1.420586450736    -1.922534411242     1.007825032230
         H           -1.075486447345    -2.216011450736    -0.389530411242     1.007825032230
         H           -1.385347447345     2.038596549264    -0.389609411242     1.007825032230
         H           -0.888911447345     1.307327549264    -1.922585411242     1.007825032230
         H            2.454180552655     0.179639549264    -0.389274411242     1.007825032230
         H            1.572868552655     0.115425549264    -1.922370411242     1.007825032230

  Basis Set: AUG-CC-PVTZ
    Blend: AUG-CC-PVTZ
  Basis Set: (AUG-CC-PVTZ AUX)
    Blend: AUG-CC-PVTZ-JKFIT
	 Reference Energy          =    -530.9534867662486022 [Eh]
	 Singles Energy            =      -0.0000000000000000 [Eh]
	 Same-Spin Energy          =      -0.4705808014258847 [Eh]
	 Opposite-Spin Energy      =      -1.4889538912203839 [Eh]
	 Correlation Energy        =      -1.9595346926462685 [Eh]
	 Total Energy              =    -532.9130214588948320 [Eh]

	 ================> DF-SCS-MP2 Energies <==================
	-----------------------------------------------------------
	 SCS Same-Spin Scale       =       0.3333333333333333 [-]
	 SCS Opposite-Spin Scale   =       1.2000000000000000 [-]
	 SCS Same-Spin Energy      =      -0.1568602671419616 [Eh]
	 SCS Opposite-Spin Energy  =      -1.7867446694644606 [Eh]
	 SCS Correlation Energy    =      -1.9436049366064221 [Eh]
	 SCS Total Energy          =    -532.8970917028550502 [Eh]
	-----------------------------------------------------------

  Dipole Moment: [D]
     X:    -0.0051      Y:     0.0730      Z:    -5.6017     Total:     5.6021

*** Psi4 exiting successfully. Buy a developer a beer!
