                               Psi4 1.4a3.dev225

  ==> Input File <==

--------------------------------------------------------------------------
#psi4
#
memory 32 gb

molecule  {
0 1
  F       -1.6012940    -0.1166020     1.0531380
  F        0.9015100    -1.3283660     1.0533570
  F        0.6995270     1.4450080     1.0533050
  C       -1.4651178    -0.1067094    -0.2898824
  C        0.8221700    -1.2113200    -0.3394270
  C        0.6379870     1.3176500    -0.3394740
  C       -0.6367970    -1.3153920    -0.7539820
  C       -0.8206640     1.2092170    -0.7540300
  C        1.4576450     0.1061460    -0.7538300
  H       -2.4709910    -0.1799750    -0.7606130
  H        1.3914430    -2.0500220    -0.7602750
  H        1.0797340     2.2299680    -0.7603550
  H       -0.6879950    -1.4213320    -1.8456750
  H       -1.0732430    -2.2167570    -0.3126710
  H       -1.3831040     2.0378510    -0.3127500
  H       -0.8866680     1.3065820    -1.8457260
  H        2.4564240     0.1788940    -0.3124150
  H        1.5751120     0.1146800    -1.8455110
units angstrom
no_reorient  #important for SAPT in psi4, default
symmetry c1  #important for SAPT in psi4, default
}

set PROPERTIES_ORIGIN ["COM"]
properties('MP2/aug-cc-pvtz', properties = ['dipole'])
--------------------------------------------------------------------------

    Molecular point group: c1
  Charge       = 0
  Multiplicity = 1
  Basis Set: AUG-CC-PVTZ
    Blend: AUG-CC-PVTZ
  Basis Set: (AUG-CC-PVTZ AUX)
    Blend: AUG-CC-PVTZ-JKFIT

    Orbital Energies [Eh]
    ---------------------

    Doubly Occupied:

       1A    -26.277701     2A    -26.265392     3A    -26.265390
       4A    -11.320698     5A    -11.318874     6A    -11.318867
       7A    -11.243114     8A    -11.242399     9A    -11.242385
      10A     -1.603630    11A     -1.578338    12A     -1.572815
      13A     -1.132955    14A     -1.030274    15A     -1.028709
      16A     -0.871576    17A     -0.869005    18A     -0.784514
      19A     -0.747735    20A     -0.705518    21A     -0.700988
      22A     -0.676670    23A     -0.664534    24A     -0.658430
      25A     -0.657782    26A     -0.646929    27A     -0.643635
      28A     -0.583273    29A     -0.561299    30A     -0.547779
      31A     -0.547757    32A     -0.522895    33A     -0.521166
      34A     -0.516221    35A     -0.449521    36A     -0.448213

  @DF-RHF Final Energy:  -530.96461920740239

   => Energetics <=

    Nuclear Repulsion Energy =            525.9820025053613790
    One-Electron Energy =               -1778.3592793058346615
    Two-Electron Energy =                 721.4126575930708896
    Total Energy =                       -530.9646192074023929
  Basis Set: (AUG-CC-PVTZ AUX)
    Blend: AUG-CC-PVTZ-RI
    Molecular point group: c1

    Geometry (in Angstrom), charge = 0, multiplicity = 1:

       Center              X                  Y                   Z               Mass
    ------------   -----------------  -----------------  -----------------  -----------------
         F           -1.600848656607    -0.116571197748     0.963042136378    18.998403162730
         F            0.901955343393    -1.328335197748     0.963261136378    18.998403162730
         F            0.699972343393     1.445038802252     0.963209136378    18.998403162730
         C           -1.464672456607    -0.106678597748    -0.379978263622    12.000000000000
         C            0.822615343393    -1.211289197748    -0.429522863622    12.000000000000
         C            0.638432343393     1.317680802252    -0.429569863622    12.000000000000
         C           -0.636351656607    -1.315361197748    -0.844077863622    12.000000000000
         C           -0.820218656607     1.209247802252    -0.844125863622    12.000000000000
         C            1.458090343393     0.106176802252    -0.843925863622    12.000000000000
         H           -2.470545656607    -0.179944197748    -0.850708863622     1.007825032230
         H            1.391888343393    -2.049991197748    -0.850370863622     1.007825032230
         H            1.080179343393     2.229998802252    -0.850450863622     1.007825032230
         H           -0.687549656607    -1.421301197748    -1.935770863622     1.007825032230
         H           -1.072797656607    -2.216726197748    -0.402766863622     1.007825032230
         H           -1.382658656607     2.037881802252    -0.402845863622     1.007825032230
         H           -0.886222656607     1.306612802252    -1.935821863622     1.007825032230
         H            2.456869343393     0.178924802252    -0.402510863622     1.007825032230
         H            1.575557343393     0.114710802252    -1.935606863622     1.007825032230

  Basis Set: AUG-CC-PVTZ
    Blend: AUG-CC-PVTZ
  Basis Set: (AUG-CC-PVTZ AUX)
    Blend: AUG-CC-PVTZ-JKFIT
	 Reference Energy          =    -530.9646192074023929 [Eh]
	 Singles Energy            =      -0.0000000000000000 [Eh]
	 Same-Spin Energy          =      -0.4697500825614645 [Eh]
	 Opposite-Spin Energy      =      -1.4855926857944379 [Eh]
	 Correlation Energy        =      -1.9553427683559024 [Eh]
	 Total Energy              =    -532.9199619757582695 [Eh]

	 ================> DF-SCS-MP2 Energies <==================
	-----------------------------------------------------------
	 SCS Same-Spin Scale       =       0.3333333333333333 [-]
	 SCS Opposite-Spin Scale   =       1.2000000000000000 [-]
	 SCS Same-Spin Energy      =      -0.1565833608538215 [Eh]
	 SCS Opposite-Spin Energy  =      -1.7827112229533255 [Eh]
	 SCS Correlation Energy    =      -1.9392945838071469 [Eh]
	 SCS Total Energy          =    -532.9039137912095612 [Eh]
	-----------------------------------------------------------

  Dipole Moment: [D]
     X:    -0.0529      Y:    -0.0039      Z:    -5.0197     Total:     5.0199

*** Psi4 exiting successfully. Buy a developer a beer!
