                               Psi4 1.4a3.dev225

  ==> Input File <==

--------------------------------------------------------------------------
#psi4
#
memory 32 gb

molecule  {
0 1
  F       -1.6012940    -0.1166020     1.0531380
  F        0.9015100    -1.3283660     1.0533570
  F        0.6995270     1.4450080     1.0533050
  C       -1.4600740    -0.1063430    -0.3396260
  C        0.8221700    -1.2113200    -0.3394270
  C        0.6379870     1.3176500    -0.3394740
  C       -0.6367970    -1.3153920    -0.7539820
  C       -0.8206640     1.2092170    -0.7540300
  C        1.4576450     0.1061460    -0.7538300
  H       -2.4709910    -0.1799750    -0.7606130
  H        1.3914430    -2.0500220    -0.7602750
  H        1.0797340     2.2299680    -0.7603550
  H       -0.6879950    -1.4213320    -1.8456750
  H       -1.0732430    -2.2167570    -0.3126710
  H       -1.4858895     2.1892833    -0.2321064
  H       -0.8866680     1.3065820    -1.8457260
  H        2.4564240     0.1788940    -0.3124150
  H        1.5751120     0.1146800    -1.8455110
units angstrom
no_reorient  #important for SAPT in psi4, default
symmetry c1  #important for SAPT in psi4, default
}

set PROPERTIES_ORIGIN ["COM"]
properties('MP2/aug-cc-pvtz', properties = ['dipole'])
--------------------------------------------------------------------------

    Molecular point group: c1
  Charge       = 0
  Multiplicity = 1
  Basis Set: AUG-CC-PVTZ
    Blend: AUG-CC-PVTZ
  Basis Set: (AUG-CC-PVTZ AUX)
    Blend: AUG-CC-PVTZ-JKFIT

    Orbital Energies [Eh]
    ---------------------

    Doubly Occupied:

       1A    -26.266220     2A    -26.265235     3A    -26.265233
       4A    -11.322059     5A    -11.322052     6A    -11.321411
       7A    -11.265190     8A    -11.245862     9A    -11.245848
      10A     -1.582365    11A     -1.573187    12A     -1.572559
      13A     -1.136970    14A     -1.034328    15A     -1.027482
      16A     -0.872252    17A     -0.865380    18A     -0.779571
      19A     -0.745383    20A     -0.697778    21A     -0.697519
      22A     -0.672163    23A     -0.657685    24A     -0.657283
      25A     -0.649072    26A     -0.641776    27A     -0.636279
      28A     -0.584754    29A     -0.558950    30A     -0.549417
      31A     -0.532490    32A     -0.525397    33A     -0.521928
      34A     -0.518321    35A     -0.456109    36A     -0.448070

  @DF-RHF Final Energy:  -530.94504550457361

   => Energetics <=

    Nuclear Repulsion Energy =            524.5448914438520660
    One-Electron Energy =               -1775.5527196603691209
    Two-Electron Energy =                 720.0627827119434414
    Total Energy =                       -530.9450455045736135
  Basis Set: (AUG-CC-PVTZ AUX)
    Blend: AUG-CC-PVTZ-RI
    Molecular point group: c1

    Geometry (in Angstrom), charge = 0, multiplicity = 1:

       Center              X                  Y                   Z               Mass
    ------------   -----------------  -----------------  -----------------  -----------------
         F           -1.600536745538    -0.117708439922     0.966776943827    18.998403162730
         F            0.902267254462    -1.329472439922     0.966995943827    18.998403162730
         F            0.700284254462     1.443901560078     0.966943943827    18.998403162730
         C           -1.459316745538    -0.107449439922    -0.425987056173    12.000000000000
         C            0.822927254462    -1.212426439922    -0.425788056173    12.000000000000
         C            0.638744254462     1.316543560078    -0.425835056173    12.000000000000
         C           -0.636039745538    -1.316498439922    -0.840343056173    12.000000000000
         C           -0.819906745538     1.208110560078    -0.840391056173    12.000000000000
         C            1.458402254462     0.105039560078    -0.840191056173    12.000000000000
         H           -2.470233745538    -0.181081439922    -0.846974056173     1.007825032230
         H            1.392200254462    -2.051128439922    -0.846636056173     1.007825032230
         H            1.080491254462     2.228861560078    -0.846716056173     1.007825032230
         H           -0.687237745538    -1.422438439922    -1.932036056173     1.007825032230
         H           -1.072485745538    -2.217863439922    -0.399032056173     1.007825032230
         H           -1.485132245538     2.188176860078    -0.318467456173     1.007825032230
         H           -0.885910745538     1.305475560078    -1.932087056173     1.007825032230
         H            2.457181254462     0.177787560078    -0.398776056173     1.007825032230
         H            1.575869254462     0.113573560078    -1.931872056173     1.007825032230

  Basis Set: AUG-CC-PVTZ
    Blend: AUG-CC-PVTZ
  Basis Set: (AUG-CC-PVTZ AUX)
    Blend: AUG-CC-PVTZ-JKFIT
	 Reference Energy          =    -530.9450455045736135 [Eh]
	 Singles Energy            =      -0.0000000000000000 [Eh]
	 Same-Spin Energy          =      -0.4702142836233968 [Eh]
	 Opposite-Spin Energy      =      -1.4884372236980643 [Eh]
	 Correlation Energy        =      -1.9586515073214610 [Eh]
	 Total Energy              =    -532.9036970118950194 [Eh]

	 ================> DF-SCS-MP2 Energies <==================
	-----------------------------------------------------------
	 SCS Same-Spin Scale       =       0.3333333333333333 [-]
	 SCS Opposite-Spin Scale   =       1.2000000000000000 [-]
	 SCS Same-Spin Energy      =      -0.1567380945411322 [Eh]
	 SCS Opposite-Spin Energy  =      -1.7861246684376770 [Eh]
	 SCS Correlation Energy    =      -1.9428627629788093 [Eh]
	 SCS Total Energy          =    -532.8879082675524614 [Eh]
	-----------------------------------------------------------

  Dipole Moment: [D]
     X:     0.0729      Y:    -0.1069      Z:    -5.2262     Total:     5.2278

*** Psi4 exiting successfully. Buy a developer a beer!
