                               Psi4 1.4a3.dev225

  ==> Input File <==

--------------------------------------------------------------------------
#psi4
#
memory 32 gb

molecule  {
0 1
  F       -1.6012940    -0.1166020     1.0531380
  F        0.9015100    -1.3283660     1.0533570
  F        0.6995270     1.4450080     1.0533050
  C       -1.4600740    -0.1063430    -0.3396260
  C        0.8221700    -1.2113200    -0.3394270
  C        0.6379870     1.3176500    -0.3394740
  C       -0.6367970    -1.3153920    -0.7539820
  C       -0.8206640     1.2092170    -0.7540300
  C        1.4576450     0.1061460    -0.7538300
  H       -2.4709910    -0.1799750    -0.7606130
  H        1.3914430    -2.0500220    -0.7602750
  H        1.0797340     2.2299680    -0.7603550
  H       -0.6879950    -1.4213320    -1.8456750
  H       -1.0732430    -2.2167570    -0.3126710
  H       -1.3831040     2.0378510    -0.3127500
  H       -0.8854658     1.3048085    -1.8258411
  H        2.4564240     0.1788940    -0.3124150
  H        1.5751120     0.1146800    -1.8455110
units angstrom
no_reorient  #important for SAPT in psi4, default
symmetry c1  #important for SAPT in psi4, default
}

set PROPERTIES_ORIGIN ["COM"]
properties('MP2/aug-cc-pvtz', properties = ['dipole'])
--------------------------------------------------------------------------

    Molecular point group: c1
  Charge       = 0
  Multiplicity = 1
  Basis Set: AUG-CC-PVTZ
    Blend: AUG-CC-PVTZ
  Basis Set: (AUG-CC-PVTZ AUX)
    Blend: AUG-CC-PVTZ-JKFIT

    Orbital Energies [Eh]
    ---------------------

    Doubly Occupied:

       1A    -26.265197     2A    -26.265011     3A    -26.265009
       4A    -11.320097     5A    -11.319940     6A    -11.319932
       7A    -11.244020     8A    -11.244006     9A    -11.241544
      10A     -1.581888    11A     -1.572494    12A     -1.572384
      13A     -1.137019    14A     -1.033471    15A     -1.032637
      16A     -0.871758    17A     -0.871064    18A     -0.780407
      19A     -0.745542    20A     -0.697586    21A     -0.696785
      22A     -0.671453    23A     -0.659611    24A     -0.656665
      25A     -0.656472    26A     -0.641192    27A     -0.640871
      28A     -0.584023    29A     -0.559392    30A     -0.549495
      31A     -0.548110    32A     -0.524574    33A     -0.524154
      34A     -0.520709    35A     -0.454322    36A     -0.454276

  @DF-RHF Final Energy:  -530.96554038658962

   => Energetics <=

    Nuclear Repulsion Energy =            525.6478790922473081
    One-Electron Energy =               -1777.7806278152588675
    Two-Electron Energy =                 721.1672083364218224
    Total Energy =                       -530.9655403865896233
  Basis Set: (AUG-CC-PVTZ AUX)
    Blend: AUG-CC-PVTZ-RI
    Molecular point group: c1

    Geometry (in Angstrom), charge = 0, multiplicity = 1:

       Center              X                  Y                   Z               Mass
    ------------   -----------------  -----------------  -----------------  -----------------
         F           -1.601295815000    -0.116590097616     0.967220458529    18.998403162730
         F            0.901508185000    -1.328354097616     0.967439458529    18.998403162730
         F            0.699525185000     1.445019902384     0.967387458529    18.998403162730
         C           -1.460075815000    -0.106331097616    -0.425543541471    12.000000000000
         C            0.822168185000    -1.211308097616    -0.425344541471    12.000000000000
         C            0.637985185000     1.317661902384    -0.425391541471    12.000000000000
         C           -0.636798815000    -1.315380097616    -0.839899541471    12.000000000000
         C           -0.820665815000     1.209228902384    -0.839947541471    12.000000000000
         C            1.457643185000     0.106157902384    -0.839747541471    12.000000000000
         H           -2.470992815000    -0.179963097616    -0.846530541471     1.007825032230
         H            1.391441185000    -2.050010097616    -0.846192541471     1.007825032230
         H            1.079732185000     2.229979902384    -0.846272541471     1.007825032230
         H           -0.687996815000    -1.421320097616    -1.931592541471     1.007825032230
         H           -1.073244815000    -2.216745097616    -0.398588541471     1.007825032230
         H           -1.383105815000     2.037862902384    -0.398667541471     1.007825032230
         H           -0.885467615000     1.304820402384    -1.911758641471     1.007825032230
         H            2.456422185000     0.178905902384    -0.398332541471     1.007825032230
         H            1.575110185000     0.114691902384    -1.931428541471     1.007825032230

  Basis Set: AUG-CC-PVTZ
    Blend: AUG-CC-PVTZ
  Basis Set: (AUG-CC-PVTZ AUX)
    Blend: AUG-CC-PVTZ-JKFIT
	 Reference Energy          =    -530.9655403865896233 [Eh]
	 Singles Energy            =      -0.0000000000000000 [Eh]
	 Same-Spin Energy          =      -0.4699942363481917 [Eh]
	 Opposite-Spin Energy      =      -1.4864918627853443 [Eh]
	 Correlation Energy        =      -1.9564860991335360 [Eh]
	 Total Energy              =    -532.9220264857231086 [Eh]

	 ================> DF-SCS-MP2 Energies <==================
	-----------------------------------------------------------
	 SCS Same-Spin Scale       =       0.3333333333333333 [-]
	 SCS Opposite-Spin Scale   =       1.2000000000000000 [-]
	 SCS Same-Spin Energy      =      -0.1566647454493972 [Eh]
	 SCS Opposite-Spin Energy  =      -1.7837902353424131 [Eh]
	 SCS Correlation Energy    =      -1.9404549807918103 [Eh]
	 SCS Total Energy          =    -532.9059953673814789 [Eh]
	-----------------------------------------------------------

  Dipole Moment: [D]
     X:    -0.0003      Y:     0.0010      Z:    -5.2329     Total:     5.2329

*** Psi4 exiting successfully. Buy a developer a beer!
