                               Psi4 1.4a3.dev225

  ==> Input File <==

--------------------------------------------------------------------------
#psi4
#
memory 32 gb

molecule  {
0 1
  F       -1.6012940    -0.1166020     1.0531380
  F        0.9015100    -1.3283660     1.0533570
  F        0.6995270     1.4450080     1.0533050
  C       -1.4600740    -0.1063430    -0.3396260
  C        0.8221700    -1.2113200    -0.3394270
  C        0.6587690     1.3267031    -0.3256833
  C       -0.6367970    -1.3153920    -0.7539820
  C       -0.8206640     1.2092170    -0.7540300
  C        1.4576450     0.1061460    -0.7538300
  H       -2.4709910    -0.1799750    -0.7606130
  H        1.3914430    -2.0500220    -0.7602750
  H        1.0797340     2.2299680    -0.7603550
  H       -0.6879950    -1.4213320    -1.8456750
  H       -1.0732430    -2.2167570    -0.3126710
  H       -1.3831040     2.0378510    -0.3127500
  H       -0.8866680     1.3065820    -1.8457260
  H        2.4564240     0.1788940    -0.3124150
  H        1.5751120     0.1146800    -1.8455110
units angstrom
no_reorient  #important for SAPT in psi4, default
symmetry c1  #important for SAPT in psi4, default
}

set PROPERTIES_ORIGIN ["COM"]
properties('MP2/aug-cc-pvtz', properties = ['dipole'])
--------------------------------------------------------------------------

    Molecular point group: c1
  Charge       = 0
  Multiplicity = 1
  Basis Set: AUG-CC-PVTZ
    Blend: AUG-CC-PVTZ
  Basis Set: (AUG-CC-PVTZ AUX)
    Blend: AUG-CC-PVTZ-JKFIT

    Orbital Energies [Eh]
    ---------------------

    Doubly Occupied:

       1A    -26.269163     2A    -26.265314     3A    -26.264773
       4A    -11.320118     5A    -11.319854     6A    -11.319460
       7A    -11.243549     8A    -11.243516     9A    -11.243495
      10A     -1.586316    11A     -1.576188    12A     -1.572403
      13A     -1.134232    14A     -1.032601    15A     -1.029393
      16A     -0.872550    17A     -0.869506    18A     -0.781260
      19A     -0.745913    20A     -0.699739    21A     -0.697336
      22A     -0.672649    23A     -0.660294    24A     -0.657538
      25A     -0.656993    26A     -0.643249    27A     -0.641800
      28A     -0.585212    29A     -0.558886    30A     -0.548263
      31A     -0.547361    32A     -0.524206    33A     -0.522198
      34A     -0.518032    35A     -0.455817    36A     -0.450139

  @DF-RHF Final Energy:  -530.96543456752556

   => Energetics <=

    Nuclear Repulsion Energy =            525.3812858158753443
    One-Electron Energy =               -1777.2348064813281781
    Two-Electron Energy =                 720.8880860979272711
    Total Energy =                       -530.9654345675255627
  Basis Set: (AUG-CC-PVTZ AUX)
    Blend: AUG-CC-PVTZ-RI
    Molecular point group: c1

    Geometry (in Angstrom), charge = 0, multiplicity = 1:

       Center              X                  Y                   Z               Mass
    ------------   -----------------  -----------------  -----------------  -----------------
         F           -1.603093310757    -0.117389895320     0.966166989284    18.998403162730
         F            0.899710689243    -1.329153895320     0.966385989284    18.998403162730
         F            0.697727689243     1.444220104680     0.966333989284    18.998403162730
         C           -1.461873310757    -0.107130895320    -0.426597010716    12.000000000000
         C            0.820370689243    -1.212107895320    -0.426398010716    12.000000000000
         C            0.656969689243     1.325915204680    -0.412654310716    12.000000000000
         C           -0.638596310757    -1.316179895320    -0.840953010716    12.000000000000
         C           -0.822463310757     1.208429104680    -0.841001010716    12.000000000000
         C            1.455845689243     0.105358104680    -0.840801010716    12.000000000000
         H           -2.472790310757    -0.180762895320    -0.847584010716     1.007825032230
         H            1.389643689243    -2.050809895320    -0.847246010716     1.007825032230
         H            1.077934689243     2.229180104680    -0.847326010716     1.007825032230
         H           -0.689794310757    -1.422119895320    -1.932646010716     1.007825032230
         H           -1.075042310757    -2.217544895320    -0.399642010716     1.007825032230
         H           -1.384903310757     2.037063104680    -0.399721010716     1.007825032230
         H           -0.888467310757     1.305794104680    -1.932697010716     1.007825032230
         H            2.454624689243     0.178106104680    -0.399386010716     1.007825032230
         H            1.573312689243     0.113892104680    -1.932482010716     1.007825032230

  Basis Set: AUG-CC-PVTZ
    Blend: AUG-CC-PVTZ
  Basis Set: (AUG-CC-PVTZ AUX)
    Blend: AUG-CC-PVTZ-JKFIT
	 Reference Energy          =    -530.9654345675255627 [Eh]
	 Singles Energy            =      -0.0000000000000000 [Eh]
	 Same-Spin Energy          =      -0.4698066610392709 [Eh]
	 Opposite-Spin Energy      =      -1.4861962793701364 [Eh]
	 Correlation Energy        =      -1.9560029404094075 [Eh]
	 Total Energy              =    -532.9214375079350248 [Eh]

	 ================> DF-SCS-MP2 Energies <==================
	-----------------------------------------------------------
	 SCS Same-Spin Scale       =       0.3333333333333333 [-]
	 SCS Opposite-Spin Scale   =       1.2000000000000000 [-]
	 SCS Same-Spin Energy      =      -0.1566022203464236 [Eh]
	 SCS Opposite-Spin Energy  =      -1.7834355352441638 [Eh]
	 SCS Correlation Energy    =      -1.9400377555905874 [Eh]
	 SCS Total Energy          =    -532.9054723231161006 [Eh]
	-----------------------------------------------------------

  Dipole Moment: [D]
     X:     0.0503      Y:     0.0281      Z:    -5.1604     Total:     5.1607

*** Psi4 exiting successfully. Buy a developer a beer!
