                               Psi4 1.4a3.dev225

  ==> Input File <==

--------------------------------------------------------------------------
#psi4
#
memory 32 gb

molecule  {
0 1
  F       -1.6012940    -0.1166020     1.0531380
  F        0.9015100    -1.3283660     1.0533570
  F        0.6995270     1.4450080     1.0533050
  C       -1.4600740    -0.1063430    -0.3396260
  C        0.8221700    -1.2113200    -0.3394270
  C        0.6379870     1.3176500    -0.3394740
  C       -0.6367970    -1.3153920    -0.7539820
  C       -0.8206640     1.2092170    -0.7540300
  C        1.3424011     0.1781655    -0.6710360
  H       -2.4709910    -0.1799750    -0.7606130
  H        1.3914430    -2.0500220    -0.7602750
  H        1.0797340     2.2299680    -0.7603550
  H       -0.6879950    -1.4213320    -1.8456750
  H       -1.0732430    -2.2167570    -0.3126710
  H       -1.3831040     2.0378510    -0.3127500
  H       -0.8866680     1.3065820    -1.8457260
  H        2.4564240     0.1788940    -0.3124150
  H        1.5751120     0.1146800    -1.8455110
units angstrom
no_reorient  #important for SAPT in psi4, default
symmetry c1  #important for SAPT in psi4, default
}

set PROPERTIES_ORIGIN ["COM"]
properties('MP2/aug-cc-pvtz', properties = ['dipole'])
--------------------------------------------------------------------------

    Molecular point group: c1
  Charge       = 0
  Multiplicity = 1
  Basis Set: AUG-CC-PVTZ
    Blend: AUG-CC-PVTZ
  Basis Set: (AUG-CC-PVTZ AUX)
    Blend: AUG-CC-PVTZ-JKFIT

    Orbital Energies [Eh]
    ---------------------

    Doubly Occupied:

       1A    -26.265873     2A    -26.263757     3A    -26.263423
       4A    -11.323289     5A    -11.321078     6A    -11.314005
       7A    -11.251831     8A    -11.244345     9A    -11.243184
      10A     -1.583167    11A     -1.573799    12A     -1.572707
      13A     -1.150493    14A     -1.047044    15A     -1.030531
      16A     -0.882323    17A     -0.865445    18A     -0.777127
      19A     -0.751020    20A     -0.698812    21A     -0.695833
      22A     -0.680890    23A     -0.664289    24A     -0.657460
      25A     -0.655817    26A     -0.642934    27A     -0.635593
      28A     -0.587330    29A     -0.557085    30A     -0.548436
      31A     -0.539797    32A     -0.524422    33A     -0.523466
      34A     -0.504767    35A     -0.469433    36A     -0.442871

  @DF-RHF Final Energy:  -530.93479483573560

   => Energetics <=

    Nuclear Repulsion Energy =            528.6324118051405776
    One-Electron Energy =               -1783.6270567495516843
    Two-Electron Energy =                 724.0598501086753913
    Total Energy =                       -530.9347948357356017
  Basis Set: (AUG-CC-PVTZ AUX)
    Blend: AUG-CC-PVTZ-RI
    Molecular point group: c1

    Geometry (in Angstrom), charge = 0, multiplicity = 1:

       Center              X                  Y                   Z               Mass
    ------------   -----------------  -----------------  -----------------  -----------------
         F           -1.591270594680    -0.122862631539     0.960169554793    18.998403162730
         F            0.911533405320    -1.334626631539     0.960388554793    18.998403162730
         F            0.709550405320     1.438747368461     0.960336554793    18.998403162730
         C           -1.450050594680    -0.112603631539    -0.432594445207    12.000000000000
         C            0.832193405320    -1.217580631539    -0.432395445207    12.000000000000
         C            0.648010405320     1.311389368461    -0.432442445207    12.000000000000
         C           -0.626773594680    -1.321652631539    -0.846950445207    12.000000000000
         C           -0.810640594680     1.202956368461    -0.846998445207    12.000000000000
         C            1.352424505320     0.171904868461    -0.764004445207    12.000000000000
         H           -2.460967594680    -0.186235631539    -0.853581445207     1.007825032230
         H            1.401466405320    -2.056282631539    -0.853243445207     1.007825032230
         H            1.089757405320     2.223707368461    -0.853323445207     1.007825032230
         H           -0.677971594680    -1.427592631539    -1.938643445207     1.007825032230
         H           -1.063219594680    -2.223017631539    -0.405639445207     1.007825032230
         H           -1.373080594680     2.031590368461    -0.405718445207     1.007825032230
         H           -0.876644594680     1.300321368461    -1.938694445207     1.007825032230
         H            2.466447405320     0.172633368461    -0.405383445207     1.007825032230
         H            1.585135405320     0.108419368461    -1.938479445207     1.007825032230

  Basis Set: AUG-CC-PVTZ
    Blend: AUG-CC-PVTZ
  Basis Set: (AUG-CC-PVTZ AUX)
    Blend: AUG-CC-PVTZ-JKFIT
	 Reference Energy          =    -530.9347948357356017 [Eh]
	 Singles Energy            =      -0.0000000000000000 [Eh]
	 Same-Spin Energy          =      -0.4721177397189631 [Eh]
	 Opposite-Spin Energy      =      -1.4895807636557055 [Eh]
	 Correlation Energy        =      -1.9616985033746686 [Eh]
	 Total Energy              =    -532.8964933391102932 [Eh]

	 ================> DF-SCS-MP2 Energies <==================
	-----------------------------------------------------------
	 SCS Same-Spin Scale       =       0.3333333333333333 [-]
	 SCS Opposite-Spin Scale   =       1.2000000000000000 [-]
	 SCS Same-Spin Energy      =      -0.1573725799063210 [Eh]
	 SCS Opposite-Spin Energy  =      -1.7874969163868466 [Eh]
	 SCS Correlation Energy    =      -1.9448694962931676 [Eh]
	 SCS Total Energy          =    -532.8796643320288240 [Eh]
	-----------------------------------------------------------

  Dipole Moment: [D]
     X:    -0.0187      Y:    -0.0568      Z:    -5.2410     Total:     5.2414

*** Psi4 exiting successfully. Buy a developer a beer!
