                               Psi4 1.4a3.dev225

  ==> Input File <==

--------------------------------------------------------------------------
#psi4
#
memory 32 gb

molecule  {
0 1
  F       -1.6012940    -0.1166020     1.0531380
  F        0.9015100    -1.3283660     1.0533570
  F        0.6995270     1.4450080     1.0533050
  C       -1.4600740    -0.1063430    -0.3396260
  C        0.8221700    -1.2113200    -0.3394270
  C        0.6379870     1.3176500    -0.3394740
  C       -0.6367970    -1.3153920    -0.7539820
  C       -0.8206640     1.2092170    -0.7540300
  C        1.4576450     0.1061460    -0.7538300
  H       -2.4709910    -0.1799750    -0.7606130
  H        1.3914430    -2.0500220    -0.7602750
  H        1.0797340     2.2299680    -0.7603550
  H       -0.6879950    -1.4213320    -1.8456750
  H       -1.0732430    -2.2167570    -0.3126710
  H       -1.3541243     1.9951423    -0.2104836
  H       -0.8866680     1.3065820    -1.8457260
  H        2.4564240     0.1788940    -0.3124150
  H        1.5751120     0.1146800    -1.8455110
units angstrom
no_reorient  #important for SAPT in psi4, default
symmetry c1  #important for SAPT in psi4, default
}

set PROPERTIES_ORIGIN ["COM"]
properties('MP2/aug-cc-pvtz', properties = ['dipole'])
--------------------------------------------------------------------------

    Molecular point group: c1
  Charge       = 0
  Multiplicity = 1
  Basis Set: AUG-CC-PVTZ
    Blend: AUG-CC-PVTZ
  Basis Set: (AUG-CC-PVTZ AUX)
    Blend: AUG-CC-PVTZ-JKFIT

    Orbital Energies [Eh]
    ---------------------

    Doubly Occupied:

       1A    -26.265796     2A    -26.265793     3A    -26.265159
       4A    -11.319930     5A    -11.319534     6A    -11.319526
       7A    -11.243896     8A    -11.243647     9A    -11.243633
      10A     -1.582417    11A     -1.573151    12A     -1.572733
      13A     -1.136806    14A     -1.033067    15A     -1.032481
      16A     -0.871241    17A     -0.870818    18A     -0.779306
      19A     -0.744748    20A     -0.697718    21A     -0.697090
      22A     -0.671960    23A     -0.659548    24A     -0.657046
      25A     -0.656894    26A     -0.641168    27A     -0.639697
      28A     -0.584258    29A     -0.562142    30A     -0.551322
      31A     -0.548030    32A     -0.524160    33A     -0.521147
      34A     -0.520880    35A     -0.454300    36A     -0.451856

  @DF-RHF Final Energy:  -530.96404955939204

   => Energetics <=

    Nuclear Repulsion Energy =            525.7646978545046750
    One-Electron Energy =               -1778.0116965539591547
    Two-Electron Energy =                 721.2829491400624420
    Total Energy =                       -530.9640495593920377
  Basis Set: (AUG-CC-PVTZ AUX)
    Blend: AUG-CC-PVTZ-RI
    Molecular point group: c1

    Geometry (in Angstrom), charge = 0, multiplicity = 1:

       Center              X                  Y                   Z               Mass
    ------------   -----------------  -----------------  -----------------  -----------------
         F           -1.601498579865    -0.116291286697     0.966619105860    18.998403162730
         F            0.901305420135    -1.328055286697     0.966838105860    18.998403162730
         F            0.699322420135     1.445318713303     0.966786105860    18.998403162730
         C           -1.460278579865    -0.106032286697    -0.426144894140    12.000000000000
         C            0.821965420135    -1.211009286697    -0.425945894140    12.000000000000
         C            0.637782420135     1.317960713303    -0.425992894140    12.000000000000
         C           -0.637001579865    -1.315081286697    -0.840500894140    12.000000000000
         C           -0.820868579865     1.209527713303    -0.840548894140    12.000000000000
         C            1.457440420135     0.106456713303    -0.840348894140    12.000000000000
         H           -2.471195579865    -0.179664286697    -0.847131894140     1.007825032230
         H            1.391238420135    -2.049711286697    -0.846793894140     1.007825032230
         H            1.079529420135     2.230278713303    -0.846873894140     1.007825032230
         H           -0.688199579865    -1.421021286697    -1.932193894140     1.007825032230
         H           -1.073447579865    -2.216446286697    -0.399189894140     1.007825032230
         H           -1.354328879865     1.995453013303    -0.297002494140     1.007825032230
         H           -0.886872579865     1.306892713303    -1.932244894140     1.007825032230
         H            2.456219420135     0.179204713303    -0.398933894140     1.007825032230
         H            1.574907420135     0.114990713303    -1.932029894140     1.007825032230

  Basis Set: AUG-CC-PVTZ
    Blend: AUG-CC-PVTZ
  Basis Set: (AUG-CC-PVTZ AUX)
    Blend: AUG-CC-PVTZ-JKFIT
	 Reference Energy          =    -530.9640495593920377 [Eh]
	 Singles Energy            =      -0.0000000000000000 [Eh]
	 Same-Spin Energy          =      -0.4701322382786149 [Eh]
	 Opposite-Spin Energy      =      -1.4868653496358522 [Eh]
	 Correlation Energy        =      -1.9569975879144672 [Eh]
	 Total Energy              =    -532.9210471473064672 [Eh]

	 ================> DF-SCS-MP2 Energies <==================
	-----------------------------------------------------------
	 SCS Same-Spin Scale       =       0.3333333333333333 [-]
	 SCS Opposite-Spin Scale   =       1.2000000000000000 [-]
	 SCS Same-Spin Energy      =      -0.1567107460928716 [Eh]
	 SCS Opposite-Spin Energy  =      -1.7842384195630225 [Eh]
	 SCS Correlation Energy    =      -1.9409491656558941 [Eh]
	 SCS Total Energy          =    -532.9049987250479035 [Eh]
	-----------------------------------------------------------

  Dipole Moment: [D]
     X:     0.0108      Y:    -0.0153      Z:    -5.1890     Total:     5.1890

*** Psi4 exiting successfully. Buy a developer a beer!
