                               Psi4 1.4a3.dev225

  ==> Input File <==

--------------------------------------------------------------------------
#psi4
#
memory 32 gb

molecule  {
0 1
  F       -1.6012940    -0.1166020     1.0531380
  F        0.9015100    -1.3283660     1.0533570
  F        0.6995270     1.4450080     1.0533050
  C       -1.4600740    -0.1063430    -0.3396260
  C        0.8221700    -1.2113200    -0.3394270
  C        0.6379870     1.3176500    -0.3394740
  C       -0.6367970    -1.3153920    -0.7539820
  C       -0.8206640     1.2092170    -0.7540300
  C        1.4576450     0.1061460    -0.7538300
  H       -2.4709910    -0.1799750    -0.7606130
  H        1.3914430    -2.0500220    -0.7602750
  H        1.0797340     2.2299680    -0.7603550
  H       -0.6879950    -1.4213320    -1.8456750
  H       -1.0732430    -2.2167570    -0.3126710
  H       -1.4088004     2.0757091    -0.2925891
  H       -0.8866680     1.3065820    -1.8457260
  H        2.4564240     0.1788940    -0.3124150
  H        1.5751120     0.1146800    -1.8455110
units angstrom
no_reorient  #important for SAPT in psi4, default
symmetry c1  #important for SAPT in psi4, default
}

set PROPERTIES_ORIGIN ["COM"]
properties('MP2/aug-cc-pvtz', properties = ['dipole'])
--------------------------------------------------------------------------

    Molecular point group: c1
  Charge       = 0
  Multiplicity = 1
  Basis Set: AUG-CC-PVTZ
    Blend: AUG-CC-PVTZ
  Basis Set: (AUG-CC-PVTZ AUX)
    Blend: AUG-CC-PVTZ-JKFIT

    Orbital Energies [Eh]
    ---------------------

    Doubly Occupied:

       1A    -26.265430     2A    -26.265190     3A    -26.265188
       4A    -11.320517     5A    -11.320510     6A    -11.320381
       7A    -11.249624     8A    -11.244409     9A    -11.244395
      10A     -1.582072    11A     -1.572698    12A     -1.572543
      13A     -1.136581    14A     -1.033027    15A     -1.030851
      16A     -0.871373    17A     -0.869228    18A     -0.779602
      19A     -0.745306    20A     -0.697055    21A     -0.696998
      22A     -0.671686    23A     -0.657295    24A     -0.656744
      25A     -0.655179    26A     -0.641122    27A     -0.640171
      28A     -0.584216    29A     -0.558245    30A     -0.548393
      31A     -0.543328    32A     -0.524464    33A     -0.524010
      34A     -0.521040    35A     -0.454752    36A     -0.453271

  @DF-RHF Final Energy:  -530.96328615152220

   => Energetics <=

    Nuclear Repulsion Energy =            525.2730319644909969
    One-Electron Energy =               -1777.0388464745731198
    Two-Electron Energy =                 720.8025283585600391
    Total Energy =                       -530.9632861515221975
  Basis Set: (AUG-CC-PVTZ AUX)
    Blend: AUG-CC-PVTZ-RI
    Molecular point group: c1

    Geometry (in Angstrom), charge = 0, multiplicity = 1:

       Center              X                  Y                   Z               Mass
    ------------   -----------------  -----------------  -----------------  -----------------
         F           -1.601099465760    -0.116879392767     0.967218443837    18.998403162730
         F            0.901704534240    -1.328643392767     0.967437443837    18.998403162730
         F            0.699721534240     1.444730607233     0.967385443837    18.998403162730
         C           -1.459879465760    -0.106620392767    -0.425545556163    12.000000000000
         C            0.822364534240    -1.211597392767    -0.425346556163    12.000000000000
         C            0.638181534240     1.317372607233    -0.425393556163    12.000000000000
         C           -0.636602465760    -1.315669392767    -0.839901556163    12.000000000000
         C           -0.820469465760     1.208939607233    -0.839949556163    12.000000000000
         C            1.457839534240     0.105868607233    -0.839749556163    12.000000000000
         H           -2.470796465760    -0.180252392767    -0.846532556163     1.007825032230
         H            1.391637534240    -2.050299392767    -0.846194556163     1.007825032230
         H            1.079928534240     2.229690607233    -0.846274556163     1.007825032230
         H           -0.687800465760    -1.421609392767    -1.931594556163     1.007825032230
         H           -1.073048465760    -2.217034392767    -0.398590556163     1.007825032230
         H           -1.408605865760     2.075431707233    -0.378508656163     1.007825032230
         H           -0.886473465760     1.306304607233    -1.931645556163     1.007825032230
         H            2.456618534240     0.178616607233    -0.398334556163     1.007825032230
         H            1.575306534240     0.114402607233    -1.931430556163     1.007825032230

  Basis Set: AUG-CC-PVTZ
    Blend: AUG-CC-PVTZ
  Basis Set: (AUG-CC-PVTZ AUX)
    Blend: AUG-CC-PVTZ-JKFIT
	 Reference Energy          =    -530.9632861515221975 [Eh]
	 Singles Energy            =      -0.0000000000000000 [Eh]
	 Same-Spin Energy          =      -0.4700466393604712 [Eh]
	 Opposite-Spin Energy      =      -1.4870073927869976 [Eh]
	 Correlation Energy        =      -1.9570540321474688 [Eh]
	 Total Energy              =    -532.9203401836696230 [Eh]

	 ================> DF-SCS-MP2 Energies <==================
	-----------------------------------------------------------
	 SCS Same-Spin Scale       =       0.3333333333333333 [-]
	 SCS Opposite-Spin Scale   =       1.2000000000000000 [-]
	 SCS Same-Spin Energy      =      -0.1566822131201571 [Eh]
	 SCS Opposite-Spin Energy  =      -1.7844088713443971 [Eh]
	 SCS Correlation Energy    =      -1.9410910844645541 [Eh]
	 SCS Total Energy          =    -532.9043772359867717 [Eh]
	-----------------------------------------------------------

  Dipole Moment: [D]
     X:     0.0153      Y:    -0.0219      Z:    -5.2237     Total:     5.2238

*** Psi4 exiting successfully. Buy a developer a beer!
