                               Psi4 1.4a3.dev225

  ==> Input File <==

--------------------------------------------------------------------------
#psi4
#
memory 32 gb

molecule  {
0 1
  F       -1.6012940    -0.1166020     1.0531380
  F        0.9015100    -1.3283660     1.0533570
  F        0.6995270     1.4450080     1.0533050
  C       -1.4600740    -0.1063430    -0.3396260
  C        0.8221700    -1.2113200    -0.3394270
  C        0.6379870     1.3176500    -0.3394740
  C       -0.6367970    -1.3153920    -0.7539820
  C       -0.8206640     1.2092170    -0.7540300
  C        1.4576450     0.1061460    -0.7538300
  H       -2.4709910    -0.1799750    -0.7606130
  H        1.3914430    -2.0500220    -0.7602750
  H        1.0797340     2.2299680    -0.7603550
  H       -0.6879950    -1.4213320    -1.8456750
  H       -1.0732430    -2.2167570    -0.3126710
  H       -1.3831040     2.0378510    -0.3127500
  H       -0.8866680     1.3065820    -1.8457260
  H        2.4107924     0.1755703    -0.3325821
  H        1.5751120     0.1146800    -1.8455110
units angstrom
no_reorient  #important for SAPT in psi4, default
symmetry c1  #important for SAPT in psi4, default
}

set PROPERTIES_ORIGIN ["COM"]
properties('MP2/aug-cc-pvtz', properties = ['dipole'])
--------------------------------------------------------------------------

    Molecular point group: c1
  Charge       = 0
  Multiplicity = 1
  Basis Set: AUG-CC-PVTZ
    Blend: AUG-CC-PVTZ
  Basis Set: (AUG-CC-PVTZ AUX)
    Blend: AUG-CC-PVTZ-JKFIT

    Orbital Energies [Eh]
    ---------------------

    Doubly Occupied:

       1A    -26.265283     2A    -26.265281     3A    -26.265049
       4A    -11.319874     5A    -11.319766     6A    -11.319759
       7A    -11.243685     8A    -11.243671     9A    -11.238233
      10A     -1.582017    11A     -1.572641    12A     -1.572490
      13A     -1.137046    14A     -1.034951    15A     -1.032381
      16A     -0.873489    17A     -0.870998    18A     -0.780082
      19A     -0.745666    20A     -0.696803    21A     -0.696750
      22A     -0.671529    23A     -0.664518    24A     -0.656621
      25A     -0.656536    26A     -0.641521    27A     -0.640833
      28A     -0.584001    29A     -0.559102    30A     -0.552179
      31A     -0.547895    32A     -0.524253    33A     -0.524034
      34A     -0.520667    35A     -0.455349    36A     -0.454115

  @DF-RHF Final Energy:  -530.96458950128385

   => Energetics <=

    Nuclear Repulsion Energy =            525.8171826890104512
    One-Electron Energy =               -1778.1054066343710929
    Two-Electron Energy =                 721.3236344440767880
    Total Energy =                       -530.9645895012838537
  Basis Set: (AUG-CC-PVTZ AUX)
    Blend: AUG-CC-PVTZ-RI
    Molecular point group: c1

    Geometry (in Angstrom), charge = 0, multiplicity = 1:

       Center              X                  Y                   Z               Mass
    ------------   -----------------  -----------------  -----------------  -----------------
         F           -1.600953946612    -0.116578781764     0.967512822434    18.998403162730
         F            0.901850053388    -1.328342781764     0.967731822434    18.998403162730
         F            0.699867053388     1.445031218236     0.967679822434    18.998403162730
         C           -1.459733946612    -0.106319781764    -0.425251177566    12.000000000000
         C            0.822510053388    -1.211296781764    -0.425052177566    12.000000000000
         C            0.638327053388     1.317673218236    -0.425099177566    12.000000000000
         C           -0.636456946612    -1.315368781764    -0.839607177566    12.000000000000
         C           -0.820323946612     1.209240218236    -0.839655177566    12.000000000000
         C            1.457985053388     0.106169218236    -0.839455177566    12.000000000000
         H           -2.470650946612    -0.179951781764    -0.846238177566     1.007825032230
         H            1.391783053388    -2.049998781764    -0.845900177566     1.007825032230
         H            1.080074053388     2.229991218236    -0.845980177566     1.007825032230
         H           -0.687654946612    -1.421308781764    -1.931300177566     1.007825032230
         H           -1.072902946612    -2.216733781764    -0.398296177566     1.007825032230
         H           -1.382763946612     2.037874218236    -0.398375177566     1.007825032230
         H           -0.886327946612     1.306605218236    -1.931351177566     1.007825032230
         H            2.411132453388     0.175593518236    -0.418207277566     1.007825032230
         H            1.575452053388     0.114703218236    -1.931136177566     1.007825032230

  Basis Set: AUG-CC-PVTZ
    Blend: AUG-CC-PVTZ
  Basis Set: (AUG-CC-PVTZ AUX)
    Blend: AUG-CC-PVTZ-JKFIT
	 Reference Energy          =    -530.9645895012838537 [Eh]
	 Singles Energy            =      -0.0000000000000000 [Eh]
	 Same-Spin Energy          =      -0.4699622766073608 [Eh]
	 Opposite-Spin Energy      =      -1.4862964430862371 [Eh]
	 Correlation Energy        =      -1.9562587196935979 [Eh]
	 Total Energy              =    -532.9208482209774047 [Eh]

	 ================> DF-SCS-MP2 Energies <==================
	-----------------------------------------------------------
	 SCS Same-Spin Scale       =       0.3333333333333333 [-]
	 SCS Opposite-Spin Scale   =       1.2000000000000000 [-]
	 SCS Same-Spin Energy      =      -0.1566540922024536 [Eh]
	 SCS Opposite-Spin Energy  =      -1.7835557317034845 [Eh]
	 SCS Correlation Energy    =      -1.9402098239059380 [Eh]
	 SCS Total Energy          =    -532.9047993251897424 [Eh]
	-----------------------------------------------------------

  Dipole Moment: [D]
     X:     0.0227      Y:     0.0016      Z:    -5.2251     Total:     5.2252

*** Psi4 exiting successfully. Buy a developer a beer!
