                               Psi4 1.4a3.dev225

  ==> Input File <==

--------------------------------------------------------------------------
#psi4
#
memory 32 gb

molecule  {
0 1
  F       -1.6012940    -0.1166020     1.0531380
  F        0.9015100    -1.3283660     1.0533570
  F        0.6995270     1.4450080     1.0533050
  C       -1.4600740    -0.1063430    -0.3396260
  C        0.8221700    -1.2113200    -0.3394270
  C        0.5966522     1.4484295    -0.2587833
  C       -0.6367970    -1.3153920    -0.7539820
  C       -0.8206640     1.2092170    -0.7540300
  C        1.4576450     0.1061460    -0.7538300
  H       -2.4709910    -0.1799750    -0.7606130
  H        1.3914430    -2.0500220    -0.7602750
  H        1.0797340     2.2299680    -0.7603550
  H       -0.6879950    -1.4213320    -1.8456750
  H       -1.0732430    -2.2167570    -0.3126710
  H       -1.3831040     2.0378510    -0.3127500
  H       -0.8866680     1.3065820    -1.8457260
  H        2.4564240     0.1788940    -0.3124150
  H        1.5751120     0.1146800    -1.8455110
units angstrom
no_reorient  #important for SAPT in psi4, default
symmetry c1  #important for SAPT in psi4, default
}

set PROPERTIES_ORIGIN ["COM"]
properties('MP2/aug-cc-pvtz', properties = ['dipole'])
--------------------------------------------------------------------------

    Molecular point group: c1
  Charge       = 0
  Multiplicity = 1
  Basis Set: AUG-CC-PVTZ
    Blend: AUG-CC-PVTZ
  Basis Set: (AUG-CC-PVTZ AUX)
    Blend: AUG-CC-PVTZ-JKFIT

    Orbital Energies [Eh]
    ---------------------

    Doubly Occupied:

       1A    -26.288173     2A    -26.265977     3A    -26.262400
       4A    -11.322161     5A    -11.320416     6A    -11.316065
       7A    -11.242627     8A    -11.241283     9A    -11.238890
      10A     -1.624611    11A     -1.578025    12A     -1.571143
      13A     -1.124749    14A     -1.032729    15A     -1.014872
      16A     -0.879956    17A     -0.862678    18A     -0.788188
      19A     -0.752629    20A     -0.715468    21A     -0.704323
      22A     -0.680769    23A     -0.672355    24A     -0.657958
      25A     -0.655387    26A     -0.649755    27A     -0.642528
      28A     -0.588515    29A     -0.561603    30A     -0.547720
      31A     -0.542916    32A     -0.522908    33A     -0.518161
      34A     -0.501936    35A     -0.460477    36A     -0.419935

  @DF-RHF Final Energy:  -530.94633624120172

   => Energetics <=

    Nuclear Repulsion Energy =            524.6267993807529137
    One-Electron Energy =               -1775.6057012949447653
    Two-Electron Energy =                 720.0325656729900174
    Total Energy =                       -530.9463362412017204
  Basis Set: (AUG-CC-PVTZ AUX)
    Blend: AUG-CC-PVTZ-RI
    Molecular point group: c1

    Geometry (in Angstrom), charge = 0, multiplicity = 1:

       Center              X                  Y                   Z               Mass
    ------------   -----------------  -----------------  -----------------  -----------------
         F           -1.597694417678    -0.127969767729     0.960352363499    18.998403162730
         F            0.905109582322    -1.339733767729     0.960571363499    18.998403162730
         F            0.703126582322     1.433640232271     0.960519363499    18.998403162730
         C           -1.456474417678    -0.117710767729    -0.432411636501    12.000000000000
         C            0.825769582322    -1.222687767729    -0.432212636501    12.000000000000
         C            0.600251782322     1.437061732271    -0.351568936501    12.000000000000
         C           -0.633197417678    -1.326759767729    -0.846767636501    12.000000000000
         C           -0.817064417678     1.197849232271    -0.846815636501    12.000000000000
         C            1.461244582322     0.094778232271    -0.846615636501    12.000000000000
         H           -2.467391417678    -0.191342767729    -0.853398636501     1.007825032230
         H            1.395042582322    -2.061389767729    -0.853060636501     1.007825032230
         H            1.083333582322     2.218600232271    -0.853140636501     1.007825032230
         H           -0.684395417678    -1.432699767729    -1.938460636501     1.007825032230
         H           -1.069643417678    -2.228124767729    -0.405456636501     1.007825032230
         H           -1.379504417678     2.026483232271    -0.405535636501     1.007825032230
         H           -0.883068417678     1.295214232271    -1.938511636501     1.007825032230
         H            2.460023582322     0.167526232271    -0.405200636501     1.007825032230
         H            1.578711582322     0.103312232271    -1.938296636501     1.007825032230

  Basis Set: AUG-CC-PVTZ
    Blend: AUG-CC-PVTZ
  Basis Set: (AUG-CC-PVTZ AUX)
    Blend: AUG-CC-PVTZ-JKFIT
	 Reference Energy          =    -530.9463362412017204 [Eh]
	 Singles Energy            =      -0.0000000000000000 [Eh]
	 Same-Spin Energy          =      -0.4696985746197977 [Eh]
	 Opposite-Spin Energy      =      -1.4856859268536342 [Eh]
	 Correlation Energy        =      -1.9553845014734319 [Eh]
	 Total Energy              =    -532.9017207426751384 [Eh]

	 ================> DF-SCS-MP2 Energies <==================
	-----------------------------------------------------------
	 SCS Same-Spin Scale       =       0.3333333333333333 [-]
	 SCS Opposite-Spin Scale   =       1.2000000000000000 [-]
	 SCS Same-Spin Energy      =      -0.1565661915399326 [Eh]
	 SCS Opposite-Spin Energy  =      -1.7828231122243610 [Eh]
	 SCS Correlation Energy    =      -1.9393893037642935 [Eh]
	 SCS Total Energy          =    -532.8857255449660215 [Eh]
	-----------------------------------------------------------

  Dipole Moment: [D]
     X:    -0.0738      Y:     0.3430      Z:    -4.8380     Total:     4.8507

*** Psi4 exiting successfully. Buy a developer a beer!
