                               Psi4 1.4a3.dev225

  ==> Input File <==

--------------------------------------------------------------------------
#psi4
#
memory 32 gb

molecule  {
0 1
  F       -1.6012940    -0.1166020     1.0531380
  F        0.9015100    -1.3283660     1.0533570
  F        0.6995270     1.4450080     1.0533050
  C       -1.4600740    -0.1063430    -0.3396260
  C        0.8221700    -1.2113200    -0.3394270
  C        0.6379870     1.3176500    -0.3394740
  C       -0.6367970    -1.3153920    -0.7539820
  C       -0.8206640     1.2092170    -0.7540300
  C        1.4576450     0.1061460    -0.7538300
  H       -2.4709910    -0.1799750    -0.7606130
  H        1.3914430    -2.0500220    -0.7602750
  H        1.0797340     2.2299680    -0.7603550
  H       -0.6879950    -1.4213320    -1.8456750
  H       -1.0732430    -2.2167570    -0.3126710
  H       -1.3786942     2.0313519    -0.2953389
  H       -0.8866680     1.3065820    -1.8457260
  H        2.4564240     0.1788940    -0.3124150
  H        1.5751120     0.1146800    -1.8455110
units angstrom
no_reorient  #important for SAPT in psi4, default
symmetry c1  #important for SAPT in psi4, default
}

set PROPERTIES_ORIGIN ["COM"]
properties('MP2/aug-cc-pvtz', properties = ['dipole'])
--------------------------------------------------------------------------

    Molecular point group: c1
  Charge       = 0
  Multiplicity = 1
  Basis Set: AUG-CC-PVTZ
    Blend: AUG-CC-PVTZ
  Basis Set: (AUG-CC-PVTZ AUX)
    Blend: AUG-CC-PVTZ-JKFIT

    Orbital Energies [Eh]
    ---------------------

    Doubly Occupied:

       1A    -26.265315     2A    -26.265312     3A    -26.265214
       4A    -11.320081     5A    -11.320010     6A    -11.320003
       7A    -11.243999     8A    -11.243962     9A    -11.243946
      10A     -1.582088    11A     -1.572669    12A     -1.572606
      13A     -1.136733    14A     -1.032732    15A     -1.032649
      16A     -0.871175    17A     -0.871095    18A     -0.779694
      19A     -0.745317    20A     -0.696966    21A     -0.696916
      22A     -0.671647    23A     -0.659666    24A     -0.656722
      25A     -0.656665    26A     -0.640993    27A     -0.640769
      28A     -0.584118    29A     -0.558780    30A     -0.548928
      31A     -0.548110    32A     -0.524217    33A     -0.523749
      34A     -0.520837    35A     -0.454386    36A     -0.454024

  @DF-RHF Final Energy:  -530.96541521306813

   => Energetics <=

    Nuclear Repulsion Energy =            525.5739834286962378
    One-Electron Energy =               -1777.6346122543009187
    Two-Electron Energy =                 721.0952136125365541
    Total Energy =                       -530.9654152130681268
  Basis Set: (AUG-CC-PVTZ AUX)
    Blend: AUG-CC-PVTZ-RI
    Molecular point group: c1

    Geometry (in Angstrom), charge = 0, multiplicity = 1:

       Center              X                  Y                   Z               Mass
    ------------   -----------------  -----------------  -----------------  -----------------
         F           -1.601319229223    -0.116555602588     0.967238516300    18.998403162730
         F            0.901484770777    -1.328319602588     0.967457516300    18.998403162730
         F            0.699501770777     1.445054397412     0.967405516300    18.998403162730
         C           -1.460099229223    -0.106296602588    -0.425525483700    12.000000000000
         C            0.822144770777    -1.211273602588    -0.425326483700    12.000000000000
         C            0.637961770777     1.317696397412    -0.425373483700    12.000000000000
         C           -0.636822229223    -1.315345602588    -0.839881483700    12.000000000000
         C           -0.820689229223     1.209263397412    -0.839929483700    12.000000000000
         C            1.457619770777     0.106192397412    -0.839729483700    12.000000000000
         H           -2.471016229223    -0.179928602588    -0.846512483700     1.007825032230
         H            1.391417770777    -2.049975602588    -0.846174483700     1.007825032230
         H            1.079708770777     2.230014397412    -0.846254483700     1.007825032230
         H           -0.688020229223    -1.421285602588    -1.931574483700     1.007825032230
         H           -1.073268229223    -2.216710602588    -0.398570483700     1.007825032230
         H           -1.378719429223     2.031398297412    -0.381238383700     1.007825032230
         H           -0.886693229223     1.306628397412    -1.931625483700     1.007825032230
         H            2.456398770777     0.178940397412    -0.398314483700     1.007825032230
         H            1.575086770777     0.114726397412    -1.931410483700     1.007825032230

  Basis Set: AUG-CC-PVTZ
    Blend: AUG-CC-PVTZ
  Basis Set: (AUG-CC-PVTZ AUX)
    Blend: AUG-CC-PVTZ-JKFIT
	 Reference Energy          =    -530.9654152130681268 [Eh]
	 Singles Energy            =      -0.0000000000000000 [Eh]
	 Same-Spin Energy          =      -0.4700121168539909 [Eh]
	 Opposite-Spin Energy      =      -1.4866485199525581 [Eh]
	 Correlation Energy        =      -1.9566606368065491 [Eh]
	 Total Energy              =    -532.9220758498746591 [Eh]

	 ================> DF-SCS-MP2 Energies <==================
	-----------------------------------------------------------
	 SCS Same-Spin Scale       =       0.3333333333333333 [-]
	 SCS Opposite-Spin Scale   =       1.2000000000000000 [-]
	 SCS Same-Spin Energy      =      -0.1566707056179970 [Eh]
	 SCS Opposite-Spin Energy  =      -1.7839782239430697 [Eh]
	 SCS Correlation Energy    =      -1.9406489295610667 [Eh]
	 SCS Total Energy          =    -532.9060641426292477 [Eh]
	-----------------------------------------------------------

  Dipole Moment: [D]
     X:     0.0020      Y:    -0.0024      Z:    -5.2179     Total:     5.2179

*** Psi4 exiting successfully. Buy a developer a beer!
