                               Psi4 1.4a3.dev225

  ==> Input File <==

--------------------------------------------------------------------------
#psi4
#
memory 32 gb

molecule  {
0 1
  F       -1.6012940    -0.1166020     1.0531380
  F        0.9015100    -1.3283660     1.0533570
  F        0.6995270     1.4450080     1.0533050
  C       -1.4600740    -0.1063430    -0.3396260
  C        0.8221700    -1.2113200    -0.3394270
  C        0.6633405     1.1856825    -0.4247067
  C       -0.6367970    -1.3153920    -0.7539820
  C       -0.8206640     1.2092170    -0.7540300
  C        1.4576450     0.1061460    -0.7538300
  H       -2.4709910    -0.1799750    -0.7606130
  H        1.3914430    -2.0500220    -0.7602750
  H        1.0797340     2.2299680    -0.7603550
  H       -0.6879950    -1.4213320    -1.8456750
  H       -1.0732430    -2.2167570    -0.3126710
  H       -1.3831040     2.0378510    -0.3127500
  H       -0.8866680     1.3065820    -1.8457260
  H        2.4564240     0.1788940    -0.3124150
  H        1.5751120     0.1146800    -1.8455110
units angstrom
no_reorient  #important for SAPT in psi4, default
symmetry c1  #important for SAPT in psi4, default
}

set PROPERTIES_ORIGIN ["COM"]
properties('MP2/aug-cc-pvtz', properties = ['dipole'])
--------------------------------------------------------------------------

    Molecular point group: c1
  Charge       = 0
  Multiplicity = 1
  Basis Set: AUG-CC-PVTZ
    Blend: AUG-CC-PVTZ
  Basis Set: (AUG-CC-PVTZ AUX)
    Blend: AUG-CC-PVTZ-JKFIT

    Orbital Energies [Eh]
    ---------------------

    Doubly Occupied:

       1A    -26.267994     2A    -26.264910     3A    -26.239466
       4A    -11.325269     5A    -11.324182     6A    -11.320402
       7A    -11.249236     8A    -11.247081     9A    -11.245110
      10A     -1.580805    11A     -1.573350    12A     -1.527989
      13A     -1.157611    14A     -1.054194    15A     -1.033828
      16A     -0.882543    17A     -0.864065    18A     -0.771386
      19A     -0.745028    20A     -0.697112    21A     -0.687311
      22A     -0.673296    23A     -0.670813    24A     -0.654806
      25A     -0.635665    26A     -0.630576    27A     -0.627374
      28A     -0.578127    29A     -0.561555    30A     -0.554399
      31A     -0.543781    32A     -0.535570    33A     -0.524825
      34A     -0.522687    35A     -0.470299    36A     -0.441734

  @DF-RHF Final Energy:  -530.93426015832904

   => Energetics <=

    Nuclear Repulsion Energy =            526.5776990968845439
    One-Electron Energy =               -1779.6551601125609068
    Two-Electron Energy =                 722.1432008573473240
    Total Energy =                       -530.9342601583290389
  Basis Set: (AUG-CC-PVTZ AUX)
    Blend: AUG-CC-PVTZ-RI
    Molecular point group: c1

    Geometry (in Angstrom), charge = 0, multiplicity = 1:

       Center              X                  Y                   Z               Mass
    ------------   -----------------  -----------------  -----------------  -----------------
         F           -1.603490643519    -0.105133063976     0.974773626279    18.998403162730
         F            0.899313356481    -1.316897063976     0.974992626279    18.998403162730
         F            0.697330356481     1.456476936024     0.974940626279    18.998403162730
         C           -1.462270643519    -0.094874063976    -0.417990373721    12.000000000000
         C            0.819973356481    -1.199851063976    -0.417791373721    12.000000000000
         C            0.661143856481     1.197151436024    -0.503071073721    12.000000000000
         C           -0.638993643519    -1.303923063976    -0.832346373721    12.000000000000
         C           -0.822860643519     1.220685936024    -0.832394373721    12.000000000000
         C            1.455448356481     0.117614936024    -0.832194373721    12.000000000000
         H           -2.473187643519    -0.168506063976    -0.838977373721     1.007825032230
         H            1.389246356481    -2.038553063976    -0.838639373721     1.007825032230
         H            1.077537356481     2.241436936024    -0.838719373721     1.007825032230
         H           -0.690191643519    -1.409863063976    -1.924039373721     1.007825032230
         H           -1.075439643519    -2.205288063976    -0.391035373721     1.007825032230
         H           -1.385300643519     2.049319936024    -0.391114373721     1.007825032230
         H           -0.888864643519     1.318050936024    -1.924090373721     1.007825032230
         H            2.454227356481     0.190362936024    -0.390779373721     1.007825032230
         H            1.572915356481     0.126148936024    -1.923875373721     1.007825032230

  Basis Set: AUG-CC-PVTZ
    Blend: AUG-CC-PVTZ
  Basis Set: (AUG-CC-PVTZ AUX)
    Blend: AUG-CC-PVTZ-JKFIT
	 Reference Energy          =    -530.9342601583290389 [Eh]
	 Singles Energy            =      -0.0000000000000000 [Eh]
	 Same-Spin Energy          =      -0.4723980048788852 [Eh]
	 Opposite-Spin Energy      =      -1.4912801042975716 [Eh]
	 Correlation Energy        =      -1.9636781091764568 [Eh]
	 Total Energy              =    -532.8979382675055376 [Eh]

	 ================> DF-SCS-MP2 Energies <==================
	-----------------------------------------------------------
	 SCS Same-Spin Scale       =       0.3333333333333333 [-]
	 SCS Opposite-Spin Scale   =       1.2000000000000000 [-]
	 SCS Same-Spin Energy      =      -0.1574660016262951 [Eh]
	 SCS Opposite-Spin Energy  =      -1.7895361251570858 [Eh]
	 SCS Correlation Energy    =      -1.9470021267833808 [Eh]
	 SCS Total Energy          =    -532.8812622851123706 [Eh]
	-----------------------------------------------------------

  Dipole Moment: [D]
     X:     0.0352      Y:    -0.3565      Z:    -5.6104     Total:     5.6218

*** Psi4 exiting successfully. Buy a developer a beer!
