                               Psi4 1.4a3.dev225

  ==> Input File <==

--------------------------------------------------------------------------
#psi4
#
memory 32 gb

molecule  {
0 1
  F       -1.6012940    -0.1166020     1.0531380
  F        0.9015100    -1.3283660     1.0533570
  F        0.6995270     1.4450080     1.0533050
  C       -1.4620915    -0.1064896    -0.3197286
  C        0.8221700    -1.2113200    -0.3394270
  C        0.6379870     1.3176500    -0.3394740
  C       -0.6367970    -1.3153920    -0.7539820
  C       -0.8206640     1.2092170    -0.7540300
  C        1.4576450     0.1061460    -0.7538300
  H       -2.4709910    -0.1799750    -0.7606130
  H        1.3914430    -2.0500220    -0.7602750
  H        1.0797340     2.2299680    -0.7603550
  H       -0.6879950    -1.4213320    -1.8456750
  H       -1.0732430    -2.2167570    -0.3126710
  H       -1.3831040     2.0378510    -0.3127500
  H       -0.8866680     1.3065820    -1.8457260
  H        2.4564240     0.1788940    -0.3124150
  H        1.5751120     0.1146800    -1.8455110
units angstrom
no_reorient  #important for SAPT in psi4, default
symmetry c1  #important for SAPT in psi4, default
}

set PROPERTIES_ORIGIN ["COM"]
properties('MP2/aug-cc-pvtz', properties = ['dipole'])
--------------------------------------------------------------------------

    Molecular point group: c1
  Charge       = 0
  Multiplicity = 1
  Basis Set: AUG-CC-PVTZ
    Blend: AUG-CC-PVTZ
  Basis Set: (AUG-CC-PVTZ AUX)
    Blend: AUG-CC-PVTZ-JKFIT

    Orbital Energies [Eh]
    ---------------------

    Doubly Occupied:

       1A    -26.270215     2A    -26.265287     3A    -26.265285
       4A    -11.320212     5A    -11.319615     6A    -11.319608
       7A    -11.243654     8A    -11.243363     9A    -11.243349
      10A     -1.588330    11A     -1.576883    12A     -1.572671
      13A     -1.135200    14A     -1.031707    15A     -1.031106
      16A     -0.871187    17A     -0.870268    18A     -0.781480
      19A     -0.746162    20A     -0.700210    21A     -0.698141
      22A     -0.673357    23A     -0.660072    24A     -0.658394
      25A     -0.657467    26A     -0.643588    27A     -0.642359
      28A     -0.583878    29A     -0.559641    30A     -0.548040
      31A     -0.547928    32A     -0.523669    33A     -0.523159
      34A     -0.519088    35A     -0.452556    36A     -0.452079

  @DF-RHF Final Energy:  -530.96570577951979

   => Energetics <=

    Nuclear Repulsion Energy =            525.7132282590099521
    One-Electron Energy =               -1777.8794526236372349
    Two-Electron Energy =                 721.2005185851076021
    Total Energy =                       -530.9657057795197943
  Basis Set: (AUG-CC-PVTZ AUX)
    Blend: AUG-CC-PVTZ-RI
    Molecular point group: c1

    Geometry (in Angstrom), charge = 0, multiplicity = 1:

       Center              X                  Y                   Z               Mass
    ------------   -----------------  -----------------  -----------------  -----------------
         F           -1.601111688028    -0.116590301706     0.965636224332    18.998403162730
         F            0.901692311972    -1.328354301706     0.965855224332    18.998403162730
         F            0.699709311972     1.445019698294     0.965803224332    18.998403162730
         C           -1.461909188028    -0.106477901706    -0.407230375668    12.000000000000
         C            0.822352311972    -1.211308301706    -0.426928775668    12.000000000000
         C            0.638169311972     1.317661698294    -0.426975775668    12.000000000000
         C           -0.636614688028    -1.315380301706    -0.841483775668    12.000000000000
         C           -0.820481688028     1.209228698294    -0.841531775668    12.000000000000
         C            1.457827311972     0.106157698294    -0.841331775668    12.000000000000
         H           -2.470808688028    -0.179963301706    -0.848114775668     1.007825032230
         H            1.391625311972    -2.050010301706    -0.847776775668     1.007825032230
         H            1.079916311972     2.229979698294    -0.847856775668     1.007825032230
         H           -0.687812688028    -1.421320301706    -1.933176775668     1.007825032230
         H           -1.073060688028    -2.216745301706    -0.400172775668     1.007825032230
         H           -1.382921688028     2.037862698294    -0.400251775668     1.007825032230
         H           -0.886485688028     1.306593698294    -1.933227775668     1.007825032230
         H            2.456606311972     0.178905698294    -0.399916775668     1.007825032230
         H            1.575294311972     0.114691698294    -1.933012775668     1.007825032230

  Basis Set: AUG-CC-PVTZ
    Blend: AUG-CC-PVTZ
  Basis Set: (AUG-CC-PVTZ AUX)
    Blend: AUG-CC-PVTZ-JKFIT
	 Reference Energy          =    -530.9657057795197943 [Eh]
	 Singles Energy            =      -0.0000000000000000 [Eh]
	 Same-Spin Energy          =      -0.4698841897827339 [Eh]
	 Opposite-Spin Energy      =      -1.4861840232218642 [Eh]
	 Correlation Energy        =      -1.9560682130045981 [Eh]
	 Total Energy              =    -532.9217739925244359 [Eh]

	 ================> DF-SCS-MP2 Energies <==================
	-----------------------------------------------------------
	 SCS Same-Spin Scale       =       0.3333333333333333 [-]
	 SCS Opposite-Spin Scale   =       1.2000000000000000 [-]
	 SCS Same-Spin Energy      =      -0.1566280632609113 [Eh]
	 SCS Opposite-Spin Energy  =      -1.7834208278662369 [Eh]
	 SCS Correlation Energy    =      -1.9400488911271483 [Eh]
	 SCS Total Energy          =    -532.9057546706469566 [Eh]
	-----------------------------------------------------------

  Dipole Moment: [D]
     X:    -0.0212      Y:    -0.0016      Z:    -5.1437     Total:     5.1437

*** Psi4 exiting successfully. Buy a developer a beer!
