                               Psi4 1.4a3.dev225

  ==> Input File <==

--------------------------------------------------------------------------
#psi4
#
memory 32 gb

molecule  {
0 1
  F       -1.6012940    -0.1166020     1.0531380
  F        0.9015100    -1.3283660     1.0533570
  F        0.6995270     1.4450080     1.0533050
  C       -1.4600740    -0.1063430    -0.3396260
  C        0.8221700    -1.2113200    -0.3394270
  C        0.6379870     1.3176500    -0.3394740
  C       -0.6367970    -1.3153920    -0.7539820
  C       -0.8627225     1.1226834    -0.7267717
  C        1.4576450     0.1061460    -0.7538300
  H       -2.4709910    -0.1799750    -0.7606130
  H        1.3914430    -2.0500220    -0.7602750
  H        1.0797340     2.2299680    -0.7603550
  H       -0.6879950    -1.4213320    -1.8456750
  H       -1.0732430    -2.2167570    -0.3126710
  H       -1.3831040     2.0378510    -0.3127500
  H       -0.8866680     1.3065820    -1.8457260
  H        2.4564240     0.1788940    -0.3124150
  H        1.5751120     0.1146800    -1.8455110
units angstrom
no_reorient  #important for SAPT in psi4, default
symmetry c1  #important for SAPT in psi4, default
}

set PROPERTIES_ORIGIN ["COM"]
properties('MP2/aug-cc-pvtz', properties = ['dipole'])
--------------------------------------------------------------------------

    Molecular point group: c1
  Charge       = 0
  Multiplicity = 1
  Basis Set: AUG-CC-PVTZ
    Blend: AUG-CC-PVTZ
  Basis Set: (AUG-CC-PVTZ AUX)
    Blend: AUG-CC-PVTZ-JKFIT

    Orbital Energies [Eh]
    ---------------------

    Doubly Occupied:

       1A    -26.265413     2A    -26.265123     3A    -26.264468
       4A    -11.322957     5A    -11.320425     6A    -11.315492
       7A    -11.247211     8A    -11.244386     9A    -11.243197
      10A     -1.582503    11A     -1.573363    12A     -1.572299
      13A     -1.142851    14A     -1.043102    15A     -1.027775
      16A     -0.877095    17A     -0.866596    18A     -0.778689
      19A     -0.747927    20A     -0.698448    21A     -0.696142
      22A     -0.674876    23A     -0.662496    24A     -0.656980
      25A     -0.655495    26A     -0.642174    27A     -0.638548
      28A     -0.585467    29A     -0.557553    30A     -0.548205
      31A     -0.535379    32A     -0.533496    33A     -0.523628
      34A     -0.516338    35A     -0.464386    36A     -0.443866

  @DF-RHF Final Energy:  -530.95347798426189

   => Energetics <=

    Nuclear Repulsion Energy =            526.7913874951499338
    One-Electron Energy =               -1780.0210291729447363
    Two-Electron Energy =                 722.2761636935330216
    Total Energy =                       -530.9534779842618946
  Basis Set: (AUG-CC-PVTZ AUX)
    Blend: AUG-CC-PVTZ-RI
    Molecular point group: c1

    Geometry (in Angstrom), charge = 0, multiplicity = 1:

       Center              X                  Y                   Z               Mass
    ------------   -----------------  -----------------  -----------------  -----------------
         F           -1.597631517160    -0.109081959737     0.964996450357    18.998403162730
         F            0.905172482840    -1.320845959737     0.965215450357    18.998403162730
         F            0.703189482840     1.452528040263     0.965163450357    18.998403162730
         C           -1.456411517160    -0.098822959737    -0.427767549643    12.000000000000
         C            0.825832482840    -1.203799959737    -0.427568549643    12.000000000000
         C            0.641649482840     1.325170040263    -0.427615549643    12.000000000000
         C           -0.633134517160    -1.307871959737    -0.842123549643    12.000000000000
         C           -0.859060017160     1.130203440263    -0.814913249643    12.000000000000
         C            1.461307482840     0.113666040263    -0.841971549643    12.000000000000
         H           -2.467328517160    -0.172454959737    -0.848754549643     1.007825032230
         H            1.395105482840    -2.042501959737    -0.848416549643     1.007825032230
         H            1.083396482840     2.237488040263    -0.848496549643     1.007825032230
         H           -0.684332517160    -1.413811959737    -1.933816549643     1.007825032230
         H           -1.069580517160    -2.209236959737    -0.400812549643     1.007825032230
         H           -1.379441517160     2.045371040263    -0.400891549643     1.007825032230
         H           -0.883005517160     1.314102040263    -1.933867549643     1.007825032230
         H            2.460086482840     0.186414040263    -0.400556549643     1.007825032230
         H            1.578774482840     0.122200040263    -1.933652549643     1.007825032230

  Basis Set: AUG-CC-PVTZ
    Blend: AUG-CC-PVTZ
  Basis Set: (AUG-CC-PVTZ AUX)
    Blend: AUG-CC-PVTZ-JKFIT
	 Reference Energy          =    -530.9534779842618946 [Eh]
	 Singles Energy            =      -0.0000000000000000 [Eh]
	 Same-Spin Energy          =      -0.4709404748496500 [Eh]
	 Opposite-Spin Energy      =      -1.4878947114121268 [Eh]
	 Correlation Energy        =      -1.9588351862617768 [Eh]
	 Total Energy              =    -532.9123131705237029 [Eh]

	 ================> DF-SCS-MP2 Energies <==================
	-----------------------------------------------------------
	 SCS Same-Spin Scale       =       0.3333333333333333 [-]
	 SCS Opposite-Spin Scale   =       1.2000000000000000 [-]
	 SCS Same-Spin Energy      =      -0.1569801582832167 [Eh]
	 SCS Opposite-Spin Energy  =      -1.7854736536945521 [Eh]
	 SCS Correlation Energy    =      -1.9424538119777688 [Eh]
	 SCS Total Energy          =    -532.8959317962396653 [Eh]
	-----------------------------------------------------------

  Dipole Moment: [D]
     X:     0.0449      Y:     0.0271      Z:    -5.2362     Total:     5.2364

*** Psi4 exiting successfully. Buy a developer a beer!
