                               Psi4 1.4a3.dev225

  ==> Input File <==

--------------------------------------------------------------------------
#psi4
#
memory 32 gb

molecule  {
0 1
  F       -1.6012940    -0.1166020     1.0531380
  F        0.9015100    -1.3283660     1.0533570
  F        0.6995270     1.4450080     1.0533050
  C       -1.4600740    -0.1063430    -0.3396260
  C        0.8221700    -1.2113200    -0.3394270
  C        0.6482312     1.2737215    -0.3674254
  C       -0.6367970    -1.3153920    -0.7539820
  C       -0.8206640     1.2092170    -0.7540300
  C        1.4576450     0.1061460    -0.7538300
  H       -2.4709910    -0.1799750    -0.7606130
  H        1.3914430    -2.0500220    -0.7602750
  H        1.0797340     2.2299680    -0.7603550
  H       -0.6879950    -1.4213320    -1.8456750
  H       -1.0732430    -2.2167570    -0.3126710
  H       -1.3831040     2.0378510    -0.3127500
  H       -0.8866680     1.3065820    -1.8457260
  H        2.4564240     0.1788940    -0.3124150
  H        1.5751120     0.1146800    -1.8455110
units angstrom
no_reorient  #important for SAPT in psi4, default
symmetry c1  #important for SAPT in psi4, default
}

set PROPERTIES_ORIGIN ["COM"]
properties('MP2/aug-cc-pvtz', properties = ['dipole'])
--------------------------------------------------------------------------

    Molecular point group: c1
  Charge       = 0
  Multiplicity = 1
  Basis Set: AUG-CC-PVTZ
    Blend: AUG-CC-PVTZ
  Basis Set: (AUG-CC-PVTZ AUX)
    Blend: AUG-CC-PVTZ-JKFIT

    Orbital Energies [Eh]
    ---------------------

    Doubly Occupied:

       1A    -26.266126     2A    -26.265082     3A    -26.257110
       4A    -11.321413     5A    -11.321212     6A    -11.320143
       7A    -11.245364     8A    -11.244980     9A    -11.244684
      10A     -1.580299    11A     -1.572891    12A     -1.558751
      13A     -1.142469    14A     -1.039585    15A     -1.032940
      16A     -0.874724    17A     -0.868544    18A     -0.776821
      19A     -0.744990    20A     -0.696511    21A     -0.692240
      22A     -0.670808    23A     -0.662968    24A     -0.655579
      25A     -0.650089    26A     -0.638178    27A     -0.636678
      28A     -0.581751    29A     -0.557327    30A     -0.549886
      31A     -0.547352    32A     -0.531197    33A     -0.524099
      34A     -0.523095    35A     -0.461302    36A     -0.451026

  @DF-RHF Final Energy:  -530.96126514081038

   => Energetics <=

    Nuclear Repulsion Energy =            525.8643185730744563
    One-Electron Energy =               -1778.2347359884140587
    Two-Electron Energy =                 721.4091522745291059
    Total Energy =                       -530.9612651408103829
  Basis Set: (AUG-CC-PVTZ AUX)
    Blend: AUG-CC-PVTZ-RI
    Molecular point group: c1

    Geometry (in Angstrom), charge = 0, multiplicity = 1:

       Center              X                  Y                   Z               Mass
    ------------   -----------------  -----------------  -----------------  -----------------
         F           -1.602177415935    -0.112784989827     0.969795011571    18.998403162730
         F            0.900626584065    -1.324548989827     0.970014011571    18.998403162730
         F            0.698643584065     1.448825010173     0.969962011571    18.998403162730
         C           -1.460957415935    -0.102525989827    -0.422968988429    12.000000000000
         C            0.821286584065    -1.207502989827    -0.422769988429    12.000000000000
         C            0.647347784065     1.277538510173    -0.450768388429    12.000000000000
         C           -0.637680415935    -1.311574989827    -0.837324988429    12.000000000000
         C           -0.821547415935     1.213034010173    -0.837372988429    12.000000000000
         C            1.456761584065     0.109963010173    -0.837172988429    12.000000000000
         H           -2.471874415935    -0.176157989827    -0.843955988429     1.007825032230
         H            1.390559584065    -2.046204989827    -0.843617988429     1.007825032230
         H            1.078850584065     2.233785010173    -0.843697988429     1.007825032230
         H           -0.688878415935    -1.417514989827    -1.929017988429     1.007825032230
         H           -1.074126415935    -2.212939989827    -0.396013988429     1.007825032230
         H           -1.383987415935     2.041668010173    -0.396092988429     1.007825032230
         H           -0.887551415935     1.310399010173    -1.929068988429     1.007825032230
         H            2.455540584065     0.182711010173    -0.395757988429     1.007825032230
         H            1.574228584065     0.118497010173    -1.928853988429     1.007825032230

  Basis Set: AUG-CC-PVTZ
    Blend: AUG-CC-PVTZ
  Basis Set: (AUG-CC-PVTZ AUX)
    Blend: AUG-CC-PVTZ-JKFIT
	 Reference Energy          =    -530.9612651408103829 [Eh]
	 Singles Energy            =      -0.0000000000000000 [Eh]
	 Same-Spin Energy          =      -0.4705623279378042 [Eh]
	 Opposite-Spin Energy      =      -1.4877813723831994 [Eh]
	 Correlation Energy        =      -1.9583437003210036 [Eh]
	 Total Energy              =    -532.9196088411314349 [Eh]

	 ================> DF-SCS-MP2 Energies <==================
	-----------------------------------------------------------
	 SCS Same-Spin Scale       =       0.3333333333333333 [-]
	 SCS Opposite-Spin Scale   =       1.2000000000000000 [-]
	 SCS Same-Spin Energy      =      -0.1568541093126014 [Eh]
	 SCS Opposite-Spin Energy  =      -1.7853376468598392 [Eh]
	 SCS Correlation Energy    =      -1.9421917561724407 [Eh]
	 SCS Total Energy          =    -532.9034568969827887 [Eh]
	-----------------------------------------------------------

  Dipole Moment: [D]
     X:     0.0149      Y:    -0.1143      Z:    -5.3515     Total:     5.3527

*** Psi4 exiting successfully. Buy a developer a beer!
