                               Psi4 1.4a3.dev225

  ==> Input File <==

--------------------------------------------------------------------------
#psi4
#
memory 32 gb

molecule  {
0 1
  F       -1.6012940    -0.1166020     1.0531380
  F        0.9015100    -1.3283660     1.0533570
  F        0.6995270     1.4450080     1.0533050
  C       -1.4600740    -0.1063430    -0.3396260
  C        0.8221700    -1.2113200    -0.3394270
  C        0.6379870     1.3176500    -0.3394740
  C       -0.6367970    -1.3153920    -0.7539820
  C       -0.8122523     1.2265237    -0.7594817
  C        1.4576450     0.1061460    -0.7538300
  H       -2.4709910    -0.1799750    -0.7606130
  H        1.3914430    -2.0500220    -0.7602750
  H        1.0797340     2.2299680    -0.7603550
  H       -0.6879950    -1.4213320    -1.8456750
  H       -1.0732430    -2.2167570    -0.3126710
  H       -1.3831040     2.0378510    -0.3127500
  H       -0.8866680     1.3065820    -1.8457260
  H        2.4564240     0.1788940    -0.3124150
  H        1.5751120     0.1146800    -1.8455110
units angstrom
no_reorient  #important for SAPT in psi4, default
symmetry c1  #important for SAPT in psi4, default
}

set PROPERTIES_ORIGIN ["COM"]
properties('MP2/aug-cc-pvtz', properties = ['dipole'])
--------------------------------------------------------------------------

    Molecular point group: c1
  Charge       = 0
  Multiplicity = 1
  Basis Set: AUG-CC-PVTZ
    Blend: AUG-CC-PVTZ
  Basis Set: (AUG-CC-PVTZ AUX)
    Blend: AUG-CC-PVTZ-JKFIT

    Orbital Energies [Eh]
    ---------------------

    Doubly Occupied:

       1A    -26.265416     2A    -26.265240     3A    -26.265194
       4A    -11.320824     5A    -11.320056     6A    -11.319655
       7A    -11.244210     8A    -11.243966     9A    -11.243623
      10A     -1.581975    11A     -1.572654    12A     -1.572436
      13A     -1.135883    14A     -1.033700    15A     -1.030934
      16A     -0.871961    17A     -0.870097    18A     -0.780028
      19A     -0.744985    20A     -0.697082    21A     -0.696686
      22A     -0.671227    23A     -0.660296    24A     -0.656645
      25A     -0.656006    26A     -0.641313    27A     -0.640602
      28A     -0.583886    29A     -0.559330    30A     -0.550274
      31A     -0.548128    32A     -0.524880    33A     -0.523704
      34A     -0.519477    35A     -0.456068    36A     -0.451600

  @DF-RHF Final Energy:  -530.96523776548452

   => Energetics <=

    Nuclear Repulsion Energy =            525.2956495811025661
    One-Electron Energy =               -1777.0816920937065788
    Two-Electron Energy =                 720.8208047471196096
    Total Energy =                       -530.9652377654845168
  Basis Set: (AUG-CC-PVTZ AUX)
    Blend: AUG-CC-PVTZ-RI
    Molecular point group: c1

    Geometry (in Angstrom), charge = 0, multiplicity = 1:

       Center              X                  Y                   Z               Mass
    ------------   -----------------  -----------------  -----------------  -----------------
         F           -1.602018143861    -0.118107258480     0.967839446014    18.998403162730
         F            0.900785856139    -1.329871258480     0.968058446014    18.998403162730
         F            0.698802856139     1.443502741520     0.968006446014    18.998403162730
         C           -1.460798143861    -0.107848258480    -0.424924553986    12.000000000000
         C            0.821445856139    -1.212825258480    -0.424725553986    12.000000000000
         C            0.637262856139     1.316144741520    -0.424772553986    12.000000000000
         C           -0.637521143861    -1.316897258480    -0.839280553986    12.000000000000
         C           -0.812976443861     1.225018441520    -0.844780253986    12.000000000000
         C            1.456920856139     0.104640741520    -0.839128553986    12.000000000000
         H           -2.471715143861    -0.181480258480    -0.845911553986     1.007825032230
         H            1.390718856139    -2.051527258480    -0.845573553986     1.007825032230
         H            1.079009856139     2.228462741520    -0.845653553986     1.007825032230
         H           -0.688719143861    -1.422837258480    -1.930973553986     1.007825032230
         H           -1.073967143861    -2.218262258480    -0.397969553986     1.007825032230
         H           -1.383828143861     2.036345741520    -0.398048553986     1.007825032230
         H           -0.887392143861     1.305076741520    -1.931024553986     1.007825032230
         H            2.455699856139     0.177388741520    -0.397713553986     1.007825032230
         H            1.574387856139     0.113174741520    -1.930809553986     1.007825032230

  Basis Set: AUG-CC-PVTZ
    Blend: AUG-CC-PVTZ
  Basis Set: (AUG-CC-PVTZ AUX)
    Blend: AUG-CC-PVTZ-JKFIT
	 Reference Energy          =    -530.9652377654845168 [Eh]
	 Singles Energy            =      -0.0000000000000000 [Eh]
	 Same-Spin Energy          =      -0.4699230193285984 [Eh]
	 Opposite-Spin Energy      =      -1.4865631857780088 [Eh]
	 Correlation Energy        =      -1.9564862051066072 [Eh]
	 Total Energy              =    -532.9217239705910742 [Eh]

	 ================> DF-SCS-MP2 Energies <==================
	-----------------------------------------------------------
	 SCS Same-Spin Scale       =       0.3333333333333333 [-]
	 SCS Opposite-Spin Scale   =       1.2000000000000000 [-]
	 SCS Same-Spin Energy      =      -0.1566410064428661 [Eh]
	 SCS Opposite-Spin Energy  =      -1.7838758229336105 [Eh]
	 SCS Correlation Energy    =      -1.9405168293764765 [Eh]
	 SCS Total Energy          =    -532.9057545948610368 [Eh]
	-----------------------------------------------------------

  Dipole Moment: [D]
     X:    -0.0071      Y:    -0.0061      Z:    -5.2214     Total:     5.2214

*** Psi4 exiting successfully. Buy a developer a beer!
