                               Psi4 1.4a3.dev225

  ==> Input File <==

--------------------------------------------------------------------------
#psi4
#
memory 32 gb

molecule  {
0 1
  F       -1.6012940    -0.1166020     1.0531380
  F        0.9015100    -1.3283660     1.0533570
  F        0.6995270     1.4450080     1.0533050
  C       -1.4600740    -0.1063430    -0.3396260
  C        0.8221700    -1.2113200    -0.3394270
  C        0.6379870     1.3176500    -0.3394740
  C       -0.6367970    -1.3153920    -0.7539820
  C       -0.8206640     1.2092170    -0.7540300
  C        1.4576450     0.1061460    -0.7538300
  H       -2.4709910    -0.1799750    -0.7606130
  H        1.3914430    -2.0500220    -0.7602750
  H        1.0797340     2.2299680    -0.7603550
  H       -0.6879950    -1.4213320    -1.8456750
  H       -1.0732430    -2.2167570    -0.3126710
  H       -1.3831040     2.0378510    -0.3127500
  H       -0.8896736     1.3110157    -1.8954383
  H        2.4564240     0.1788940    -0.3124150
  H        1.5751120     0.1146800    -1.8455110
units angstrom
no_reorient  #important for SAPT in psi4, default
symmetry c1  #important for SAPT in psi4, default
}

set PROPERTIES_ORIGIN ["COM"]
properties('MP2/aug-cc-pvtz', properties = ['dipole'])
--------------------------------------------------------------------------

    Molecular point group: c1
  Charge       = 0
  Multiplicity = 1
  Basis Set: AUG-CC-PVTZ
    Blend: AUG-CC-PVTZ
  Basis Set: (AUG-CC-PVTZ AUX)
    Blend: AUG-CC-PVTZ-JKFIT

    Orbital Energies [Eh]
    ---------------------

    Doubly Occupied:

       1A    -26.265808     2A    -26.265806     3A    -26.265307
       4A    -11.320589     5A    -11.320582     6A    -11.320153
       7A    -11.250074     8A    -11.244040     9A    -11.244027
      10A     -1.582430    11A     -1.573122    12A     -1.572823
      13A     -1.136130    14A     -1.032816    15A     -1.030988
      16A     -0.871449    17A     -0.869910    18A     -0.778465
      19A     -0.745238    20A     -0.697167    21A     -0.695291
      22A     -0.671977    23A     -0.660007    24A     -0.657045
      25A     -0.656579    26A     -0.641222    27A     -0.640469
      28A     -0.584323    29A     -0.556874    30A     -0.548178
      31A     -0.543905    32A     -0.524444    33A     -0.522783
      34A     -0.521174    35A     -0.454765    36A     -0.454637

  @DF-RHF Final Energy:  -530.96333540804972

   => Energetics <=

    Nuclear Repulsion Energy =            525.2739518171952113
    One-Electron Energy =               -1777.0333873195465912
    Two-Electron Energy =                 720.7961000943016643
    Total Energy =                       -530.9633354080497156
  Basis Set: (AUG-CC-PVTZ AUX)
    Blend: AUG-CC-PVTZ-RI
    Molecular point group: c1

    Geometry (in Angstrom), charge = 0, multiplicity = 1:

       Center              X                  Y                   Z               Mass
    ------------   -----------------  -----------------  -----------------  -----------------
         F           -1.601265099708    -0.116635407744     0.967728490817    18.998403162730
         F            0.901538900292    -1.328399407744     0.967947490817    18.998403162730
         F            0.699555900292     1.444974592256     0.967895490817    18.998403162730
         C           -1.460045099708    -0.106376407744    -0.425035509183    12.000000000000
         C            0.822198900292    -1.211353407744    -0.424836509183    12.000000000000
         C            0.638015900292     1.317616592256    -0.424883509183    12.000000000000
         C           -0.636768099708    -1.315425407744    -0.839391509183    12.000000000000
         C           -0.820635099708     1.209183592256    -0.839439509183    12.000000000000
         C            1.457673900292     0.106112592256    -0.839239509183    12.000000000000
         H           -2.470962099708    -0.180008407744    -0.846022509183     1.007825032230
         H            1.391471900292    -2.050055407744    -0.845684509183     1.007825032230
         H            1.079762900292     2.229934592256    -0.845764509183     1.007825032230
         H           -0.687966099708    -1.421365407744    -1.931084509183     1.007825032230
         H           -1.073214099708    -2.216790407744    -0.398080509183     1.007825032230
         H           -1.383075099708     2.037817592256    -0.398159509183     1.007825032230
         H           -0.889644699708     1.310982292256    -1.980847809183     1.007825032230
         H            2.456452900292     0.178860592256    -0.397824509183     1.007825032230
         H            1.575140900292     0.114646592256    -1.930920509183     1.007825032230

  Basis Set: AUG-CC-PVTZ
    Blend: AUG-CC-PVTZ
  Basis Set: (AUG-CC-PVTZ AUX)
    Blend: AUG-CC-PVTZ-JKFIT
	 Reference Energy          =    -530.9633354080497156 [Eh]
	 Singles Energy            =      -0.0000000000000000 [Eh]
	 Same-Spin Energy          =      -0.4700156918319567 [Eh]
	 Opposite-Spin Energy      =      -1.4869806862979524 [Eh]
	 Correlation Energy        =      -1.9569963781299091 [Eh]
	 Total Energy              =    -532.9203317861796450 [Eh]

	 ================> DF-SCS-MP2 Energies <==================
	-----------------------------------------------------------
	 SCS Same-Spin Scale       =       0.3333333333333333 [-]
	 SCS Opposite-Spin Scale   =       1.2000000000000000 [-]
	 SCS Same-Spin Energy      =      -0.1566718972773189 [Eh]
	 SCS Opposite-Spin Energy  =      -1.7843768235575428 [Eh]
	 SCS Correlation Energy    =      -1.9410487208348617 [Eh]
	 SCS Total Energy          =    -532.9043841288845442 [Eh]
	-----------------------------------------------------------

  Dipole Moment: [D]
     X:     0.0026      Y:    -0.0032      Z:    -5.1999     Total:     5.1999

*** Psi4 exiting successfully. Buy a developer a beer!
