                               Psi4 1.4a3.dev225

  ==> Input File <==

--------------------------------------------------------------------------
#psi4
#
memory 32 gb

molecule  {
0 1
  F       -1.6012940    -0.1166020     1.0531380
  F        0.9015100    -1.3283660     1.0533570
  F        0.6995270     1.4450080     1.0533050
  C       -1.4600740    -0.1063430    -0.3396260
  C        0.8221700    -1.2113200    -0.3394270
  C        0.6379870     1.3176500    -0.3394740
  C       -0.6367970    -1.3153920    -0.7539820
  C       -0.7365470     1.3822843    -0.8085465
  C        1.4576450     0.1061460    -0.7538300
  H       -2.4709910    -0.1799750    -0.7606130
  H        1.3914430    -2.0500220    -0.7602750
  H        1.0797340     2.2299680    -0.7603550
  H       -0.6879950    -1.4213320    -1.8456750
  H       -1.0732430    -2.2167570    -0.3126710
  H       -1.3831040     2.0378510    -0.3127500
  H       -0.8866680     1.3065820    -1.8457260
  H        2.4564240     0.1788940    -0.3124150
  H        1.5751120     0.1146800    -1.8455110
units angstrom
no_reorient  #important for SAPT in psi4, default
symmetry c1  #important for SAPT in psi4, default
}

set PROPERTIES_ORIGIN ["COM"]
properties('MP2/aug-cc-pvtz', properties = ['dipole'])
--------------------------------------------------------------------------

    Molecular point group: c1
  Charge       = 0
  Multiplicity = 1
  Basis Set: AUG-CC-PVTZ
    Blend: AUG-CC-PVTZ
  Basis Set: (AUG-CC-PVTZ AUX)
    Blend: AUG-CC-PVTZ-JKFIT

    Orbital Energies [Eh]
    ---------------------

    Doubly Occupied:

       1A    -26.267646     2A    -26.265313     3A    -26.265004
       4A    -11.324332     5A    -11.319683     6A    -11.317614
       7A    -11.246328     8A    -11.244817     9A    -11.243713
      10A     -1.581981    11A     -1.573431    12A     -1.571229
      13A     -1.131802    14A     -1.043037    15A     -1.019557
      16A     -0.877625    17A     -0.862700    18A     -0.782309
      19A     -0.741426    20A     -0.699328    21A     -0.696486
      22A     -0.671303    23A     -0.667956    24A     -0.656781
      25A     -0.652511    26A     -0.642694    27A     -0.636383
      28A     -0.583683    29A     -0.577274    30A     -0.554970
      31A     -0.548279    32A     -0.533559    33A     -0.524022
      34A     -0.504386    35A     -0.465914    36A     -0.414542

  @DF-RHF Final Energy:  -530.93494327585881

   => Energetics <=

    Nuclear Repulsion Energy =            523.1553673064428267
    One-Electron Energy =               -1772.7613842855278108
    Two-Electron Energy =                 718.6710737032260568
    Total Energy =                       -530.9349432758588136
  Basis Set: (AUG-CC-PVTZ AUX)
    Blend: AUG-CC-PVTZ-RI
    Molecular point group: c1

    Geometry (in Angstrom), charge = 0, multiplicity = 1:

       Center              X                  Y                   Z               Mass
    ------------   -----------------  -----------------  -----------------  -----------------
         F           -1.608598083912    -0.131645219632     0.972103922115    18.998403162730
         F            0.894205916088    -1.343409219632     0.972322922115    18.998403162730
         F            0.692222916088     1.429964780368     0.972270922115    18.998403162730
         C           -1.467378083912    -0.121386219632    -0.420660077885    12.000000000000
         C            0.814865916088    -1.226363219632    -0.420461077885    12.000000000000
         C            0.630682916088     1.302606780368    -0.420508077885    12.000000000000
         C           -0.644101083912    -1.330435219632    -0.835016077885    12.000000000000
         C           -0.743851083912     1.367241080368    -0.889580577885    12.000000000000
         C            1.450340916088     0.091102780368    -0.834864077885    12.000000000000
         H           -2.478295083912    -0.195018219632    -0.841647077885     1.007825032230
         H            1.384138916088    -2.065065219632    -0.841309077885     1.007825032230
         H            1.072429916088     2.214924780368    -0.841389077885     1.007825032230
         H           -0.695299083912    -1.436375219632    -1.926709077885     1.007825032230
         H           -1.080547083912    -2.231800219632    -0.393705077885     1.007825032230
         H           -1.390408083912     2.022807780368    -0.393784077885     1.007825032230
         H           -0.893972083912     1.291538780368    -1.926760077885     1.007825032230
         H            2.449119916088     0.163850780368    -0.393449077885     1.007825032230
         H            1.567807916088     0.099636780368    -1.926545077885     1.007825032230

  Basis Set: AUG-CC-PVTZ
    Blend: AUG-CC-PVTZ
  Basis Set: (AUG-CC-PVTZ AUX)
    Blend: AUG-CC-PVTZ-JKFIT
	 Reference Energy          =    -530.9349432758588136 [Eh]
	 Singles Energy            =      -0.0000000000000000 [Eh]
	 Same-Spin Energy          =      -0.4706739735016343 [Eh]
	 Opposite-Spin Energy      =      -1.4887692953719576 [Eh]
	 Correlation Energy        =      -1.9594432688735919 [Eh]
	 Total Energy              =    -532.8943865447323560 [Eh]

	 ================> DF-SCS-MP2 Energies <==================
	-----------------------------------------------------------
	 SCS Same-Spin Scale       =       0.3333333333333333 [-]
	 SCS Opposite-Spin Scale   =       1.2000000000000000 [-]
	 SCS Same-Spin Energy      =      -0.1568913245005448 [Eh]
	 SCS Opposite-Spin Energy  =      -1.7865231544463491 [Eh]
	 SCS Correlation Energy    =      -1.9434144789468939 [Eh]
	 SCS Total Energy          =    -532.8783577548057337 [Eh]
	-----------------------------------------------------------

  Dipole Moment: [D]
     X:    -0.0573      Y:    -0.0737      Z:    -5.1858     Total:     5.1866

*** Psi4 exiting successfully. Buy a developer a beer!
