                               Psi4 1.4a3.dev225

  ==> Input File <==

--------------------------------------------------------------------------
#psi4
#
memory 32 gb

molecule  {
0 1
  F       -1.6012940    -0.1166020     1.0531380
  F        0.9015100    -1.3283660     1.0533570
  F        0.6995270     1.4450080     1.0533050
  C       -1.4600740    -0.1063430    -0.3396260
  C        0.8221700    -1.2113200    -0.3394270
  C        0.6379870     1.3176500    -0.3394740
  C       -0.6367970    -1.3153920    -0.7539820
  C       -0.8206640     1.2092170    -0.7540300
  C        1.4576450     0.1061460    -0.7538300
  H       -2.4709910    -0.1799750    -0.7606130
  H        1.3914430    -2.0500220    -0.7602750
  H        0.9992367     2.0637210    -0.6836600
  H       -0.6879950    -1.4213320    -1.8456750
  H       -1.0732430    -2.2167570    -0.3126710
  H       -1.3831040     2.0378510    -0.3127500
  H       -0.8866680     1.3065820    -1.8457260
  H        2.4564240     0.1788940    -0.3124150
  H        1.5751120     0.1146800    -1.8455110
units angstrom
no_reorient  #important for SAPT in psi4, default
symmetry c1  #important for SAPT in psi4, default
}

set PROPERTIES_ORIGIN ["COM"]
properties('MP2/aug-cc-pvtz', properties = ['dipole'])
--------------------------------------------------------------------------

    Molecular point group: c1
  Charge       = 0
  Multiplicity = 1
  Basis Set: AUG-CC-PVTZ
    Blend: AUG-CC-PVTZ
  Basis Set: (AUG-CC-PVTZ AUX)
    Blend: AUG-CC-PVTZ-JKFIT

    Orbital Energies [Eh]
    ---------------------

    Doubly Occupied:

       1A    -26.264475     2A    -26.264473     3A    -26.262055
       4A    -11.319282     5A    -11.319274     6A    -11.295133
       7A    -11.243325     8A    -11.242841     9A    -11.242826
      10A     -1.580859    11A     -1.571795    12A     -1.570950
      13A     -1.138971    14A     -1.042083    15A     -1.031784
      16A     -0.890885    17A     -0.870510    18A     -0.785983
      19A     -0.751992    20A     -0.700212    21A     -0.695870
      22A     -0.670480    23A     -0.663901    24A     -0.657686
      25A     -0.655662    26A     -0.641710    27A     -0.639820
      28A     -0.592468    29A     -0.557804    30A     -0.549040
      31A     -0.547559    32A     -0.526970    33A     -0.523077
      34A     -0.520027    35A     -0.461434    36A     -0.453382

  @DF-RHF Final Energy:  -530.93367329940020

   => Energetics <=

    Nuclear Repulsion Energy =            526.8854527610127434
    One-Electron Energy =               -1780.1450567217245862
    Two-Electron Energy =                 722.3259306613117587
    Total Energy =                       -530.9336732994001977
  Basis Set: (AUG-CC-PVTZ AUX)
    Blend: AUG-CC-PVTZ-RI
    Molecular point group: c1

    Geometry (in Angstrom), charge = 0, multiplicity = 1:

       Center              X                  Y                   Z               Mass
    ------------   -----------------  -----------------  -----------------  -----------------
         F           -1.600699440664    -0.115389505516     0.966805767060    18.998403162730
         F            0.902104559336    -1.327153505516     0.967024767060    18.998403162730
         F            0.700121559336     1.446220494484     0.966972767060    18.998403162730
         C           -1.459479440664    -0.105130505516    -0.425958232940    12.000000000000
         C            0.822764559336    -1.210107505516    -0.425759232940    12.000000000000
         C            0.638581559336     1.318862494484    -0.425806232940    12.000000000000
         C           -0.636202440664    -1.314179505516    -0.840314232940    12.000000000000
         C           -0.820069440664     1.210429494484    -0.840362232940    12.000000000000
         C            1.458239559336     0.107358494484    -0.840162232940    12.000000000000
         H           -2.470396440664    -0.178762505516    -0.846945232940     1.007825032230
         H            1.392037559336    -2.048809505516    -0.846607232940     1.007825032230
         H            0.999831259336     2.064933494484    -0.769992232940     1.007825032230
         H           -0.687400440664    -1.420119505516    -1.932007232940     1.007825032230
         H           -1.072648440664    -2.215544505516    -0.399003232940     1.007825032230
         H           -1.382509440664     2.039063494484    -0.399082232940     1.007825032230
         H           -0.886073440664     1.307794494484    -1.932058232940     1.007825032230
         H            2.457018559336     0.180106494484    -0.398747232940     1.007825032230
         H            1.575706559336     0.115892494484    -1.931843232940     1.007825032230

  Basis Set: AUG-CC-PVTZ
    Blend: AUG-CC-PVTZ
  Basis Set: (AUG-CC-PVTZ AUX)
    Blend: AUG-CC-PVTZ-JKFIT
	 Reference Energy          =    -530.9336732994001977 [Eh]
	 Singles Energy            =      -0.0000000000000000 [Eh]
	 Same-Spin Energy          =      -0.4697902731553897 [Eh]
	 Opposite-Spin Energy      =      -1.4855379502514716 [Eh]
	 Correlation Energy        =      -1.9553282234068612 [Eh]
	 Total Energy              =    -532.8890015228070069 [Eh]

	 ================> DF-SCS-MP2 Energies <==================
	-----------------------------------------------------------
	 SCS Same-Spin Scale       =       0.3333333333333333 [-]
	 SCS Opposite-Spin Scale   =       1.2000000000000000 [-]
	 SCS Same-Spin Energy      =      -0.1565967577184632 [Eh]
	 SCS Opposite-Spin Energy  =      -1.7826455403017658 [Eh]
	 SCS Correlation Energy    =      -1.9392422980202291 [Eh]
	 SCS Total Energy          =    -532.8729155974203877 [Eh]
	-----------------------------------------------------------

  Dipole Moment: [D]
     X:     0.0385      Y:     0.0787      Z:    -5.2790     Total:     5.2798

*** Psi4 exiting successfully. Buy a developer a beer!
