                               Psi4 1.4a3.dev225

  ==> Input File <==

--------------------------------------------------------------------------
#psi4
#
memory 32 gb

molecule  {
0 1
  F       -1.6012940    -0.1166020     1.0531380
  F        0.9015100    -1.3283660     1.0533570
  F        0.6995270     1.4450080     1.0533050
  C       -1.4600740    -0.1063430    -0.3396260
  C        0.8221700    -1.2113200    -0.3394270
  C        0.6379870     1.3176500    -0.3394740
  C       -0.6367970    -1.3153920    -0.7539820
  C       -0.8206640     1.2092170    -0.7540300
  C        1.4576450     0.1061460    -0.7538300
  H       -2.4709910    -0.1799750    -0.7606130
  H        1.3914430    -2.0500220    -0.7602750
  H        1.0797340     2.2299680    -0.7603550
  H       -0.6879950    -1.4213320    -1.8456750
  H       -1.0732430    -2.2167570    -0.3126710
  H       -1.3990172     2.0613046    -0.3836850
  H       -0.8866680     1.3065820    -1.8457260
  H        2.4564240     0.1788940    -0.3124150
  H        1.5751120     0.1146800    -1.8455110
units angstrom
no_reorient  #important for SAPT in psi4, default
symmetry c1  #important for SAPT in psi4, default
}

set PROPERTIES_ORIGIN ["COM"]
properties('MP2/aug-cc-pvtz', properties = ['dipole'])
--------------------------------------------------------------------------

    Molecular point group: c1
  Charge       = 0
  Multiplicity = 1
  Basis Set: AUG-CC-PVTZ
    Blend: AUG-CC-PVTZ
  Basis Set: (AUG-CC-PVTZ AUX)
    Blend: AUG-CC-PVTZ-JKFIT

    Orbital Energies [Eh]
    ---------------------

    Doubly Occupied:

       1A    -26.265267     2A    -26.264894     3A    -26.264892
       4A    -11.320549     5A    -11.320542     6A    -11.320220
       7A    -11.244253     8A    -11.244240     9A    -11.244088
      10A     -1.581835    11A     -1.572498    12A     -1.572274
      13A     -1.136715    14A     -1.032815    15A     -1.032543
      16A     -0.871504    17A     -0.871138    18A     -0.780237
      19A     -0.745969    20A     -0.696787    21A     -0.696783
      22A     -0.671398    23A     -0.659955    24A     -0.656487
      25A     -0.656170    26A     -0.641677    27A     -0.640861
      28A     -0.584016    29A     -0.557458    30A     -0.548183
      31A     -0.544020    32A     -0.525949    33A     -0.524286
      34A     -0.520816    35A     -0.455756    36A     -0.454486

  @DF-RHF Final Energy:  -530.96502942640848

   => Energetics <=

    Nuclear Repulsion Energy =            525.4039799097092782
    One-Electron Energy =               -1777.2948934988894507
    Two-Electron Energy =                 720.9258841627716947
    Total Energy =                       -530.9650294264084778
  Basis Set: (AUG-CC-PVTZ AUX)
    Blend: AUG-CC-PVTZ-RI
    Molecular point group: c1

    Geometry (in Angstrom), charge = 0, multiplicity = 1:

       Center              X                  Y                   Z               Mass
    ------------   -----------------  -----------------  -----------------  -----------------
         F           -1.601170879286    -0.116774245561     0.967883408211    18.998403162730
         F            0.901633120714    -1.328538245561     0.968102408211    18.998403162730
         F            0.699650120714     1.444835754439     0.968050408211    18.998403162730
         C           -1.459950879286    -0.106515245561    -0.424880591789    12.000000000000
         C            0.822293120714    -1.211492245561    -0.424681591789    12.000000000000
         C            0.638110120714     1.317477754439    -0.424728591789    12.000000000000
         C           -0.636673879286    -1.315564245561    -0.839236591789    12.000000000000
         C           -0.820540879286     1.209044754439    -0.839284591789    12.000000000000
         C            1.457768120714     0.105973754439    -0.839084591789    12.000000000000
         H           -2.470867879286    -0.180147245561    -0.845867591789     1.007825032230
         H            1.391566120714    -2.050194245561    -0.845529591789     1.007825032230
         H            1.079857120714     2.229795754439    -0.845609591789     1.007825032230
         H           -0.687871879286    -1.421504245561    -1.930929591789     1.007825032230
         H           -1.073119879286    -2.216929245561    -0.397925591789     1.007825032230
         H           -1.398894079286     2.061132354439    -0.468939591789     1.007825032230
         H           -0.886544879286     1.306409754439    -1.930980591789     1.007825032230
         H            2.456547120714     0.178721754439    -0.397669591789     1.007825032230
         H            1.575235120714     0.114507754439    -1.930765591789     1.007825032230

  Basis Set: AUG-CC-PVTZ
    Blend: AUG-CC-PVTZ
  Basis Set: (AUG-CC-PVTZ AUX)
    Blend: AUG-CC-PVTZ-JKFIT
	 Reference Energy          =    -530.9650294264084778 [Eh]
	 Singles Energy            =      -0.0000000000000000 [Eh]
	 Same-Spin Energy          =      -0.4699876128470252 [Eh]
	 Opposite-Spin Energy      =      -1.4865603775360730 [Eh]
	 Correlation Energy        =      -1.9565479903830982 [Eh]
	 Total Energy              =    -532.9215774167915924 [Eh]

	 ================> DF-SCS-MP2 Energies <==================
	-----------------------------------------------------------
	 SCS Same-Spin Scale       =       0.3333333333333333 [-]
	 SCS Opposite-Spin Scale   =       1.2000000000000000 [-]
	 SCS Same-Spin Energy      =      -0.1566625376156751 [Eh]
	 SCS Opposite-Spin Energy  =      -1.7838724530432875 [Eh]
	 SCS Correlation Energy    =      -1.9405349906589624 [Eh]
	 SCS Total Energy          =    -532.9055644170674668 [Eh]
	-----------------------------------------------------------

  Dipole Moment: [D]
     X:    -0.0054      Y:     0.0085      Z:    -5.2510     Total:     5.2510

*** Psi4 exiting successfully. Buy a developer a beer!
