                               Psi4 1.4a3.dev225

  ==> Input File <==

--------------------------------------------------------------------------
#psi4
#
memory 32 gb

molecule  {
0 1
  F       -1.6012940    -0.1166020     1.0531380
  F        0.9015100    -1.3283660     1.0533570
  F        0.6995270     1.4450080     1.0533050
  C       -1.4600740    -0.1063430    -0.3396260
  C        0.8221700    -1.2113200    -0.3394270
  C        0.5971782     1.2984395    -0.3674298
  C       -0.6367970    -1.3153920    -0.7539820
  C       -0.8206640     1.2092170    -0.7540300
  C        1.4576450     0.1061460    -0.7538300
  H       -2.4709910    -0.1799750    -0.7606130
  H        1.3914430    -2.0500220    -0.7602750
  H        1.0797340     2.2299680    -0.7603550
  H       -0.6879950    -1.4213320    -1.8456750
  H       -1.0732430    -2.2167570    -0.3126710
  H       -1.3831040     2.0378510    -0.3127500
  H       -0.8866680     1.3065820    -1.8457260
  H        2.4564240     0.1788940    -0.3124150
  H        1.5751120     0.1146800    -1.8455110
units angstrom
no_reorient  #important for SAPT in psi4, default
symmetry c1  #important for SAPT in psi4, default
}

set PROPERTIES_ORIGIN ["COM"]
properties('MP2/aug-cc-pvtz', properties = ['dipole'])
--------------------------------------------------------------------------

    Molecular point group: c1
  Charge       = 0
  Multiplicity = 1
  Basis Set: AUG-CC-PVTZ
    Blend: AUG-CC-PVTZ
  Basis Set: (AUG-CC-PVTZ AUX)
    Blend: AUG-CC-PVTZ-JKFIT

    Orbital Energies [Eh]
    ---------------------

    Doubly Occupied:

       1A    -26.266126     2A    -26.265081     3A    -26.257110
       4A    -11.321413     5A    -11.321212     6A    -11.320143
       7A    -11.245364     8A    -11.244980     9A    -11.244684
      10A     -1.580299    11A     -1.572891    12A     -1.558751
      13A     -1.142469    14A     -1.039585    15A     -1.032940
      16A     -0.874724    17A     -0.868544    18A     -0.776821
      19A     -0.744990    20A     -0.696511    21A     -0.692240
      22A     -0.670808    23A     -0.662968    24A     -0.655579
      25A     -0.650089    26A     -0.638178    27A     -0.636678
      28A     -0.581751    29A     -0.557327    30A     -0.549886
      31A     -0.547352    32A     -0.531197    33A     -0.524099
      34A     -0.523095    35A     -0.461302    36A     -0.451026

  @DF-RHF Final Energy:  -530.96126522383997

   => Energetics <=

    Nuclear Repulsion Energy =            525.8643176418185021
    One-Electron Energy =               -1778.2347342099633352
    Two-Electron Energy =                 721.4091513443047461
    Total Energy =                       -530.9612652238399733
  Basis Set: (AUG-CC-PVTZ AUX)
    Blend: AUG-CC-PVTZ-RI
    Molecular point group: c1

    Geometry (in Angstrom), charge = 0, multiplicity = 1:

       Center              X                  Y                   Z               Mass
    ------------   -----------------  -----------------  -----------------  -----------------
         F           -1.597740135065    -0.114933359336     0.969795393997    18.998403162730
         F            0.905063864935    -1.326697359336     0.970014393997    18.998403162730
         F            0.703080864935     1.446676640664     0.969962393997    18.998403162730
         C           -1.456520135065    -0.104674359336    -0.422968606003    12.000000000000
         C            0.825723864935    -1.209651359336    -0.422769606003    12.000000000000
         C            0.600732064935     1.300108140664    -0.450772406003    12.000000000000
         C           -0.633243135065    -1.313723359336    -0.837324606003    12.000000000000
         C           -0.817110135065     1.210885640664    -0.837372606003    12.000000000000
         C            1.461198864935     0.107814640664    -0.837172606003    12.000000000000
         H           -2.467437135065    -0.178306359336    -0.843955606003     1.007825032230
         H            1.394996864935    -2.048353359336    -0.843617606003     1.007825032230
         H            1.083287864935     2.231636640664    -0.843697606003     1.007825032230
         H           -0.684441135065    -1.419663359336    -1.929017606003     1.007825032230
         H           -1.069689135065    -2.215088359336    -0.396013606003     1.007825032230
         H           -1.379550135065     2.039519640664    -0.396092606003     1.007825032230
         H           -0.883114135065     1.308250640664    -1.929068606003     1.007825032230
         H            2.459977864935     0.180562640664    -0.395757606003     1.007825032230
         H            1.578665864935     0.116348640664    -1.928853606003     1.007825032230

  Basis Set: AUG-CC-PVTZ
    Blend: AUG-CC-PVTZ
  Basis Set: (AUG-CC-PVTZ AUX)
    Blend: AUG-CC-PVTZ-JKFIT
	 Reference Energy          =    -530.9612652238399733 [Eh]
	 Singles Energy            =      -0.0000000000000000 [Eh]
	 Same-Spin Energy          =      -0.4705623236184163 [Eh]
	 Opposite-Spin Energy      =      -1.4877813644654183 [Eh]
	 Correlation Energy        =      -1.9583436880838345 [Eh]
	 Total Energy              =    -532.9196089119237740 [Eh]

	 ================> DF-SCS-MP2 Energies <==================
	-----------------------------------------------------------
	 SCS Same-Spin Scale       =       0.3333333333333333 [-]
	 SCS Opposite-Spin Scale   =       1.2000000000000000 [-]
	 SCS Same-Spin Energy      =      -0.1568541078728054 [Eh]
	 SCS Opposite-Spin Energy  =      -1.7853376373585019 [Eh]
	 SCS Correlation Energy    =      -1.9421917452313073 [Eh]
	 SCS Total Energy          =    -532.9034569690712715 [Eh]
	-----------------------------------------------------------

  Dipole Moment: [D]
     X:    -0.0981      Y:    -0.0596      Z:    -5.3515     Total:     5.3527

*** Psi4 exiting successfully. Buy a developer a beer!
