                               Psi4 1.4a3.dev225

  ==> Input File <==

--------------------------------------------------------------------------
#psi4
#
memory 32 gb

molecule  {
0 1
  F       -1.6012940    -0.1166020     1.0531380
  F        0.9015100    -1.3283660     1.0533570
  F        0.6995270     1.4450080     1.0533050
  C       -1.4600740    -0.1063430    -0.3396260
  C        0.8221700    -1.2113200    -0.3394270
  C        0.6379870     1.3176500    -0.3394740
  C       -0.5826443    -1.3949196    -0.7812371
  C       -0.8206640     1.2092170    -0.7540300
  C        1.4576450     0.1061460    -0.7538300
  H       -2.4709910    -0.1799750    -0.7606130
  H        1.3914430    -2.0500220    -0.7602750
  H        1.0797340     2.2299680    -0.7603550
  H       -0.6879950    -1.4213320    -1.8456750
  H       -1.0732430    -2.2167570    -0.3126710
  H       -1.3831040     2.0378510    -0.3127500
  H       -0.8866680     1.3065820    -1.8457260
  H        2.4564240     0.1788940    -0.3124150
  H        1.5751120     0.1146800    -1.8455110
units angstrom
no_reorient  #important for SAPT in psi4, default
symmetry c1  #important for SAPT in psi4, default
}

set PROPERTIES_ORIGIN ["COM"]
properties('MP2/aug-cc-pvtz', properties = ['dipole'])
--------------------------------------------------------------------------

    Molecular point group: c1
  Charge       = 0
  Multiplicity = 1
  Basis Set: AUG-CC-PVTZ
    Blend: AUG-CC-PVTZ
  Basis Set: (AUG-CC-PVTZ AUX)
    Blend: AUG-CC-PVTZ-JKFIT

    Orbital Energies [Eh]
    ---------------------

    Doubly Occupied:

       1A    -26.266301     2A    -26.265279     3A    -26.265088
       4A    -11.323001     5A    -11.319864     6A    -11.318281
       7A    -11.245075     8A    -11.243816     9A    -11.243055
      10A     -1.581862    11A     -1.572975    12A     -1.571870
      13A     -1.133408    14A     -1.037833    15A     -1.024994
      16A     -0.874785    17A     -0.866311    18A     -0.781023
      19A     -0.743280    20A     -0.697989    21A     -0.696238
      22A     -0.670504    23A     -0.663713    24A     -0.656697
      25A     -0.653805    26A     -0.642274    27A     -0.638826
      28A     -0.583325    29A     -0.567162    30A     -0.553984
      31A     -0.548175    32A     -0.528915    33A     -0.523694
      34A     -0.511609    35A     -0.461456    36A     -0.437495

  @DF-RHF Final Energy:  -530.95724827493700

   => Energetics <=

    Nuclear Repulsion Energy =            524.3398092477779073
    One-Electron Energy =               -1775.1661895033378187
    Two-Electron Energy =                 719.8691319806227966
    Total Energy =                       -530.9572482749370010
  Basis Set: (AUG-CC-PVTZ AUX)
    Blend: AUG-CC-PVTZ-RI
    Molecular point group: c1

    Geometry (in Angstrom), charge = 0, multiplicity = 1:

       Center              X                  Y                   Z               Mass
    ------------   -----------------  -----------------  -----------------  -----------------
         F           -1.605993731275    -0.109690887514     0.969734492528    18.998403162730
         F            0.896810268725    -1.321454887514     0.969953492528    18.998403162730
         F            0.694827268725     1.451919112486     0.969901492528    18.998403162730
         C           -1.464773731275    -0.099431887514    -0.423029507472    12.000000000000
         C            0.817470268725    -1.204408887514    -0.422830507472    12.000000000000
         C            0.633287268725     1.324561112486    -0.422877507472    12.000000000000
         C           -0.587344031275    -1.388008487514    -0.864640607472    12.000000000000
         C           -0.825363731275     1.216128112486    -0.837433507472    12.000000000000
         C            1.452945268725     0.113057112486    -0.837233507472    12.000000000000
         H           -2.475690731275    -0.173063887514    -0.844016507472     1.007825032230
         H            1.386743268725    -2.043110887514    -0.843678507472     1.007825032230
         H            1.075034268725     2.236879112486    -0.843758507472     1.007825032230
         H           -0.692694731275    -1.414420887514    -1.929078507472     1.007825032230
         H           -1.077942731275    -2.209845887514    -0.396074507472     1.007825032230
         H           -1.387803731275     2.044762112486    -0.396153507472     1.007825032230
         H           -0.891367731275     1.313493112486    -1.929129507472     1.007825032230
         H            2.451724268725     0.185805112486    -0.395818507472     1.007825032230
         H            1.570412268725     0.121591112486    -1.928914507472     1.007825032230

  Basis Set: AUG-CC-PVTZ
    Blend: AUG-CC-PVTZ
  Basis Set: (AUG-CC-PVTZ AUX)
    Blend: AUG-CC-PVTZ-JKFIT
	 Reference Energy          =    -530.9572482749370010 [Eh]
	 Singles Energy            =      -0.0000000000000000 [Eh]
	 Same-Spin Energy          =      -0.4699522286908940 [Eh]
	 Opposite-Spin Energy      =      -1.4869552844394283 [Eh]
	 Correlation Energy        =      -1.9569075131303222 [Eh]
	 Total Energy              =    -532.9141557880673190 [Eh]

	 ================> DF-SCS-MP2 Energies <==================
	-----------------------------------------------------------
	 SCS Same-Spin Scale       =       0.3333333333333333 [-]
	 SCS Opposite-Spin Scale   =       1.2000000000000000 [-]
	 SCS Same-Spin Energy      =      -0.1566507428969647 [Eh]
	 SCS Opposite-Spin Energy  =      -1.7843463413273140 [Eh]
	 SCS Correlation Energy    =      -1.9409970842242785 [Eh]
	 SCS Total Energy          =    -532.8982453591612511 [Eh]
	-----------------------------------------------------------

  Dipole Moment: [D]
     X:    -0.0373      Y:     0.0271      Z:    -5.2086     Total:     5.2088

*** Psi4 exiting successfully. Buy a developer a beer!
