                               Psi4 1.4a3.dev225

  ==> Input File <==

--------------------------------------------------------------------------
#psi4
#
memory 32 gb

molecule  {
0 1
  F       -1.6012940    -0.1166020     1.0531380
  F        0.9015100    -1.3283660     1.0533570
  F        0.6995270     1.4450080     1.0533050
  C       -1.4600740    -0.1063430    -0.3396260
  C        0.8221700    -1.2113200    -0.3394270
  C        0.6379870     1.3176500    -0.3394740
  C       -0.6367970    -1.3153920    -0.7539820
  C       -0.8206640     1.2092170    -0.7540300
  C        1.4576450     0.1061460    -0.7538300
  H       -2.4709910    -0.1799750    -0.7606130
  H        1.3914430    -2.0500220    -0.7602750
  H        1.0797340     2.2299680    -0.7603550
  H       -0.6879950    -1.4213320    -1.8456750
  H       -1.0732430    -2.2167570    -0.3126710
  H       -1.3831040     2.0378510    -0.3127500
  H       -0.8866680     1.3065820    -1.8457260
  H        2.6389503     0.1921887    -0.2317466
  H        1.5751120     0.1146800    -1.8455110
units angstrom
no_reorient  #important for SAPT in psi4, default
symmetry c1  #important for SAPT in psi4, default
}

set PROPERTIES_ORIGIN ["COM"]
properties('MP2/aug-cc-pvtz', properties = ['dipole'])
--------------------------------------------------------------------------

    Molecular point group: c1
  Charge       = 0
  Multiplicity = 1
  Basis Set: AUG-CC-PVTZ
    Blend: AUG-CC-PVTZ
  Basis Set: (AUG-CC-PVTZ AUX)
    Blend: AUG-CC-PVTZ-JKFIT

    Orbital Energies [Eh]
    ---------------------

    Doubly Occupied:

       1A    -26.266221     2A    -26.265235     3A    -26.265233
       4A    -11.322059     5A    -11.322052     6A    -11.321411
       7A    -11.265190     8A    -11.245862     9A    -11.245848
      10A     -1.582365    11A     -1.573187    12A     -1.572559
      13A     -1.136970    14A     -1.034328    15A     -1.027482
      16A     -0.872252    17A     -0.865380    18A     -0.779571
      19A     -0.745383    20A     -0.697778    21A     -0.697519
      22A     -0.672163    23A     -0.657685    24A     -0.657282
      25A     -0.649072    26A     -0.641776    27A     -0.636279
      28A     -0.584754    29A     -0.558950    30A     -0.549417
      31A     -0.532490    32A     -0.525397    33A     -0.521928
      34A     -0.518321    35A     -0.456109    36A     -0.448070

  @DF-RHF Final Energy:  -530.94504562730742

   => Energetics <=

    Nuclear Repulsion Energy =            524.5448904164053374
    One-Electron Energy =               -1775.5527182983128114
    Two-Electron Energy =                 720.0627822545999379
    Total Energy =                       -530.9450456273074224
  Basis Set: (AUG-CC-PVTZ AUX)
    Blend: AUG-CC-PVTZ-RI
    Molecular point group: c1

    Geometry (in Angstrom), charge = 0, multiplicity = 1:

       Center              X                  Y                   Z               Mass
    ------------   -----------------  -----------------  -----------------  -----------------
         F           -1.602619409877    -0.116700089572     0.966776762797    18.998403162730
         F            0.900184590123    -1.328464089572     0.966995762797    18.998403162730
         F            0.698201590123     1.444909910428     0.966943762797    18.998403162730
         C           -1.461399409877    -0.106441089572    -0.425987237203    12.000000000000
         C            0.820844590123    -1.211418089572    -0.425788237203    12.000000000000
         C            0.636661590123     1.317551910428    -0.425835237203    12.000000000000
         C           -0.638122409877    -1.315490089572    -0.840343237203    12.000000000000
         C           -0.821989409877     1.209118910428    -0.840391237203    12.000000000000
         C            1.456319590123     0.106047910428    -0.840191237203    12.000000000000
         H           -2.472316409877    -0.180073089572    -0.846974237203     1.007825032230
         H            1.390117590123    -2.050120089572    -0.846636237203     1.007825032230
         H            1.078408590123     2.229869910428    -0.846716237203     1.007825032230
         H           -0.689320409877    -1.421430089572    -1.932036237203     1.007825032230
         H           -1.074568409877    -2.216855089572    -0.399032237203     1.007825032230
         H           -1.384429409877     2.037752910428    -0.399111237203     1.007825032230
         H           -0.887993409877     1.306483910428    -1.932087237203     1.007825032230
         H            2.637624890123     0.192090610428    -0.318107837203     1.007825032230
         H            1.573786590123     0.114581910428    -1.931872237203     1.007825032230

  Basis Set: AUG-CC-PVTZ
    Blend: AUG-CC-PVTZ
  Basis Set: (AUG-CC-PVTZ AUX)
    Blend: AUG-CC-PVTZ-JKFIT
	 Reference Energy          =    -530.9450456273074224 [Eh]
	 Singles Energy            =      -0.0000000000000000 [Eh]
	 Same-Spin Energy          =      -0.4702142846456036 [Eh]
	 Opposite-Spin Energy      =      -1.4884372214520192 [Eh]
	 Correlation Energy        =      -1.9586515060976226 [Eh]
	 Total Energy              =    -532.9036971334049895 [Eh]

	 ================> DF-SCS-MP2 Energies <==================
	-----------------------------------------------------------
	 SCS Same-Spin Scale       =       0.3333333333333333 [-]
	 SCS Opposite-Spin Scale   =       1.2000000000000000 [-]
	 SCS Same-Spin Energy      =      -0.1567380948818679 [Eh]
	 SCS Opposite-Spin Energy  =      -1.7861246657424230 [Eh]
	 SCS Correlation Energy    =      -1.9428627606242908 [Eh]
	 SCS Total Energy          =    -532.8879083879317022 [Eh]
	-----------------------------------------------------------

  Dipole Moment: [D]
     X:    -0.1283      Y:    -0.0094      Z:    -5.2263     Total:     5.2278

*** Psi4 exiting successfully. Buy a developer a beer!
