                               Psi4 1.4a3.dev225

  ==> Input File <==

--------------------------------------------------------------------------
#psi4
#
memory 32 gb

molecule  {
0 1
  F       -1.6012940    -0.1166020     1.0531380
  F        0.8902510    -1.3500059     1.0519655
  F        0.6995270     1.4450080     1.0533050
  C       -1.4600740    -0.1063430    -0.3396260
  C        0.8221700    -1.2113200    -0.3394270
  C        0.6379870     1.3176500    -0.3394740
  C       -0.6367970    -1.3153920    -0.7539820
  C       -0.8206640     1.2092170    -0.7540300
  C        1.4576450     0.1061460    -0.7538300
  H       -2.4709910    -0.1799750    -0.7606130
  H        1.3914430    -2.0500220    -0.7602750
  H        1.0797340     2.2299680    -0.7603550
  H       -0.6879950    -1.4213320    -1.8456750
  H       -1.0732430    -2.2167570    -0.3126710
  H       -1.3831040     2.0378510    -0.3127500
  H       -0.8866680     1.3065820    -1.8457260
  H        2.4564240     0.1788940    -0.3124150
  H        1.5751120     0.1146800    -1.8455110
units angstrom
no_reorient  #important for SAPT in psi4, default
symmetry c1  #important for SAPT in psi4, default
}

set PROPERTIES_ORIGIN ["COM"]
properties('MP2/aug-cc-pvtz', properties = ['dipole'])
--------------------------------------------------------------------------

    Molecular point group: c1
  Charge       = 0
  Multiplicity = 1
  Basis Set: AUG-CC-PVTZ
    Blend: AUG-CC-PVTZ
  Basis Set: (AUG-CC-PVTZ AUX)
    Blend: AUG-CC-PVTZ-JKFIT

    Orbital Energies [Eh]
    ---------------------

    Doubly Occupied:

       1A    -26.265644     2A    -26.265283     3A    -26.265155
       4A    -11.320366     5A    -11.320078     6A    -11.320021
       7A    -11.244670     8A    -11.244103     9A    -11.243604
      10A     -1.582051    11A     -1.572940    12A     -1.572515
      13A     -1.136832    14A     -1.032877    15A     -1.032630
      16A     -0.871255    17A     -0.871228    18A     -0.779916
      19A     -0.745390    20A     -0.697113    21A     -0.696661
      22A     -0.671797    23A     -0.659831    24A     -0.657099
      25A     -0.656707    26A     -0.641160    27A     -0.640765
      28A     -0.583815    29A     -0.558615    30A     -0.548550
      31A     -0.547857    32A     -0.524659    33A     -0.524160
      34A     -0.520924    35A     -0.454564    36A     -0.454284

  @DF-RHF Final Energy:  -530.96553320926319

   => Energetics <=

    Nuclear Repulsion Energy =            525.3152695552865907
    One-Electron Energy =               -1777.1113708705113368
    Two-Electron Energy =                 720.8305681059616745
    Total Energy =                       -530.9655332092631852
  Basis Set: (AUG-CC-PVTZ AUX)
    Blend: AUG-CC-PVTZ-RI
    Molecular point group: c1

    Geometry (in Angstrom), charge = 0, multiplicity = 1:

       Center              X                  Y                   Z               Mass
    ------------   -----------------  -----------------  -----------------  -----------------
         F           -1.599737754380    -0.113625303607     0.967557086670    18.998403162730
         F            0.891807245620    -1.347029203607     0.966384586670    18.998403162730
         F            0.701083245620     1.447984696393     0.967724086670    18.998403162730
         C           -1.458517754380    -0.103366303607    -0.425206913330    12.000000000000
         C            0.823726245620    -1.208343303607    -0.425007913330    12.000000000000
         C            0.639543245620     1.320626696393    -0.425054913330    12.000000000000
         C           -0.635240754380    -1.312415303607    -0.839562913330    12.000000000000
         C           -0.819107754380     1.212193696393    -0.839610913330    12.000000000000
         C            1.459201245620     0.109122696393    -0.839410913330    12.000000000000
         H           -2.469434754380    -0.176998303607    -0.846193913330     1.007825032230
         H            1.392999245620    -2.047045303607    -0.845855913330     1.007825032230
         H            1.081290245620     2.232944696393    -0.845935913330     1.007825032230
         H           -0.686438754380    -1.418355303607    -1.931255913330     1.007825032230
         H           -1.071686754380    -2.213780303607    -0.398251913330     1.007825032230
         H           -1.381547754380     2.040827696393    -0.398330913330     1.007825032230
         H           -0.885111754380     1.309558696393    -1.931306913330     1.007825032230
         H            2.457980245620     0.181870696393    -0.397995913330     1.007825032230
         H            1.576668245620     0.117656696393    -1.931091913330     1.007825032230

  Basis Set: AUG-CC-PVTZ
    Blend: AUG-CC-PVTZ
  Basis Set: (AUG-CC-PVTZ AUX)
    Blend: AUG-CC-PVTZ-JKFIT
	 Reference Energy          =    -530.9655332092631852 [Eh]
	 Singles Energy            =      -0.0000000000000000 [Eh]
	 Same-Spin Energy          =      -0.4699790726190862 [Eh]
	 Opposite-Spin Energy      =      -1.4865904135828398 [Eh]
	 Correlation Energy        =      -1.9565694862019261 [Eh]
	 Total Energy              =    -532.9221026954651279 [Eh]

	 ================> DF-SCS-MP2 Energies <==================
	-----------------------------------------------------------
	 SCS Same-Spin Scale       =       0.3333333333333333 [-]
	 SCS Opposite-Spin Scale   =       1.2000000000000000 [-]
	 SCS Same-Spin Energy      =      -0.1566596908730287 [Eh]
	 SCS Opposite-Spin Energy  =      -1.7839084962994078 [Eh]
	 SCS Correlation Energy    =      -1.9405681871724365 [Eh]
	 SCS Total Energy          =    -532.9061013964355880 [Eh]
	-----------------------------------------------------------

  Dipole Moment: [D]
     X:     0.0192      Y:     0.0319      Z:    -5.2263     Total:     5.2265

*** Psi4 exiting successfully. Buy a developer a beer!
