                               Psi4 1.4a3.dev225

  ==> Input File <==

--------------------------------------------------------------------------
#psi4
#
memory 32 gb

molecule  {
0 1
  F       -1.6012940    -0.1166020     1.0531380
  F        0.8563634    -1.4146459     1.0452503
  F        0.6995270     1.4450080     1.0533050
  C       -1.4600740    -0.1063430    -0.3396260
  C        0.8221700    -1.2113200    -0.3394270
  C        0.6379870     1.3176500    -0.3394740
  C       -0.6367970    -1.3153920    -0.7539820
  C       -0.8206640     1.2092170    -0.7540300
  C        1.4576450     0.1061460    -0.7538300
  H       -2.4709910    -0.1799750    -0.7606130
  H        1.3914430    -2.0500220    -0.7602750
  H        1.0797340     2.2299680    -0.7603550
  H       -0.6879950    -1.4213320    -1.8456750
  H       -1.0732430    -2.2167570    -0.3126710
  H       -1.3831040     2.0378510    -0.3127500
  H       -0.8866680     1.3065820    -1.8457260
  H        2.4564240     0.1788940    -0.3124150
  H        1.5751120     0.1146800    -1.8455110
units angstrom
no_reorient  #important for SAPT in psi4, default
symmetry c1  #important for SAPT in psi4, default
}

set PROPERTIES_ORIGIN ["COM"]
properties('MP2/aug-cc-pvtz', properties = ['dipole'])
--------------------------------------------------------------------------

    Molecular point group: c1
  Charge       = 0
  Multiplicity = 1
  Basis Set: AUG-CC-PVTZ
    Blend: AUG-CC-PVTZ
  Basis Set: (AUG-CC-PVTZ AUX)
    Blend: AUG-CC-PVTZ-JKFIT

    Orbital Energies [Eh]
    ---------------------

    Doubly Occupied:

       1A    -26.266862     2A    -26.265408     3A    -26.264964
       4A    -11.321108     5A    -11.319971     6A    -11.319751
       7A    -11.246624     8A    -11.244351     9A    -11.242352
      10A     -1.582207    11A     -1.573962    12A     -1.572375
      13A     -1.137128    14A     -1.033440    15A     -1.032453
      16A     -0.871547    17A     -0.871417    18A     -0.780288
      19A     -0.745281    20A     -0.697811    21A     -0.696070
      22A     -0.672537    23A     -0.660268    24A     -0.658447
      25A     -0.656921    26A     -0.641605    27A     -0.640157
      28A     -0.582963    29A     -0.559793    30A     -0.549640
      31A     -0.546916    32A     -0.525711    33A     -0.523921
      34A     -0.520920    35A     -0.454930    36A     -0.453895

  @DF-RHF Final Energy:  -530.96489382755317

   => Energetics <=

    Nuclear Repulsion Energy =            524.6815975718915297
    One-Electron Energy =               -1775.8249902382697201
    Two-Electron Energy =                 720.1784988388249076
    Total Energy =                       -530.9648938275531691
  Basis Set: (AUG-CC-PVTZ AUX)
    Blend: AUG-CC-PVTZ-RI
    Molecular point group: c1

    Geometry (in Angstrom), charge = 0, multiplicity = 1:

       Center              X                  Y                   Z               Mass
    ------------   -----------------  -----------------  -----------------  -----------------
         F           -1.595074680270    -0.104730571892     0.968481126002    18.998403162730
         F            0.862582719730    -1.402774471892     0.960593426002    18.998403162730
         F            0.705746319730     1.456879428108     0.968648126002    18.998403162730
         C           -1.453854680270    -0.094471571892    -0.424282873998    12.000000000000
         C            0.828389319730    -1.199448571892    -0.424083873998    12.000000000000
         C            0.644206319730     1.329521428108    -0.424130873998    12.000000000000
         C           -0.630577680270    -1.303520571892    -0.838638873998    12.000000000000
         C           -0.814444680270     1.221088428108    -0.838686873998    12.000000000000
         C            1.463864319730     0.118017428108    -0.838486873998    12.000000000000
         H           -2.464771680270    -0.168103571892    -0.845269873998     1.007825032230
         H            1.397662319730    -2.038150571892    -0.844931873998     1.007825032230
         H            1.085953319730     2.241839428108    -0.845011873998     1.007825032230
         H           -0.681775680270    -1.409460571892    -1.930331873998     1.007825032230
         H           -1.067023680270    -2.204885571892    -0.397327873998     1.007825032230
         H           -1.376884680270     2.049722428108    -0.397406873998     1.007825032230
         H           -0.880448680270     1.318453428108    -1.930382873998     1.007825032230
         H            2.462643319730     0.190765428108    -0.397071873998     1.007825032230
         H            1.581331319730     0.126551428108    -1.930167873998     1.007825032230

  Basis Set: AUG-CC-PVTZ
    Blend: AUG-CC-PVTZ
  Basis Set: (AUG-CC-PVTZ AUX)
    Blend: AUG-CC-PVTZ-JKFIT
	 Reference Energy          =    -530.9648938275531691 [Eh]
	 Singles Energy            =      -0.0000000000000000 [Eh]
	 Same-Spin Energy          =      -0.4699483467610293 [Eh]
	 Opposite-Spin Energy      =      -1.4865532092727669 [Eh]
	 Correlation Energy        =      -1.9565015560337962 [Eh]
	 Total Energy              =    -532.9213953835869688 [Eh]

	 ================> DF-SCS-MP2 Energies <==================
	-----------------------------------------------------------
	 SCS Same-Spin Scale       =       0.3333333333333333 [-]
	 SCS Opposite-Spin Scale   =       1.2000000000000000 [-]
	 SCS Same-Spin Energy      =      -0.1566494489203431 [Eh]
	 SCS Opposite-Spin Energy  =      -1.7838638511273202 [Eh]
	 SCS Correlation Energy    =      -1.9405133000476633 [Eh]
	 SCS Total Energy          =    -532.9054071276008244 [Eh]
	-----------------------------------------------------------

  Dipole Moment: [D]
     X:     0.0758      Y:     0.1266      Z:    -5.2279     Total:     5.2299

*** Psi4 exiting successfully. Buy a developer a beer!
