                               Psi4 1.4a3.dev225

  ==> Input File <==

--------------------------------------------------------------------------
#psi4
#
memory 32 gb

molecule  {
0 1
  F       -1.6012940    -0.1166020     1.0531380
  F        0.9015100    -1.3283660     1.0533570
  F        0.6995270     1.4450080     1.0533050
  C       -1.4600740    -0.1063430    -0.3396260
  C        0.8293149    -1.2134215    -0.3648940
  C        0.6379870     1.3176500    -0.3394740
  C       -0.6367970    -1.3153920    -0.7539820
  C       -0.8206640     1.2092170    -0.7540300
  C        1.4576450     0.1061460    -0.7538300
  H       -2.4709910    -0.1799750    -0.7606130
  H        1.3914430    -2.0500220    -0.7602750
  H        1.0797340     2.2299680    -0.7603550
  H       -0.6879950    -1.4213320    -1.8456750
  H       -1.0732430    -2.2167570    -0.3126710
  H       -1.3831040     2.0378510    -0.3127500
  H       -0.8866680     1.3065820    -1.8457260
  H        2.4564240     0.1788940    -0.3124150
  H        1.5751120     0.1146800    -1.8455110
units angstrom
no_reorient  #important for SAPT in psi4, default
symmetry c1  #important for SAPT in psi4, default
}

set PROPERTIES_ORIGIN ["COM"]
properties('MP2/aug-cc-pvtz', properties = ['dipole'])
--------------------------------------------------------------------------

    Molecular point group: c1
  Charge       = 0
  Multiplicity = 1
  Basis Set: AUG-CC-PVTZ
    Blend: AUG-CC-PVTZ
  Basis Set: (AUG-CC-PVTZ AUX)
    Blend: AUG-CC-PVTZ-JKFIT

    Orbital Energies [Eh]
    ---------------------

    Doubly Occupied:

       1A    -26.265132     2A    -26.264962     3A    -26.259070
       4A    -11.320878     5A    -11.320667     6A    -11.320040
       7A    -11.244915     8A    -11.244852     9A    -11.244372
      10A     -1.579871    11A     -1.572367    12A     -1.562090
      13A     -1.137895    14A     -1.034594    15A     -1.033171
      16A     -0.872232    17A     -0.871688    18A     -0.778267
      19A     -0.744748    20A     -0.695601    21A     -0.693142
      22A     -0.669887    23A     -0.660155    24A     -0.655479
      25A     -0.654100    26A     -0.638384    27A     -0.637435
      28A     -0.584698    29A     -0.556484    30A     -0.548360
      31A     -0.548082    32A     -0.525299    33A     -0.523947
      34A     -0.522330    35A     -0.457821    36A     -0.456030

  @DF-RHF Final Energy:  -530.96422132318764

   => Energetics <=

    Nuclear Repulsion Energy =            525.1712616404603295
    One-Electron Energy =               -1776.8728696890830179
    Two-Electron Energy =                 720.7373867254351580
    Total Energy =                       -530.9642213231876440
  Basis Set: (AUG-CC-PVTZ AUX)
    Blend: AUG-CC-PVTZ-RI
    Molecular point group: c1

    Geometry (in Angstrom), charge = 0, multiplicity = 1:

       Center              X                  Y                   Z               Mass
    ------------   -----------------  -----------------  -----------------  -----------------
         F           -1.601908039706    -0.116420391213     0.969579079488    18.998403162730
         F            0.900895960294    -1.328184391213     0.969798079488    18.998403162730
         F            0.698912960294     1.445189608787     0.969746079488    18.998403162730
         C           -1.460688039706    -0.106161391213    -0.423184920512    12.000000000000
         C            0.828700860294    -1.213239891213    -0.448452920512    12.000000000000
         C            0.637372960294     1.317831608787    -0.423032920512    12.000000000000
         C           -0.637411039706    -1.315210391213    -0.837540920512    12.000000000000
         C           -0.821278039706     1.209398608787    -0.837588920512    12.000000000000
         C            1.457030960294     0.106327608787    -0.837388920512    12.000000000000
         H           -2.471605039706    -0.179793391213    -0.844171920512     1.007825032230
         H            1.390828960294    -2.049840391213    -0.843833920512     1.007825032230
         H            1.079119960294     2.230149608787    -0.843913920512     1.007825032230
         H           -0.688609039706    -1.421150391213    -1.929233920512     1.007825032230
         H           -1.073857039706    -2.216575391213    -0.396229920512     1.007825032230
         H           -1.383718039706     2.038032608787    -0.396308920512     1.007825032230
         H           -0.887282039706     1.306763608787    -1.929284920512     1.007825032230
         H            2.455809960294     0.179075608787    -0.395973920512     1.007825032230
         H            1.574497960294     0.114861608787    -1.929069920512     1.007825032230

  Basis Set: AUG-CC-PVTZ
    Blend: AUG-CC-PVTZ
  Basis Set: (AUG-CC-PVTZ AUX)
    Blend: AUG-CC-PVTZ-JKFIT
	 Reference Energy          =    -530.9642213231876440 [Eh]
	 Singles Energy            =      -0.0000000000000000 [Eh]
	 Same-Spin Energy          =      -0.4701033352289473 [Eh]
	 Opposite-Spin Energy      =      -1.4871387236740770 [Eh]
	 Correlation Energy        =      -1.9572420589030242 [Eh]
	 Total Energy              =    -532.9214633820906784 [Eh]

	 ================> DF-SCS-MP2 Energies <==================
	-----------------------------------------------------------
	 SCS Same-Spin Scale       =       0.3333333333333333 [-]
	 SCS Opposite-Spin Scale   =       1.2000000000000000 [-]
	 SCS Same-Spin Energy      =      -0.1567011117429824 [Eh]
	 SCS Opposite-Spin Energy  =      -1.7845664684088922 [Eh]
	 SCS Correlation Energy    =      -1.9412675801518746 [Eh]
	 SCS Total Energy          =    -532.9054889033395739 [Eh]
	-----------------------------------------------------------

  Dipole Moment: [D]
     X:     0.0021      Y:     0.0159      Z:    -5.3206     Total:     5.3206

*** Psi4 exiting successfully. Buy a developer a beer!
