                               Psi4 1.4a3.dev225

  ==> Input File <==

--------------------------------------------------------------------------
#psi4
#
memory 32 gb

molecule  {
0 1
  F       -1.6012940    -0.1166020     1.0531380
  F        0.9015100    -1.3283660     1.0533570
  F        0.6507375     1.4427534     1.0548097
  C       -1.4600740    -0.1063430    -0.3396260
  C        0.8221700    -1.2113200    -0.3394270
  C        0.6379870     1.3176500    -0.3394740
  C       -0.6367970    -1.3153920    -0.7539820
  C       -0.8206640     1.2092170    -0.7540300
  C        1.4576450     0.1061460    -0.7538300
  H       -2.4709910    -0.1799750    -0.7606130
  H        1.3914430    -2.0500220    -0.7602750
  H        1.0797340     2.2299680    -0.7603550
  H       -0.6879950    -1.4213320    -1.8456750
  H       -1.0732430    -2.2167570    -0.3126710
  H       -1.3831040     2.0378510    -0.3127500
  H       -0.8866680     1.3065820    -1.8457260
  H        2.4564240     0.1788940    -0.3124150
  H        1.5751120     0.1146800    -1.8455110
units angstrom
no_reorient  #important for SAPT in psi4, default
symmetry c1  #important for SAPT in psi4, default
}

set PROPERTIES_ORIGIN ["COM"]
properties('MP2/aug-cc-pvtz', properties = ['dipole'])
--------------------------------------------------------------------------

    Molecular point group: c1
  Charge       = 0
  Multiplicity = 1
  Basis Set: AUG-CC-PVTZ
    Blend: AUG-CC-PVTZ
  Basis Set: (AUG-CC-PVTZ AUX)
    Blend: AUG-CC-PVTZ-JKFIT

    Orbital Energies [Eh]
    ---------------------

    Doubly Occupied:

       1A    -26.265376     2A    -26.265085     3A    -26.264368
       4A    -11.320284     5A    -11.320169     6A    -11.319587
       7A    -11.244828     8A    -11.243833     9A    -11.242707
      10A     -1.582047    11A     -1.572756    12A     -1.571844
      13A     -1.136503    14A     -1.032776    15A     -1.032281
      16A     -0.871044    17A     -0.870999    18A     -0.779538
      19A     -0.745570    20A     -0.697378    21A     -0.696445
      22A     -0.671256    23A     -0.659518    24A     -0.656461
      25A     -0.655637    26A     -0.641359    27A     -0.640491
      28A     -0.584648    29A     -0.558091    30A     -0.548564
      31A     -0.547199    32A     -0.524347    33A     -0.523293
      34A     -0.520481    35A     -0.454636    36A     -0.454034

  @DF-RHF Final Energy:  -530.96495263828365

   => Energetics <=

    Nuclear Repulsion Energy =            526.0025986576969217
    One-Electron Energy =               -1778.5042347034709564
    Two-Electron Energy =                 721.5366834074902727
    Total Energy =                       -530.9649526382836484
  Basis Set: (AUG-CC-PVTZ AUX)
    Blend: AUG-CC-PVTZ-RI
    Molecular point group: c1

    Geometry (in Angstrom), charge = 0, multiplicity = 1:

       Center              X                  Y                   Z               Mass
    ------------   -----------------  -----------------  -----------------  -----------------
         F           -1.594573402142    -0.116292801174     0.967158557555    18.998403162730
         F            0.908230597858    -1.328056801174     0.967377557555    18.998403162730
         F            0.657458097858     1.443062598826     0.968830257555    18.998403162730
         C           -1.453353402142    -0.106033801174    -0.425605442445    12.000000000000
         C            0.828890597858    -1.211010801174    -0.425406442445    12.000000000000
         C            0.644707597858     1.317959198826    -0.425453442445    12.000000000000
         C           -0.630076402142    -1.315082801174    -0.839961442445    12.000000000000
         C           -0.813943402142     1.209526198826    -0.840009442445    12.000000000000
         C            1.464365597858     0.106455198826    -0.839809442445    12.000000000000
         H           -2.464270402142    -0.179665801174    -0.846592442445     1.007825032230
         H            1.398163597858    -2.049712801174    -0.846254442445     1.007825032230
         H            1.086454597858     2.230277198826    -0.846334442445     1.007825032230
         H           -0.681274402142    -1.421022801174    -1.931654442445     1.007825032230
         H           -1.066522402142    -2.216447801174    -0.398650442445     1.007825032230
         H           -1.376383402142     2.038160198826    -0.398729442445     1.007825032230
         H           -0.879947402142     1.306891198826    -1.931705442445     1.007825032230
         H            2.463144597858     0.179203198826    -0.398394442445     1.007825032230
         H            1.581832597858     0.114989198826    -1.931490442445     1.007825032230

  Basis Set: AUG-CC-PVTZ
    Blend: AUG-CC-PVTZ
  Basis Set: (AUG-CC-PVTZ AUX)
    Blend: AUG-CC-PVTZ-JKFIT
	 Reference Energy          =    -530.9649526382836484 [Eh]
	 Singles Energy            =      -0.0000000000000000 [Eh]
	 Same-Spin Energy          =      -0.4700565368119661 [Eh]
	 Opposite-Spin Energy      =      -1.4867070708769208 [Eh]
	 Correlation Energy        =      -1.9567636076888868 [Eh]
	 Total Energy              =    -532.9217162459725614 [Eh]

	 ================> DF-SCS-MP2 Energies <==================
	-----------------------------------------------------------
	 SCS Same-Spin Scale       =       0.3333333333333333 [-]
	 SCS Opposite-Spin Scale   =       1.2000000000000000 [-]
	 SCS Same-Spin Energy      =      -0.1566855122706554 [Eh]
	 SCS Opposite-Spin Energy  =      -1.7840484850523048 [Eh]
	 SCS Correlation Energy    =      -1.9407339973229603 [Eh]
	 SCS Total Energy          =    -532.9056866356065711 [Eh]
	-----------------------------------------------------------

  Dipole Moment: [D]
     X:     0.0747      Y:    -0.0001      Z:    -5.2170     Total:     5.2176

*** Psi4 exiting successfully. Buy a developer a beer!
