                               Psi4 1.4a3.dev225

  ==> Input File <==

--------------------------------------------------------------------------
#psi4
#
memory 32 gb

molecule  {
0 1
  F       -1.6012940    -0.1166020     1.0531380
  F        0.9015100    -1.3283660     1.0533570
  F        0.6995270     1.4450080     1.0533050
  C       -1.4600740    -0.1063430    -0.3396260
  C        0.8221700    -1.2113200    -0.3394270
  C        0.6379870     1.3176500    -0.3394740
  C       -0.6367970    -1.3153920    -0.7539820
  C       -0.8206640     1.2092170    -0.7540300
  C        1.4576450     0.1061460    -0.7538300
  H       -2.4709910    -0.1799750    -0.7606130
  H        1.3914430    -2.0500220    -0.7602750
  H        1.1199826     2.3130915    -0.7987025
  H       -0.6879950    -1.4213320    -1.8456750
  H       -1.0732430    -2.2167570    -0.3126710
  H       -1.3831040     2.0378510    -0.3127500
  H       -0.8866680     1.3065820    -1.8457260
  H        2.4564240     0.1788940    -0.3124150
  H        1.5751120     0.1146800    -1.8455110
units angstrom
no_reorient  #important for SAPT in psi4, default
symmetry c1  #important for SAPT in psi4, default
}

set PROPERTIES_ORIGIN ["COM"]
properties('MP2/aug-cc-pvtz', properties = ['dipole'])
--------------------------------------------------------------------------

    Molecular point group: c1
  Charge       = 0
  Multiplicity = 1
  Basis Set: AUG-CC-PVTZ
    Blend: AUG-CC-PVTZ
  Basis Set: (AUG-CC-PVTZ AUX)
    Blend: AUG-CC-PVTZ-JKFIT

    Orbital Energies [Eh]
    ---------------------

    Doubly Occupied:

       1A    -26.267580     2A    -26.265882     3A    -26.265880
       4A    -11.332023     5A    -11.320907     6A    -11.320900
       7A    -11.245049     8A    -11.245036     9A    -11.244628
      10A     -1.583074    11A     -1.573906    12A     -1.573258
      13A     -1.136770    14A     -1.033477    15A     -1.030593
      16A     -0.871824    17A     -0.865892    18A     -0.778703
      19A     -0.742598    20A     -0.697736    21A     -0.695740
      22A     -0.672570    23A     -0.660004    24A     -0.657441
      25A     -0.654839    26A     -0.641871    27A     -0.640538
      28A     -0.579784    29A     -0.558938    30A     -0.548697
      31A     -0.547686    32A     -0.525205    33A     -0.521989
      34A     -0.521599    35A     -0.455371    36A     -0.449403

  @DF-RHF Final Energy:  -530.95845401588872

   => Energetics <=

    Nuclear Repulsion Energy =            524.9656095335946020
    One-Electron Energy =               -1776.3933414317746156
    Two-Electron Energy =                 720.4692778822911805
    Total Energy =                       -530.9584540158887194
  Basis Set: (AUG-CC-PVTZ AUX)
    Blend: AUG-CC-PVTZ-RI
    Molecular point group: c1

    Geometry (in Angstrom), charge = 0, multiplicity = 1:

       Center              X                  Y                   Z               Mass
    ------------   -----------------  -----------------  -----------------  -----------------
         F           -1.601580838419    -0.117209812449     0.967645532230    18.998403162730
         F            0.901223161581    -1.328973812449     0.967864532230    18.998403162730
         F            0.699240161581     1.444400187551     0.967812532230    18.998403162730
         C           -1.460360838419    -0.106950812449    -0.425118467770    12.000000000000
         C            0.821883161581    -1.211927812449    -0.424919467770    12.000000000000
         C            0.637700161581     1.317042187551    -0.424966467770    12.000000000000
         C           -0.637083838419    -1.315999812449    -0.839474467770    12.000000000000
         C           -0.820950838419     1.208609187551    -0.839522467770    12.000000000000
         C            1.457358161581     0.105538187551    -0.839322467770    12.000000000000
         H           -2.471277838419    -0.180582812449    -0.846105467770     1.007825032230
         H            1.391156161581    -2.050629812449    -0.845767467770     1.007825032230
         H            1.119695761581     2.312483687551    -0.884194967770     1.007825032230
         H           -0.688281838419    -1.421939812449    -1.931167467770     1.007825032230
         H           -1.073529838419    -2.217364812449    -0.398163467770     1.007825032230
         H           -1.383390838419     2.037243187551    -0.398242467770     1.007825032230
         H           -0.886954838419     1.305974187551    -1.931218467770     1.007825032230
         H            2.456137161581     0.178286187551    -0.397907467770     1.007825032230
         H            1.574825161581     0.114072187551    -1.931003467770     1.007825032230

  Basis Set: AUG-CC-PVTZ
    Blend: AUG-CC-PVTZ
  Basis Set: (AUG-CC-PVTZ AUX)
    Blend: AUG-CC-PVTZ-JKFIT
	 Reference Energy          =    -530.9584540158887194 [Eh]
	 Singles Energy            =      -0.0000000000000000 [Eh]
	 Same-Spin Energy          =      -0.4702081830962823 [Eh]
	 Opposite-Spin Energy      =      -1.4876585543831902 [Eh]
	 Correlation Energy        =      -1.9578667374794725 [Eh]
	 Total Energy              =    -532.9163207533681543 [Eh]

	 ================> DF-SCS-MP2 Energies <==================
	-----------------------------------------------------------
	 SCS Same-Spin Scale       =       0.3333333333333333 [-]
	 SCS Opposite-Spin Scale   =       1.2000000000000000 [-]
	 SCS Same-Spin Energy      =      -0.1567360610320941 [Eh]
	 SCS Opposite-Spin Energy  =      -1.7851902652598282 [Eh]
	 SCS Correlation Energy    =      -1.9419263262919222 [Eh]
	 SCS Total Energy          =    -532.9003803421805969 [Eh]
	-----------------------------------------------------------

  Dipole Moment: [D]
     X:    -0.0359      Y:    -0.0752      Z:    -5.1826     Total:     5.1832

*** Psi4 exiting successfully. Buy a developer a beer!
