                               Psi4 1.4a3.dev225

  ==> Input File <==

--------------------------------------------------------------------------
#psi4
#
memory 32 gb

molecule  {
0 1
  F       -1.6012940    -0.1166020     1.0531380
  F        0.9127448    -1.3066904     1.0543243
  F        0.6995270     1.4450080     1.0533050
  C       -1.4600740    -0.1063430    -0.3396260
  C        0.8221700    -1.2113200    -0.3394270
  C        0.6379870     1.3176500    -0.3394740
  C       -0.6367970    -1.3153920    -0.7539820
  C       -0.8206640     1.2092170    -0.7540300
  C        1.4576450     0.1061460    -0.7538300
  H       -2.4709910    -0.1799750    -0.7606130
  H        1.3914430    -2.0500220    -0.7602750
  H        1.0797340     2.2299680    -0.7603550
  H       -0.6879950    -1.4213320    -1.8456750
  H       -1.0732430    -2.2167570    -0.3126710
  H       -1.3831040     2.0378510    -0.3127500
  H       -0.8866680     1.3065820    -1.8457260
  H        2.4564240     0.1788940    -0.3124150
  H        1.5751120     0.1146800    -1.8455110
units angstrom
no_reorient  #important for SAPT in psi4, default
symmetry c1  #important for SAPT in psi4, default
}

set PROPERTIES_ORIGIN ["COM"]
properties('MP2/aug-cc-pvtz', properties = ['dipole'])
--------------------------------------------------------------------------

    Molecular point group: c1
  Charge       = 0
  Multiplicity = 1
  Basis Set: AUG-CC-PVTZ
    Blend: AUG-CC-PVTZ
  Basis Set: (AUG-CC-PVTZ AUX)
    Blend: AUG-CC-PVTZ-JKFIT

    Orbital Energies [Eh]
    ---------------------

    Doubly Occupied:

       1A    -26.265299     2A    -26.265159     3A    -26.264800
       4A    -11.320198     5A    -11.320140     6A    -11.319850
       7A    -11.244423     8A    -11.243926     9A    -11.243361
      10A     -1.582030    11A     -1.572663    12A     -1.572218
      13A     -1.136616    14A     -1.032731    15A     -1.032484
      16A     -0.871104    17A     -0.871080    18A     -0.779664
      19A     -0.745501    20A     -0.697125    21A     -0.696663
      22A     -0.671412    23A     -0.659609    24A     -0.656543
      25A     -0.656139    26A     -0.641162    27A     -0.640741
      28A     -0.584373    29A     -0.558188    30A     -0.548362
      31A     -0.547674    32A     -0.524294    33A     -0.523771
      34A     -0.520688    35A     -0.454523    36A     -0.454229

  @DF-RHF Final Energy:  -530.96528506193613

   => Energetics <=

    Nuclear Repulsion Energy =            525.7674297149679887
    One-Electron Energy =               -1778.0279397320086900
    Two-Electron Energy =                 721.2952249551046862
    Total Energy =                       -530.9652850619361288
  Basis Set: (AUG-CC-PVTZ AUX)
    Blend: AUG-CC-PVTZ-RI
    Molecular point group: c1

    Geometry (in Angstrom), charge = 0, multiplicity = 1:

       Center              X                  Y                   Z               Mass
    ------------   -----------------  -----------------  -----------------  -----------------
         F           -1.602832994421    -0.119585695804     0.967232506021    18.998403162730
         F            0.911205805579    -1.309674095804     0.968418806021    18.998403162730
         F            0.697988005579     1.442024304196     0.967399506021    18.998403162730
         C           -1.461612994421    -0.109326695804    -0.425531493979    12.000000000000
         C            0.820631005579    -1.214303695804    -0.425332493979    12.000000000000
         C            0.636448005579     1.314666304196    -0.425379493979    12.000000000000
         C           -0.638335994421    -1.318375695804    -0.839887493979    12.000000000000
         C           -0.822202994421     1.206233304196    -0.839935493979    12.000000000000
         C            1.456106005579     0.103162304196    -0.839735493979    12.000000000000
         H           -2.472529994421    -0.182958695804    -0.846518493979     1.007825032230
         H            1.389904005579    -2.053005695804    -0.846180493979     1.007825032230
         H            1.078195005579     2.226984304196    -0.846260493979     1.007825032230
         H           -0.689533994421    -1.424315695804    -1.931580493979     1.007825032230
         H           -1.074781994421    -2.219740695804    -0.398576493979     1.007825032230
         H           -1.384642994421     2.034867304196    -0.398655493979     1.007825032230
         H           -0.888206994421     1.303598304196    -1.931631493979     1.007825032230
         H            2.454885005579     0.175910304196    -0.398320493979     1.007825032230
         H            1.573573005579     0.111696304196    -1.931416493979     1.007825032230

  Basis Set: AUG-CC-PVTZ
    Blend: AUG-CC-PVTZ
  Basis Set: (AUG-CC-PVTZ AUX)
    Blend: AUG-CC-PVTZ-JKFIT
	 Reference Energy          =    -530.9652850619361288 [Eh]
	 Singles Energy            =      -0.0000000000000000 [Eh]
	 Same-Spin Energy          =      -0.4700253545583041 [Eh]
	 Opposite-Spin Energy      =      -1.4866592216290231 [Eh]
	 Correlation Energy        =      -1.9566845761873273 [Eh]
	 Total Energy              =    -532.9219696381234144 [Eh]

	 ================> DF-SCS-MP2 Energies <==================
	-----------------------------------------------------------
	 SCS Same-Spin Scale       =       0.3333333333333333 [-]
	 SCS Opposite-Spin Scale   =       1.2000000000000000 [-]
	 SCS Same-Spin Energy      =      -0.1566751181861014 [Eh]
	 SCS Opposite-Spin Energy  =      -1.7839910659548277 [Eh]
	 SCS Correlation Energy    =      -1.9406661841409292 [Eh]
	 SCS Total Energy          =    -532.9059512460770520 [Eh]
	-----------------------------------------------------------

  Dipole Moment: [D]
     X:    -0.0182      Y:    -0.0322      Z:    -5.2210     Total:     5.2212

*** Psi4 exiting successfully. Buy a developer a beer!
