                               Psi4 1.4a3.dev225

  ==> Input File <==

--------------------------------------------------------------------------
#psi4
#
memory 32 gb

molecule  {
0 1
  F       -1.6012940    -0.1166020     1.0531380
  F        0.9015100    -1.3283660     1.0533570
  F        0.6995270     1.4450080     1.0533050
  C       -1.4600740    -0.1063430    -0.3396260
  C        0.8221700    -1.2113200    -0.3394270
  C        0.6379870     1.3176500    -0.3394740
  C       -0.6367970    -1.3153920    -0.7539820
  C       -0.8206640     1.2092170    -0.7540300
  C        1.4388880     0.1191750    -0.7403224
  H       -2.4709910    -0.1799750    -0.7606130
  H        1.3914430    -2.0500220    -0.7602750
  H        1.0797340     2.2299680    -0.7603550
  H       -0.6879950    -1.4213320    -1.8456750
  H       -1.0732430    -2.2167570    -0.3126710
  H       -1.3831040     2.0378510    -0.3127500
  H       -0.8866680     1.3065820    -1.8457260
  H        2.4564240     0.1788940    -0.3124150
  H        1.5751120     0.1146800    -1.8455110
units angstrom
no_reorient  #important for SAPT in psi4, default
symmetry c1  #important for SAPT in psi4, default
}

set PROPERTIES_ORIGIN ["COM"]
properties('MP2/aug-cc-pvtz', properties = ['dipole'])
--------------------------------------------------------------------------

    Molecular point group: c1
  Charge       = 0
  Multiplicity = 1
  Basis Set: AUG-CC-PVTZ
    Blend: AUG-CC-PVTZ
  Basis Set: (AUG-CC-PVTZ AUX)
    Blend: AUG-CC-PVTZ-JKFIT

    Orbital Energies [Eh]
    ---------------------

    Doubly Occupied:

       1A    -26.265302     2A    -26.264987     3A    -26.264856
       4A    -11.320404     5A    -11.320241     6A    -11.319252
       7A    -11.244958     8A    -11.244038     9A    -11.243831
      10A     -1.582142    11A     -1.572737    12A     -1.572542
      13A     -1.138522    14A     -1.034771    15A     -1.032259
      16A     -0.872854    17A     -0.870172    18A     -0.779217
      19A     -0.746358    20A     -0.697058    21A     -0.696658
      22A     -0.672545    23A     -0.659328    24A     -0.657461
      25A     -0.656657    26A     -0.641372    27A     -0.640299
      28A     -0.584526    29A     -0.557273    30A     -0.548136
      31A     -0.542757    32A     -0.526024    33A     -0.524097
      34A     -0.521494    35A     -0.457770    36A     -0.452883

  @DF-RHF Final Energy:  -530.96445392609246

   => Energetics <=

    Nuclear Repulsion Energy =            526.0315775803186398
    One-Electron Energy =               -1778.5404989492017194
    Two-Electron Energy =                 721.5444674427905056
    Total Energy =                       -530.9644539260924603
  Basis Set: (AUG-CC-PVTZ AUX)
    Blend: AUG-CC-PVTZ-RI
    Molecular point group: c1

    Geometry (in Angstrom), charge = 0, multiplicity = 1:

       Center              X                  Y                   Z               Mass
    ------------   -----------------  -----------------  -----------------  -----------------
         F           -1.599656771311    -0.117735461399     0.966191594972    18.998403162730
         F            0.903147228689    -1.329499461399     0.966410594972    18.998403162730
         F            0.701164228689     1.443874538601     0.966358594972    18.998403162730
         C           -1.458436771311    -0.107476461399    -0.426572405028    12.000000000000
         C            0.823807228689    -1.212453461399    -0.426373405028    12.000000000000
         C            0.639624228689     1.316516538601    -0.426420405028    12.000000000000
         C           -0.635159771311    -1.316525461399    -0.840928405028    12.000000000000
         C           -0.819026771311     1.208083538601    -0.840976405028    12.000000000000
         C            1.440525228689     0.118041538601    -0.827268805028    12.000000000000
         H           -2.469353771311    -0.181108461399    -0.847559405028     1.007825032230
         H            1.393080228689    -2.051155461399    -0.847221405028     1.007825032230
         H            1.081371228689     2.228834538601    -0.847301405028     1.007825032230
         H           -0.686357771311    -1.422465461399    -1.932621405028     1.007825032230
         H           -1.071605771311    -2.217890461399    -0.399617405028     1.007825032230
         H           -1.381466771311     2.036717538601    -0.399696405028     1.007825032230
         H           -0.885030771311     1.305448538601    -1.932672405028     1.007825032230
         H            2.458061228689     0.177760538601    -0.399361405028     1.007825032230
         H            1.576749228689     0.113546538601    -1.932457405028     1.007825032230

  Basis Set: AUG-CC-PVTZ
    Blend: AUG-CC-PVTZ
  Basis Set: (AUG-CC-PVTZ AUX)
    Blend: AUG-CC-PVTZ-JKFIT
	 Reference Energy          =    -530.9644539260924603 [Eh]
	 Singles Energy            =      -0.0000000000000000 [Eh]
	 Same-Spin Energy          =      -0.4702065346154060 [Eh]
	 Opposite-Spin Energy      =      -1.4868410474157416 [Eh]
	 Correlation Energy        =      -1.9570475820311475 [Eh]
	 Total Energy              =    -532.9215015081235833 [Eh]

	 ================> DF-SCS-MP2 Energies <==================
	-----------------------------------------------------------
	 SCS Same-Spin Scale       =       0.3333333333333333 [-]
	 SCS Opposite-Spin Scale   =       1.2000000000000000 [-]
	 SCS Same-Spin Energy      =      -0.1567355115384687 [Eh]
	 SCS Opposite-Spin Energy  =      -1.7842092568988899 [Eh]
	 SCS Correlation Energy    =      -1.9409447684373584 [Eh]
	 SCS Total Energy          =    -532.9053986945298220 [Eh]
	-----------------------------------------------------------

  Dipole Moment: [D]
     X:     0.0007      Y:    -0.0087      Z:    -5.2282     Total:     5.2282

*** Psi4 exiting successfully. Buy a developer a beer!
