                               Psi4 1.4a3.dev225

  ==> Input File <==

--------------------------------------------------------------------------
#psi4
#
memory 32 gb

molecule  {
0 1
  F       -1.6012940    -0.1166020     1.0531380
  F        0.9684368    -1.1980091     1.0527909
  F        0.6995270     1.4450080     1.0533050
  C       -1.4600740    -0.1063430    -0.3396260
  C        0.8221700    -1.2113200    -0.3394270
  C        0.6379870     1.3176500    -0.3394740
  C       -0.6367970    -1.3153920    -0.7539820
  C       -0.8206640     1.2092170    -0.7540300
  C        1.4576450     0.1061460    -0.7538300
  H       -2.4709910    -0.1799750    -0.7606130
  H        1.3914430    -2.0500220    -0.7602750
  H        1.0797340     2.2299680    -0.7603550
  H       -0.6879950    -1.4213320    -1.8456750
  H       -1.0732430    -2.2167570    -0.3126710
  H       -1.3831040     2.0378510    -0.3127500
  H       -0.8866680     1.3065820    -1.8457260
  H        2.4564240     0.1788940    -0.3124150
  H        1.5751120     0.1146800    -1.8455110
units angstrom
no_reorient  #important for SAPT in psi4, default
symmetry c1  #important for SAPT in psi4, default
}

set PROPERTIES_ORIGIN ["COM"]
properties('MP2/aug-cc-pvtz', properties = ['dipole'])
--------------------------------------------------------------------------

    Molecular point group: c1
  Charge       = 0
  Multiplicity = 1
  Basis Set: AUG-CC-PVTZ
    Blend: AUG-CC-PVTZ
  Basis Set: (AUG-CC-PVTZ AUX)
    Blend: AUG-CC-PVTZ-JKFIT

    Orbital Energies [Eh]
    ---------------------

    Doubly Occupied:

       1A    -26.265721     2A    -26.264713     3A    -26.262582
       4A    -11.320621     5A    -11.320253     6A    -11.318496
       7A    -11.246414     8A    -11.243441     9A    -11.240101
      10A     -1.582321    11A     -1.573255    12A     -1.570264
      13A     -1.136018    14A     -1.032926    15A     -1.031438
      16A     -0.870815    17A     -0.870722    18A     -0.779040
      19A     -0.745941    20A     -0.698540    21A     -0.695626
      22A     -0.670896    23A     -0.659255    24A     -0.656192
      25A     -0.653491    26A     -0.642140    27A     -0.639191
      28A     -0.585712    29A     -0.558421    30A     -0.548984
      31A     -0.545156    32A     -0.524457    33A     -0.521678
      34A     -0.518551    35A     -0.455055    36A     -0.453048

  @DF-RHF Final Energy:  -530.96216988832680

   => Energetics <=

    Nuclear Repulsion Energy =            527.0052498370380363
    One-Electron Energy =               -1780.5318845299502755
    Two-Electron Energy =                 722.5644648045854410
    Total Energy =                       -530.9621698883267982
  Basis Set: (AUG-CC-PVTZ AUX)
    Blend: AUG-CC-PVTZ-RI
    Molecular point group: c1

    Geometry (in Angstrom), charge = 0, multiplicity = 1:

       Center              X                  Y                   Z               Mass
    ------------   -----------------  -----------------  -----------------  -----------------
         F           -1.610496444277    -0.134540692802     0.967443508211    18.998403162730
         F            0.959234355723    -1.215947792802     0.967096408211    18.998403162730
         F            0.690324555723     1.427069307198     0.967610508211    18.998403162730
         C           -1.469276444277    -0.124281692802    -0.425320491789    12.000000000000
         C            0.812967555723    -1.229258692802    -0.425121491789    12.000000000000
         C            0.628784555723     1.299711307198    -0.425168491789    12.000000000000
         C           -0.645999444277    -1.333330692802    -0.839676491789    12.000000000000
         C           -0.829866444277     1.191278307198    -0.839724491789    12.000000000000
         C            1.448442555723     0.088207307198    -0.839524491789    12.000000000000
         H           -2.480193444277    -0.197913692802    -0.846307491789     1.007825032230
         H            1.382240555723    -2.067960692802    -0.845969491789     1.007825032230
         H            1.070531555723     2.212029307198    -0.846049491789     1.007825032230
         H           -0.697197444277    -1.439270692802    -1.931369491789     1.007825032230
         H           -1.082445444277    -2.234695692802    -0.398365491789     1.007825032230
         H           -1.392306444277     2.019912307198    -0.398444491789     1.007825032230
         H           -0.895870444277     1.288643307198    -1.931420491789     1.007825032230
         H            2.447221555723     0.160955307198    -0.398109491789     1.007825032230
         H            1.565909555723     0.096741307198    -1.931205491789     1.007825032230

  Basis Set: AUG-CC-PVTZ
    Blend: AUG-CC-PVTZ
  Basis Set: (AUG-CC-PVTZ AUX)
    Blend: AUG-CC-PVTZ-JKFIT
	 Reference Energy          =    -530.9621698883267982 [Eh]
	 Singles Energy            =      -0.0000000000000000 [Eh]
	 Same-Spin Energy          =      -0.4702379271481504 [Eh]
	 Opposite-Spin Energy      =      -1.4869917513366162 [Eh]
	 Correlation Energy        =      -1.9572296784847665 [Eh]
	 Total Energy              =    -532.9193995668115349 [Eh]

	 ================> DF-SCS-MP2 Energies <==================
	-----------------------------------------------------------
	 SCS Same-Spin Scale       =       0.3333333333333333 [-]
	 SCS Opposite-Spin Scale   =       1.2000000000000000 [-]
	 SCS Same-Spin Energy      =      -0.1567459757160501 [Eh]
	 SCS Opposite-Spin Energy  =      -1.7843901016039394 [Eh]
	 SCS Correlation Energy    =      -1.9411360773199895 [Eh]
	 SCS Total Energy          =    -532.9033059656468367 [Eh]
	-----------------------------------------------------------

  Dipole Moment: [D]
     X:    -0.1098      Y:    -0.1942      Z:    -5.1918     Total:     5.1966

*** Psi4 exiting successfully. Buy a developer a beer!
