                               Psi4 1.4a3.dev225

  ==> Input File <==

--------------------------------------------------------------------------
#psi4
#
memory 32 gb

molecule  {
0 1
  F       -1.6012940    -0.1166020     1.0531380
  F        0.9015100    -1.3283660     1.0533570
  F        0.6995270     1.4450080     1.0533050
  C       -1.4600740    -0.1063430    -0.3396260
  C        0.8221700    -1.2113200    -0.3394270
  C        0.6259656     1.3614464    -0.3120277
  C       -0.6367970    -1.3153920    -0.7539820
  C       -0.8206640     1.2092170    -0.7540300
  C        1.4576450     0.1061460    -0.7538300
  H       -2.4709910    -0.1799750    -0.7606130
  H        1.3914430    -2.0500220    -0.7602750
  H        1.0797340     2.2299680    -0.7603550
  H       -0.6879950    -1.4213320    -1.8456750
  H       -1.0732430    -2.2167570    -0.3126710
  H       -1.3831040     2.0378510    -0.3127500
  H       -0.8866680     1.3065820    -1.8457260
  H        2.4564240     0.1788940    -0.3124150
  H        1.5751120     0.1146800    -1.8455110
units angstrom
no_reorient  #important for SAPT in psi4, default
symmetry c1  #important for SAPT in psi4, default
}

set PROPERTIES_ORIGIN ["COM"]
properties('MP2/aug-cc-pvtz', properties = ['dipole'])
--------------------------------------------------------------------------

    Molecular point group: c1
  Charge       = 0
  Multiplicity = 1
  Basis Set: AUG-CC-PVTZ
    Blend: AUG-CC-PVTZ
  Basis Set: (AUG-CC-PVTZ AUX)
    Blend: AUG-CC-PVTZ-JKFIT

    Orbital Energies [Eh]
    ---------------------

    Doubly Occupied:

       1A    -26.273040     2A    -26.265417     3A    -26.264315
       4A    -11.320142     5A    -11.319818     6A    -11.318806
       7A    -11.243097     8A    -11.243082     9A    -11.242882
      10A     -1.593143    11A     -1.577311    12A     -1.572201
      13A     -1.131962    14A     -1.032554    15A     -1.026227
      16A     -0.873975    17A     -0.867937    18A     -0.782705
      19A     -0.746609    20A     -0.702852    21A     -0.698025
      22A     -0.674112    23A     -0.662651    24A     -0.657692
      25A     -0.656092    26A     -0.645528    27A     -0.642326
      28A     -0.586212    29A     -0.559387    30A     -0.548291
      31A     -0.546580    32A     -0.524107    33A     -0.521121
      34A     -0.514440    35A     -0.457057    36A     -0.445268

  @DF-RHF Final Energy:  -530.96403854449829

   => Energetics <=

    Nuclear Repulsion Energy =            525.2273146021793764
    One-Electron Energy =               -1776.9087795516707047
    Two-Electron Energy =                 720.7174264049930343
    Total Energy =                       -530.9640385444982940
  Basis Set: (AUG-CC-PVTZ AUX)
    Blend: AUG-CC-PVTZ-RI
    Molecular point group: c1

    Geometry (in Angstrom), charge = 0, multiplicity = 1:

       Center              X                  Y                   Z               Mass
    ------------   -----------------  -----------------  -----------------  -----------------
         F           -1.600242197222    -0.120409615620     0.964980110302    18.998403162730
         F            0.902561802778    -1.332173615620     0.965199110302    18.998403162730
         F            0.700578802778     1.441200384380     0.965147110302    18.998403162730
         C           -1.459022197222    -0.110150615620    -0.427783889698    12.000000000000
         C            0.823221802778    -1.215127615620    -0.427584889698    12.000000000000
         C            0.627017402778     1.357638784380    -0.400185589698    12.000000000000
         C           -0.635745197222    -1.319199615620    -0.842139889698    12.000000000000
         C           -0.819612197222     1.205409384380    -0.842187889698    12.000000000000
         C            1.458696802778     0.102338384380    -0.841987889698    12.000000000000
         H           -2.469939197222    -0.183782615620    -0.848770889698     1.007825032230
         H            1.392494802778    -2.053829615620    -0.848432889698     1.007825032230
         H            1.080785802778     2.226160384380    -0.848512889698     1.007825032230
         H           -0.686943197222    -1.425139615620    -1.933832889698     1.007825032230
         H           -1.072191197222    -2.220564615620    -0.400828889698     1.007825032230
         H           -1.382052197222     2.034043384380    -0.400907889698     1.007825032230
         H           -0.885616197222     1.302774384380    -1.933883889698     1.007825032230
         H            2.457475802778     0.175086384380    -0.400572889698     1.007825032230
         H            1.576163802778     0.110872384380    -1.933668889698     1.007825032230

  Basis Set: AUG-CC-PVTZ
    Blend: AUG-CC-PVTZ
  Basis Set: (AUG-CC-PVTZ AUX)
    Blend: AUG-CC-PVTZ-JKFIT
	 Reference Energy          =    -530.9640385444982940 [Eh]
	 Singles Energy            =      -0.0000000000000000 [Eh]
	 Same-Spin Energy          =      -0.4696720200200039 [Eh]
	 Opposite-Spin Energy      =      -1.4858786879092751 [Eh]
	 Correlation Energy        =      -1.9555507079292789 [Eh]
	 Total Energy              =    -532.9195892524276132 [Eh]

	 ================> DF-SCS-MP2 Energies <==================
	-----------------------------------------------------------
	 SCS Same-Spin Scale       =       0.3333333333333333 [-]
	 SCS Opposite-Spin Scale   =       1.2000000000000000 [-]
	 SCS Same-Spin Energy      =      -0.1565573400066679 [Eh]
	 SCS Opposite-Spin Energy  =      -1.7830544254911300 [Eh]
	 SCS Correlation Energy    =      -1.9396117654977980 [Eh]
	 SCS Total Energy          =    -532.9036503099961237 [Eh]
	-----------------------------------------------------------

  Dipole Moment: [D]
     X:    -0.0185      Y:     0.1132      Z:    -5.0965     Total:     5.0978

*** Psi4 exiting successfully. Buy a developer a beer!
