                               Psi4 1.4a3.dev225

  ==> Input File <==

--------------------------------------------------------------------------
#psi4
#
memory 32 gb

molecule  {
0 1
  F       -1.6012940    -0.1166020     1.0531380
  F        0.9015100    -1.3283660     1.0533570
  F        0.6995270     1.4450080     1.0533050
  C       -1.4600740    -0.1063430    -0.3396260
  C        0.8221700    -1.2113200    -0.3394270
  C        0.6379870     1.3176500    -0.3394740
  C       -0.6367970    -1.3153920    -0.7539820
  C       -0.8206640     1.2092170    -0.7540300
  C        1.4576450     0.1061460    -0.7538300
  H       -2.4709910    -0.1799750    -0.7606130
  H        1.3914430    -2.0500220    -0.7602750
  H        1.0797340     2.2299680    -0.7603550
  H       -0.6879950    -1.4213320    -1.8456750
  H       -1.0732430    -2.2167570    -0.3126710
  H       -1.3831040     2.0378510    -0.3127500
  H       -0.8836624     1.3021483    -1.7960137
  H        2.4564240     0.1788940    -0.3124150
  H        1.5751120     0.1146800    -1.8455110
units angstrom
no_reorient  #important for SAPT in psi4, default
symmetry c1  #important for SAPT in psi4, default
}

set PROPERTIES_ORIGIN ["COM"]
properties('MP2/aug-cc-pvtz', properties = ['dipole'])
--------------------------------------------------------------------------

    Molecular point group: c1
  Charge       = 0
  Multiplicity = 1
  Basis Set: AUG-CC-PVTZ
    Blend: AUG-CC-PVTZ
  Basis Set: (AUG-CC-PVTZ AUX)
    Blend: AUG-CC-PVTZ-JKFIT

    Orbital Energies [Eh]
    ---------------------

    Doubly Occupied:

       1A    -26.265160     2A    -26.264707     3A    -26.264705
       4A    -11.320083     5A    -11.319696     6A    -11.319688
       7A    -11.244020     8A    -11.244006     9A    -11.237793
      10A     -1.581687    11A     -1.572366    12A     -1.572101
      13A     -1.137525    14A     -1.034781    15A     -1.032577
      16A     -0.872750    17A     -0.870922    18A     -0.781428
      19A     -0.745714    20A     -0.698699    21A     -0.696644
      22A     -0.671256    23A     -0.659473    24A     -0.656746
      25A     -0.656255    26A     -0.641564    27A     -0.640741
      28A     -0.583937    29A     -0.561479    30A     -0.551011
      31A     -0.548090    32A     -0.524934    33A     -0.524050
      34A     -0.520541    35A     -0.454206    36A     -0.454097

  @DF-RHF Final Energy:  -530.96460912195880

   => Energetics <=

    Nuclear Repulsion Energy =            525.8165659504144287
    One-Electron Energy =               -1778.1114878967832738
    Two-Electron Energy =                 721.3303128244101572
    Total Energy =                       -530.9646091219588016
  Basis Set: (AUG-CC-PVTZ AUX)
    Blend: AUG-CC-PVTZ-RI
    Molecular point group: c1

    Geometry (in Angstrom), charge = 0, multiplicity = 1:

       Center              X                  Y                   Z               Mass
    ------------   -----------------  -----------------  -----------------  -----------------
         F           -1.601308979113    -0.116570679199     0.967002730197    18.998403162730
         F            0.901495020887    -1.328334679199     0.967221730197    18.998403162730
         F            0.699512020887     1.445039320801     0.967169730197    18.998403162730
         C           -1.460088979113    -0.106311679199    -0.425761269803    12.000000000000
         C            0.822155020887    -1.211288679199    -0.425562269803    12.000000000000
         C            0.637972020887     1.317681320801    -0.425609269803    12.000000000000
         C           -0.636811979113    -1.315360679199    -0.840117269803    12.000000000000
         C           -0.820678979113     1.209248320801    -0.840165269803    12.000000000000
         C            1.457630020887     0.106177320801    -0.839965269803    12.000000000000
         H           -2.471005979113    -0.179943679199    -0.846748269803     1.007825032230
         H            1.391428020887    -2.049990679199    -0.846410269803     1.007825032230
         H            1.079719020887     2.229999320801    -0.846490269803     1.007825032230
         H           -0.688009979113    -1.421300679199    -1.931810269803     1.007825032230
         H           -1.073257979113    -2.216725679199    -0.398806269803     1.007825032230
         H           -1.383118979113     2.037882320801    -0.398885269803     1.007825032230
         H           -0.883677379113     1.302179620801    -1.882148969803     1.007825032230
         H            2.456409020887     0.178925320801    -0.398550269803     1.007825032230
         H            1.575097020887     0.114711320801    -1.931646269803     1.007825032230

  Basis Set: AUG-CC-PVTZ
    Blend: AUG-CC-PVTZ
  Basis Set: (AUG-CC-PVTZ AUX)
    Blend: AUG-CC-PVTZ-JKFIT
	 Reference Energy          =    -530.9646091219588016 [Eh]
	 Singles Energy            =      -0.0000000000000000 [Eh]
	 Same-Spin Energy          =      -0.4699882842088013 [Eh]
	 Opposite-Spin Energy      =      -1.4863189999877984 [Eh]
	 Correlation Energy        =      -1.9563072841965998 [Eh]
	 Total Energy              =    -532.9209164061553565 [Eh]

	 ================> DF-SCS-MP2 Energies <==================
	-----------------------------------------------------------
	 SCS Same-Spin Scale       =       0.3333333333333333 [-]
	 SCS Opposite-Spin Scale   =       1.2000000000000000 [-]
	 SCS Same-Spin Energy      =      -0.1566627614029338 [Eh]
	 SCS Opposite-Spin Energy  =      -1.7835827999853580 [Eh]
	 SCS Correlation Energy    =      -1.9402455613882916 [Eh]
	 SCS Total Energy          =    -532.9048546833471391 [Eh]
	-----------------------------------------------------------

  Dipole Moment: [D]
     X:    -0.0012      Y:     0.0023      Z:    -5.2452     Total:     5.2452

*** Psi4 exiting successfully. Buy a developer a beer!
