                               Psi4 1.4a3.dev225

  ==> Input File <==

--------------------------------------------------------------------------
#psi4
#
memory 32 gb

molecule  {
0 1
  F       -1.6012940    -0.1166020     1.0531380
  F        0.9015100    -1.3283660     1.0533570
  F        0.6995270     1.4450080     1.0533050
  C       -1.4600740    -0.1063430    -0.3396260
  C        0.8221700    -1.2113200    -0.3394270
  C        0.5574177     1.2777764    -0.3958564
  C       -0.6367970    -1.3153920    -0.7539820
  C       -0.8206640     1.2092170    -0.7540300
  C        1.4576450     0.1061460    -0.7538300
  H       -2.4709910    -0.1799750    -0.7606130
  H        1.3914430    -2.0500220    -0.7602750
  H        1.0797340     2.2299680    -0.7603550
  H       -0.6879950    -1.4213320    -1.8456750
  H       -1.0732430    -2.2167570    -0.3126710
  H       -1.3831040     2.0378510    -0.3127500
  H       -0.8866680     1.3065820    -1.8457260
  H        2.4564240     0.1788940    -0.3124150
  H        1.5751120     0.1146800    -1.8455110
units angstrom
no_reorient  #important for SAPT in psi4, default
symmetry c1  #important for SAPT in psi4, default
}

set PROPERTIES_ORIGIN ["COM"]
properties('MP2/aug-cc-pvtz', properties = ['dipole'])
--------------------------------------------------------------------------

    Molecular point group: c1
  Charge       = 0
  Multiplicity = 1
  Basis Set: AUG-CC-PVTZ
    Blend: AUG-CC-PVTZ
  Basis Set: (AUG-CC-PVTZ AUX)
    Blend: AUG-CC-PVTZ-JKFIT

    Orbital Energies [Eh]
    ---------------------

    Doubly Occupied:

       1A    -26.267041     2A    -26.264979     3A    -26.248569
       4A    -11.322979     5A    -11.322755     6A    -11.320240
       7A    -11.247111     8A    -11.245996     9A    -11.245005
      10A     -1.580378    11A     -1.573141    12A     -1.543402
      13A     -1.149374    14A     -1.046813    15A     -1.033323
      16A     -0.878543    17A     -0.866161    18A     -0.773940
      19A     -0.744942    20A     -0.696629    21A     -0.689113
      22A     -0.671438    23A     -0.666881    24A     -0.654955
      25A     -0.642518    26A     -0.634080    27A     -0.632802
      28A     -0.579685    29A     -0.557261    30A     -0.552665
      31A     -0.545715    32A     -0.535972    33A     -0.524507
      34A     -0.523514    35A     -0.466434    36A     -0.446831

  @DF-RHF Final Energy:  -530.95097251438960

   => Energetics <=

    Nuclear Repulsion Energy =            526.2097175354815590
    One-Electron Energy =               -1778.9299928766283756
    Two-Electron Energy =                 721.7693028267572117
    Total Energy =                       -530.9509725143896048
  Basis Set: (AUG-CC-PVTZ AUX)
    Blend: AUG-CC-PVTZ-RI
    Molecular point group: c1

    Geometry (in Angstrom), charge = 0, multiplicity = 1:

       Center              X                  Y                   Z               Mass
    ------------   -----------------  -----------------  -----------------  -----------------
         F           -1.594284343906    -0.113137422205     0.972266097156    18.998403162730
         F            0.908519656094    -1.324901422205     0.972485097156    18.998403162730
         F            0.706536656094     1.448472577795     0.972433097156    18.998403162730
         C           -1.453064343906    -0.102878422205    -0.420497902844    12.000000000000
         C            0.829179656094    -1.207855422205    -0.420298902844    12.000000000000
         C            0.564427356094     1.281240977795    -0.476728302844    12.000000000000
         C           -0.629787343906    -1.311927422205    -0.834853902844    12.000000000000
         C           -0.813654343906     1.212681577795    -0.834901902844    12.000000000000
         C            1.464654656094     0.109610577795    -0.834701902844    12.000000000000
         H           -2.463981343906    -0.176510422205    -0.841484902844     1.007825032230
         H            1.398452656094    -2.046557422205    -0.841146902844     1.007825032230
         H            1.086743656094     2.233432577795    -0.841226902844     1.007825032230
         H           -0.680985343906    -1.417867422205    -1.926546902844     1.007825032230
         H           -1.066233343906    -2.213292422205    -0.393542902844     1.007825032230
         H           -1.376094343906     2.041315577795    -0.393621902844     1.007825032230
         H           -0.879658343906     1.310046577795    -1.926597902844     1.007825032230
         H            2.463433656094     0.182358577795    -0.393286902844     1.007825032230
         H            1.582121656094     0.118144577795    -1.926382902844     1.007825032230

  Basis Set: AUG-CC-PVTZ
    Blend: AUG-CC-PVTZ
  Basis Set: (AUG-CC-PVTZ AUX)
    Blend: AUG-CC-PVTZ-JKFIT
	 Reference Energy          =    -530.9509725143896048 [Eh]
	 Singles Energy            =      -0.0000000000000000 [Eh]
	 Same-Spin Energy          =      -0.4713624598452978 [Eh]
	 Opposite-Spin Energy      =      -1.4893432912702811 [Eh]
	 Correlation Energy        =      -1.9607057511155790 [Eh]
	 Total Energy              =    -532.9116782655052020 [Eh]

	 ================> DF-SCS-MP2 Energies <==================
	-----------------------------------------------------------
	 SCS Same-Spin Scale       =       0.3333333333333333 [-]
	 SCS Opposite-Spin Scale   =       1.2000000000000000 [-]
	 SCS Same-Spin Energy      =      -0.1571208199484326 [Eh]
	 SCS Opposite-Spin Energy  =      -1.7872119495243373 [Eh]
	 SCS Correlation Energy    =      -1.9443327694727699 [Eh]
	 SCS Total Energy          =    -532.8953052838623989 [Eh]
	-----------------------------------------------------------

  Dipole Moment: [D]
     X:    -0.1975      Y:    -0.1239      Z:    -5.4798     Total:     5.4847

*** Psi4 exiting successfully. Buy a developer a beer!
