                               Psi4 1.4a3.dev225

  ==> Input File <==

--------------------------------------------------------------------------
#psi4
#
memory 32 gb

molecule  {
0 1
  F       -1.6012940    -0.1166020     1.0531380
  F        0.9015100    -1.3283660     1.0533570
  F        0.6019324     1.4403463     1.0546158
  C       -1.4600740    -0.1063430    -0.3396260
  C        0.8221700    -1.2113200    -0.3394270
  C        0.6379870     1.3176500    -0.3394740
  C       -0.6367970    -1.3153920    -0.7539820
  C       -0.8206640     1.2092170    -0.7540300
  C        1.4576450     0.1061460    -0.7538300
  H       -2.4709910    -0.1799750    -0.7606130
  H        1.3914430    -2.0500220    -0.7602750
  H        1.0797340     2.2299680    -0.7603550
  H       -0.6879950    -1.4213320    -1.8456750
  H       -1.0732430    -2.2167570    -0.3126710
  H       -1.3831040     2.0378510    -0.3127500
  H       -0.8866680     1.3065820    -1.8457260
  H        2.4564240     0.1788940    -0.3124150
  H        1.5751120     0.1146800    -1.8455110
units angstrom
no_reorient  #important for SAPT in psi4, default
symmetry c1  #important for SAPT in psi4, default
}

set PROPERTIES_ORIGIN ["COM"]
properties('MP2/aug-cc-pvtz', properties = ['dipole'])
--------------------------------------------------------------------------

    Molecular point group: c1
  Charge       = 0
  Multiplicity = 1
  Basis Set: AUG-CC-PVTZ
    Blend: AUG-CC-PVTZ
  Basis Set: (AUG-CC-PVTZ AUX)
    Blend: AUG-CC-PVTZ-JKFIT

    Orbital Energies [Eh]
    ---------------------

    Doubly Occupied:

       1A    -26.265542     2A    -26.264913     3A    -26.263486
       4A    -11.320454     5A    -11.320217     6A    -11.319048
       7A    -11.245627     8A    -11.243642     9A    -11.241400
      10A     -1.582140    11A     -1.572979    12A     -1.571070
      13A     -1.136267    14A     -1.032857    15A     -1.031866
      16A     -0.870926    17A     -0.870851    18A     -0.779287
      19A     -0.745735    20A     -0.697929    21A     -0.696023
      22A     -0.671020    23A     -0.659370    24A     -0.656309
      25A     -0.654590    26A     -0.641752    27A     -0.639903
      28A     -0.585188    29A     -0.558122    30A     -0.548851
      31A     -0.546197    32A     -0.524423    33A     -0.522377
      34A     -0.519786    35A     -0.454852    36A     -0.453583

  @DF-RHF Final Energy:  -530.96385814381188

   => Energetics <=

    Nuclear Repulsion Energy =            526.4914045913897098
    One-Electron Energy =               -1779.4933524136627057
    Two-Electron Energy =                 722.0380896784611195
    Total Energy =                       -530.9638581438118763
  Basis Set: (AUG-CC-PVTZ AUX)
    Blend: AUG-CC-PVTZ-RI
    Molecular point group: c1

    Geometry (in Angstrom), charge = 0, multiplicity = 1:

       Center              X                  Y                   Z               Mass
    ------------   -----------------  -----------------  -----------------  -----------------
         F           -1.587857618250    -0.115961574244     0.967185238998    18.998403162730
         F            0.914946381750    -1.327725574244     0.967404238998    18.998403162730
         F            0.615368781750     1.440986725756     0.968663038998    18.998403162730
         C           -1.446637618250    -0.105702574244    -0.425578761002    12.000000000000
         C            0.835606381750    -1.210679574244    -0.425379761002    12.000000000000
         C            0.651423381750     1.318290425756    -0.425426761002    12.000000000000
         C           -0.623360618250    -1.314751574244    -0.839934761002    12.000000000000
         C           -0.807227618250     1.209857425756    -0.839982761002    12.000000000000
         C            1.471081381750     0.106786425756    -0.839782761002    12.000000000000
         H           -2.457554618250    -0.179334574244    -0.846565761002     1.007825032230
         H            1.404879381750    -2.049381574244    -0.846227761002     1.007825032230
         H            1.093170381750     2.230608425756    -0.846307761002     1.007825032230
         H           -0.674558618250    -1.420691574244    -1.931627761002     1.007825032230
         H           -1.059806618250    -2.216116574244    -0.398623761002     1.007825032230
         H           -1.369667618250     2.038491425756    -0.398702761002     1.007825032230
         H           -0.873231618250     1.307222425756    -1.931678761002     1.007825032230
         H            2.469860381750     0.179534425756    -0.398367761002     1.007825032230
         H            1.588548381750     0.115320425756    -1.931463761002     1.007825032230

  Basis Set: AUG-CC-PVTZ
    Blend: AUG-CC-PVTZ
  Basis Set: (AUG-CC-PVTZ AUX)
    Blend: AUG-CC-PVTZ-JKFIT
	 Reference Energy          =    -530.9638581438118763 [Eh]
	 Singles Energy            =      -0.0000000000000000 [Eh]
	 Same-Spin Energy          =      -0.4701356074588497 [Eh]
	 Opposite-Spin Energy      =      -1.4868303700418544 [Eh]
	 Correlation Energy        =      -1.9569659775007040 [Eh]
	 Total Energy              =    -532.9208241213125348 [Eh]

	 ================> DF-SCS-MP2 Energies <==================
	-----------------------------------------------------------
	 SCS Same-Spin Scale       =       0.3333333333333333 [-]
	 SCS Opposite-Spin Scale   =       1.2000000000000000 [-]
	 SCS Same-Spin Energy      =      -0.1567118691529499 [Eh]
	 SCS Opposite-Spin Energy  =      -1.7841964440502251 [Eh]
	 SCS Correlation Energy    =      -1.9409083132031750 [Eh]
	 SCS Total Energy          =    -532.9047664570150573 [Eh]
	-----------------------------------------------------------

  Dipole Moment: [D]
     X:     0.1492      Y:     0.0004      Z:    -5.2063     Total:     5.2084

*** Psi4 exiting successfully. Buy a developer a beer!
