                               Psi4 1.4a3.dev225

  ==> Input File <==

--------------------------------------------------------------------------
#psi4
#
memory 32 gb

molecule  {
0 1
  F       -1.6012940    -0.1166020     1.0531380
  F        0.9015100    -1.3283660     1.0533570
  F        0.6995270     1.4450080     1.0533050
  C       -1.4600740    -0.1063430    -0.3396260
  C        0.8221700    -1.2113200    -0.3394270
  C        0.6379870     1.3176500    -0.3394740
  C       -0.6367970    -1.3153920    -0.7539820
  C       -0.8206640     1.2092170    -0.7540300
  C        1.4945727     0.0788882    -0.7804625
  H       -2.4709910    -0.1799750    -0.7606130
  H        1.3914430    -2.0500220    -0.7602750
  H        1.0797340     2.2299680    -0.7603550
  H       -0.6879950    -1.4213320    -1.8456750
  H       -1.0732430    -2.2167570    -0.3126710
  H       -1.3831040     2.0378510    -0.3127500
  H       -0.8866680     1.3065820    -1.8457260
  H        2.4564240     0.1788940    -0.3124150
  H        1.5751120     0.1146800    -1.8455110
units angstrom
no_reorient  #important for SAPT in psi4, default
symmetry c1  #important for SAPT in psi4, default
}

set PROPERTIES_ORIGIN ["COM"]
properties('MP2/aug-cc-pvtz', properties = ['dipole'])
--------------------------------------------------------------------------

    Molecular point group: c1
  Charge       = 0
  Multiplicity = 1
  Basis Set: AUG-CC-PVTZ
    Blend: AUG-CC-PVTZ
  Basis Set: (AUG-CC-PVTZ AUX)
    Blend: AUG-CC-PVTZ-JKFIT

    Orbital Energies [Eh]
    ---------------------

    Doubly Occupied:

       1A    -26.266037     2A    -26.265678     3A    -26.265099
       4A    -11.321602     5A    -11.319874     6A    -11.319795
       7A    -11.244429     8A    -11.243988     9A    -11.242648
      10A     -1.581890    11A     -1.572726    12A     -1.572317
      13A     -1.133617    14A     -1.033600    15A     -1.028907
      16A     -0.873148    17A     -0.868064    18A     -0.780993
      19A     -0.743697    20A     -0.697438    21A     -0.696683
      22A     -0.670215    23A     -0.661254    24A     -0.656709
      25A     -0.654642    26A     -0.642049    27A     -0.640008
      28A     -0.583421    29A     -0.565899    30A     -0.553305
      31A     -0.548128    32A     -0.524465    33A     -0.523460
      34A     -0.516461    35A     -0.457077    36A     -0.446522

  @DF-RHF Final Energy:  -530.96321795551091

   => Energetics <=

    Nuclear Repulsion Energy =            524.5775185039339021
    One-Electron Energy =               -1775.6497886862689484
    Two-Electron Energy =                 720.1090522268242466
    Total Energy =                       -530.9632179555109133
  Basis Set: (AUG-CC-PVTZ AUX)
    Blend: AUG-CC-PVTZ-RI
    Molecular point group: c1

    Geometry (in Angstrom), charge = 0, multiplicity = 1:

       Center              X                  Y                   Z               Mass
    ------------   -----------------  -----------------  -----------------  -----------------
         F           -1.604496617237    -0.114233926779     0.969680379135    18.998403162730
         F            0.898307382763    -1.325997926779     0.969899379135    18.998403162730
         F            0.696324382763     1.447376073221     0.969847379135    18.998403162730
         C           -1.463276617237    -0.103974926779    -0.423083620865    12.000000000000
         C            0.818967382763    -1.208951926779    -0.422884620865    12.000000000000
         C            0.634784382763     1.320018073221    -0.422931620865    12.000000000000
         C           -0.639999617237    -1.313023926779    -0.837439620865    12.000000000000
         C           -0.823866617237     1.211585073221    -0.837487620865    12.000000000000
         C            1.491370082763     0.081256273221    -0.863920120865    12.000000000000
         H           -2.474193617237    -0.177606926779    -0.844070620865     1.007825032230
         H            1.388240382763    -2.047653926779    -0.843732620865     1.007825032230
         H            1.076531382763     2.232336073221    -0.843812620865     1.007825032230
         H           -0.691197617237    -1.418963926779    -1.929132620865     1.007825032230
         H           -1.076445617237    -2.214388926779    -0.396128620865     1.007825032230
         H           -1.386306617237     2.040219073221    -0.396207620865     1.007825032230
         H           -0.889870617237     1.308950073221    -1.929183620865     1.007825032230
         H            2.453221382763     0.181262073221    -0.395872620865     1.007825032230
         H            1.571909382763     0.117048073221    -1.928968620865     1.007825032230

  Basis Set: AUG-CC-PVTZ
    Blend: AUG-CC-PVTZ
  Basis Set: (AUG-CC-PVTZ AUX)
    Blend: AUG-CC-PVTZ-JKFIT
	 Reference Energy          =    -530.9632179555109133 [Eh]
	 Singles Energy            =      -0.0000000000000000 [Eh]
	 Same-Spin Energy          =      -0.4697518963947498 [Eh]
	 Opposite-Spin Energy      =      -1.4864981464059031 [Eh]
	 Correlation Energy        =      -1.9562500428006528 [Eh]
	 Total Energy              =    -532.9194679983115748 [Eh]

	 ================> DF-SCS-MP2 Energies <==================
	-----------------------------------------------------------
	 SCS Same-Spin Scale       =       0.3333333333333333 [-]
	 SCS Opposite-Spin Scale   =       1.2000000000000000 [-]
	 SCS Same-Spin Energy      =      -0.1565839654649166 [Eh]
	 SCS Opposite-Spin Energy  =      -1.7837977756870835 [Eh]
	 SCS Correlation Energy    =      -1.9403817411520001 [Eh]
	 SCS Total Energy          =    -532.9035996966629227 [Eh]
	-----------------------------------------------------------

  Dipole Moment: [D]
     X:    -0.0033      Y:     0.0164      Z:    -5.2143     Total:     5.2143

*** Psi4 exiting successfully. Buy a developer a beer!
