                               Psi4 1.4a3.dev225

  ==> Input File <==

--------------------------------------------------------------------------
#psi4
#
memory 32 gb

molecule  {
0 1
  F       -1.6012940    -0.1166020     1.0531380
  F        0.9015100    -1.3283660     1.0533570
  F        0.6995270     1.4450080     1.0533050
  C       -1.4600740    -0.1063430    -0.3396260
  C        0.8221700    -1.2113200    -0.3394270
  C        0.6379870     1.3176500    -0.3394740
  C       -0.6476275    -1.2994865    -0.7485310
  C       -0.8206640     1.2092170    -0.7540300
  C        1.4576450     0.1061460    -0.7538300
  H       -2.4709910    -0.1799750    -0.7606130
  H        1.3914430    -2.0500220    -0.7602750
  H        1.0797340     2.2299680    -0.7603550
  H       -0.6879950    -1.4213320    -1.8456750
  H       -1.0732430    -2.2167570    -0.3126710
  H       -1.3831040     2.0378510    -0.3127500
  H       -0.8866680     1.3065820    -1.8457260
  H        2.4564240     0.1788940    -0.3124150
  H        1.5751120     0.1146800    -1.8455110
units angstrom
no_reorient  #important for SAPT in psi4, default
symmetry c1  #important for SAPT in psi4, default
}

set PROPERTIES_ORIGIN ["COM"]
properties('MP2/aug-cc-pvtz', properties = ['dipole'])
--------------------------------------------------------------------------

    Molecular point group: c1
  Charge       = 0
  Multiplicity = 1
  Basis Set: AUG-CC-PVTZ
    Blend: AUG-CC-PVTZ
  Basis Set: (AUG-CC-PVTZ AUX)
    Blend: AUG-CC-PVTZ-JKFIT

    Orbital Energies [Eh]
    ---------------------

    Doubly Occupied:

       1A    -26.265258     2A    -26.265208     3A    -26.265047
       4A    -11.320606     5A    -11.320167     6A    -11.319326
       7A    -11.244498     8A    -11.244072     9A    -11.243831
      10A     -1.582101    11A     -1.572734    12A     -1.572517
      13A     -1.137678    14A     -1.034542    15A     -1.031674
      16A     -0.872279    17A     -0.870332    18A     -0.779557
      19A     -0.745910    20A     -0.697123    21A     -0.696704
      22A     -0.672045    23A     -0.659486    24A     -0.657056
      25A     -0.656584    26A     -0.641285    27A     -0.640568
      28A     -0.584328    29A     -0.557796    30A     -0.548128
      31A     -0.545528    32A     -0.525851    33A     -0.523948
      34A     -0.520787    35A     -0.456925    36A     -0.452602

  @DF-RHF Final Energy:  -530.96491299581226

   => Energetics <=

    Nuclear Repulsion Energy =            525.7831936414105485
    One-Electron Energy =               -1778.0480491120410989
    Two-Electron Energy =                 721.2999424748184083
    Total Energy =                       -530.9649129958122558
  Basis Set: (AUG-CC-PVTZ AUX)
    Blend: AUG-CC-PVTZ-RI
    Molecular point group: c1

    Geometry (in Angstrom), charge = 0, multiplicity = 1:

       Center              X                  Y                   Z               Mass
    ------------   -----------------  -----------------  -----------------  -----------------
         F           -1.600345704514    -0.117985472925     0.966891835841    18.998403162730
         F            0.902458295486    -1.329749472925     0.967110835841    18.998403162730
         F            0.700475295486     1.443624527075     0.967058835841    18.998403162730
         C           -1.459125704514    -0.107726472925    -0.425872164159    12.000000000000
         C            0.823118295486    -1.212703472925    -0.425673164159    12.000000000000
         C            0.638935295486     1.316266527075    -0.425720164159    12.000000000000
         C           -0.646679204514    -1.300869972925    -0.834777164159    12.000000000000
         C           -0.819715704514     1.207833527075    -0.840276164159    12.000000000000
         C            1.458593295486     0.104762527075    -0.840076164159    12.000000000000
         H           -2.470042704514    -0.181358472925    -0.846859164159     1.007825032230
         H            1.392391295486    -2.051405472925    -0.846521164159     1.007825032230
         H            1.080682295486     2.228584527075    -0.846601164159     1.007825032230
         H           -0.687046704514    -1.422715472925    -1.931921164159     1.007825032230
         H           -1.072294704514    -2.218140472925    -0.398917164159     1.007825032230
         H           -1.382155704514     2.036467527075    -0.398996164159     1.007825032230
         H           -0.885719704514     1.305198527075    -1.931972164159     1.007825032230
         H            2.457372295486     0.177510527075    -0.398661164159     1.007825032230
         H            1.576060295486     0.113296527075    -1.931757164159     1.007825032230

  Basis Set: AUG-CC-PVTZ
    Blend: AUG-CC-PVTZ
  Basis Set: (AUG-CC-PVTZ AUX)
    Blend: AUG-CC-PVTZ-JKFIT
	 Reference Energy          =    -530.9649129958122558 [Eh]
	 Singles Energy            =      -0.0000000000000000 [Eh]
	 Same-Spin Energy          =      -0.4701117285668247 [Eh]
	 Opposite-Spin Energy      =      -1.4867416971209071 [Eh]
	 Correlation Energy        =      -1.9568534256877319 [Eh]
	 Total Energy              =    -532.9217664215000241 [Eh]

	 ================> DF-SCS-MP2 Energies <==================
	-----------------------------------------------------------
	 SCS Same-Spin Scale       =       0.3333333333333333 [-]
	 SCS Opposite-Spin Scale   =       1.2000000000000000 [-]
	 SCS Same-Spin Energy      =      -0.1567039095222749 [Eh]
	 SCS Opposite-Spin Energy  =      -1.7840900365450885 [Eh]
	 SCS Correlation Energy    =      -1.9407939460673633 [Eh]
	 SCS Total Energy          =    -532.9057069418796573 [Eh]
	-----------------------------------------------------------

  Dipole Moment: [D]
     X:     0.0092      Y:    -0.0047      Z:    -5.2267     Total:     5.2267

*** Psi4 exiting successfully. Buy a developer a beer!
