                               Psi4 1.4a3.dev225

  ==> Input File <==

--------------------------------------------------------------------------
#psi4
#
memory 32 gb

molecule  {
0 1
  F       -1.6012940    -0.1166020     1.0531380
  F        0.9015100    -1.3283660     1.0533570
  F        0.6995270     1.4450080     1.0533050
  C       -1.4600740    -0.1063430    -0.3396260
  C        0.8221700    -1.2113200    -0.3394270
  C        0.6379870     1.3176500    -0.3394740
  C       -0.6638734    -1.2756282    -0.7403544
  C       -0.8206640     1.2092170    -0.7540300
  C        1.4576450     0.1061460    -0.7538300
  H       -2.4709910    -0.1799750    -0.7606130
  H        1.3914430    -2.0500220    -0.7602750
  H        1.0797340     2.2299680    -0.7603550
  H       -0.6879950    -1.4213320    -1.8456750
  H       -1.0732430    -2.2167570    -0.3126710
  H       -1.3831040     2.0378510    -0.3127500
  H       -0.8866680     1.3065820    -1.8457260
  H        2.4564240     0.1788940    -0.3124150
  H        1.5751120     0.1146800    -1.8455110
units angstrom
no_reorient  #important for SAPT in psi4, default
symmetry c1  #important for SAPT in psi4, default
}

set PROPERTIES_ORIGIN ["COM"]
properties('MP2/aug-cc-pvtz', properties = ['dipole'])
--------------------------------------------------------------------------

    Molecular point group: c1
  Charge       = 0
  Multiplicity = 1
  Basis Set: AUG-CC-PVTZ
    Blend: AUG-CC-PVTZ
  Basis Set: (AUG-CC-PVTZ AUX)
    Blend: AUG-CC-PVTZ-JKFIT

    Orbital Energies [Eh]
    ---------------------

    Doubly Occupied:

       1A    -26.265312     2A    -26.265179     3A    -26.264805
       4A    -11.321423     5A    -11.320257     6A    -11.318018
       7A    -11.245379     8A    -11.244171     9A    -11.243574
      10A     -1.582228    11A     -1.572964    12A     -1.572426
      13A     -1.139339    14A     -1.037545    15A     -1.030184
      16A     -0.874025    17A     -0.869008    18A     -0.779219
      19A     -0.746638    20A     -0.697547    21A     -0.696460
      22A     -0.672901    23A     -0.660162    24A     -0.657077
      25A     -0.656378    26A     -0.641689    27A     -0.639890
      28A     -0.584718    29A     -0.557423    30A     -0.548142
      31A     -0.541139    32A     -0.529283    33A     -0.523842
      34A     -0.519425    35A     -0.460191    36A     -0.449620

  @DF-RHF Final Energy:  -530.96243679606198

   => Energetics <=

    Nuclear Repulsion Energy =            526.1552995653738662
    One-Electron Energy =               -1778.7803072478243394
    Two-Electron Energy =                 721.6625708863883801
    Total Energy =                       -530.9624367960619793
  Basis Set: (AUG-CC-PVTZ AUX)
    Blend: AUG-CC-PVTZ-RI
    Molecular point group: c1

    Geometry (in Angstrom), charge = 0, multiplicity = 1:

       Center              X                  Y                   Z               Mass
    ------------   -----------------  -----------------  -----------------  -----------------
         F           -1.598933689133    -0.120059121450     0.966181165150    18.998403162730
         F            0.903870310867    -1.331823121450     0.966400165150    18.998403162730
         F            0.701887310867     1.441550878550     0.966348165150    18.998403162730
         C           -1.457713689133    -0.109800121450    -0.426582834850    12.000000000000
         C            0.824530310867    -1.214777121450    -0.426383834850    12.000000000000
         C            0.640347310867     1.314192878550    -0.426430834850    12.000000000000
         C           -0.661513089133    -1.279085321450    -0.827311234850    12.000000000000
         C           -0.818303689133     1.205759878550    -0.840986834850    12.000000000000
         C            1.460005310867     0.102688878550    -0.840786834850    12.000000000000
         H           -2.468630689133    -0.183432121450    -0.847569834850     1.007825032230
         H            1.393803310867    -2.053479121450    -0.847231834850     1.007825032230
         H            1.082094310867     2.226510878550    -0.847311834850     1.007825032230
         H           -0.685634689133    -1.424789121450    -1.932631834850     1.007825032230
         H           -1.070882689133    -2.220214121450    -0.399627834850     1.007825032230
         H           -1.380743689133     2.034393878550    -0.399706834850     1.007825032230
         H           -0.884307689133     1.303124878550    -1.932682834850     1.007825032230
         H            2.458784310867     0.175436878550    -0.399371834850     1.007825032230
         H            1.577472310867     0.111222878550    -1.932467834850     1.007825032230

  Basis Set: AUG-CC-PVTZ
    Blend: AUG-CC-PVTZ
  Basis Set: (AUG-CC-PVTZ AUX)
    Blend: AUG-CC-PVTZ-JKFIT
	 Reference Energy          =    -530.9624367960619793 [Eh]
	 Singles Energy            =      -0.0000000000000000 [Eh]
	 Same-Spin Energy          =      -0.4703492521537018 [Eh]
	 Opposite-Spin Energy      =      -1.4870466259917667 [Eh]
	 Correlation Energy        =      -1.9573958781454686 [Eh]
	 Total Energy              =    -532.9198326742074414 [Eh]

	 ================> DF-SCS-MP2 Energies <==================
	-----------------------------------------------------------
	 SCS Same-Spin Scale       =       0.3333333333333333 [-]
	 SCS Opposite-Spin Scale   =       1.2000000000000000 [-]
	 SCS Same-Spin Energy      =      -0.1567830840512339 [Eh]
	 SCS Opposite-Spin Energy  =      -1.7844559511901201 [Eh]
	 SCS Correlation Energy    =      -1.9412390352413540 [Eh]
	 SCS Total Energy          =    -532.9036758313033033 [Eh]
	-----------------------------------------------------------

  Dipole Moment: [D]
     X:     0.0231      Y:    -0.0112      Z:    -5.2304     Total:     5.2305

*** Psi4 exiting successfully. Buy a developer a beer!
