                               Psi4 1.4a3.dev225

  ==> Input File <==

--------------------------------------------------------------------------
#psi4
#
memory 32 gb

molecule  {
0 1
  F       -1.6012940    -0.1166020     1.0531380
  F        0.9015100    -1.3283660     1.0533570
  F        0.7238974     1.4460773     1.0519161
  C       -1.4600740    -0.1063430    -0.3396260
  C        0.8221700    -1.2113200    -0.3394270
  C        0.6379870     1.3176500    -0.3394740
  C       -0.6367970    -1.3153920    -0.7539820
  C       -0.8206640     1.2092170    -0.7540300
  C        1.4576450     0.1061460    -0.7538300
  H       -2.4709910    -0.1799750    -0.7606130
  H        1.3914430    -2.0500220    -0.7602750
  H        1.0797340     2.2299680    -0.7603550
  H       -0.6879950    -1.4213320    -1.8456750
  H       -1.0732430    -2.2167570    -0.3126710
  H       -1.3831040     2.0378510    -0.3127500
  H       -0.8866680     1.3065820    -1.8457260
  H        2.4564240     0.1788940    -0.3124150
  H        1.5751120     0.1146800    -1.8455110
units angstrom
no_reorient  #important for SAPT in psi4, default
symmetry c1  #important for SAPT in psi4, default
}

set PROPERTIES_ORIGIN ["COM"]
properties('MP2/aug-cc-pvtz', properties = ['dipole'])
--------------------------------------------------------------------------

    Molecular point group: c1
  Charge       = 0
  Multiplicity = 1
  Basis Set: AUG-CC-PVTZ
    Blend: AUG-CC-PVTZ
  Basis Set: (AUG-CC-PVTZ AUX)
    Blend: AUG-CC-PVTZ-JKFIT

    Orbital Energies [Eh]
    ---------------------

    Doubly Occupied:

       1A    -26.265644     2A    -26.265283     3A    -26.265154
       4A    -11.320366     5A    -11.320078     6A    -11.320021
       7A    -11.244670     8A    -11.244103     9A    -11.243605
      10A     -1.582051    11A     -1.572941    12A     -1.572515
      13A     -1.136832    14A     -1.032877    15A     -1.032630
      16A     -0.871255    17A     -0.871228    18A     -0.779916
      19A     -0.745390    20A     -0.697113    21A     -0.696661
      22A     -0.671797    23A     -0.659831    24A     -0.657099
      25A     -0.656707    26A     -0.641160    27A     -0.640765
      28A     -0.583815    29A     -0.558615    30A     -0.548550
      31A     -0.547857    32A     -0.524659    33A     -0.524160
      34A     -0.520924    35A     -0.454564    36A     -0.454284

  @DF-RHF Final Energy:  -530.96553321410192

   => Energetics <=

    Nuclear Repulsion Energy =            525.3152683189679237
    One-Electron Energy =               -1777.1113683470714477
    Two-Electron Energy =                 720.8305668140014859
    Total Energy =                       -530.9655332141019244
  Basis Set: (AUG-CC-PVTZ AUX)
    Blend: AUG-CC-PVTZ-RI
    Molecular point group: c1

    Geometry (in Angstrom), charge = 0, multiplicity = 1:

       Center              X                  Y                   Z               Mass
    ------------   -----------------  -----------------  -----------------  -----------------
         F           -1.604640507384    -0.116750183580     0.967556728899    18.998403162730
         F            0.898163492616    -1.328514183580     0.967775728899    18.998403162730
         F            0.720550892616     1.445929116420     0.966334828899    18.998403162730
         C           -1.463420507384    -0.106491183580    -0.425207271101    12.000000000000
         C            0.818823492616    -1.211468183580    -0.425008271101    12.000000000000
         C            0.634640492616     1.317501816420    -0.425055271101    12.000000000000
         C           -0.640143507384    -1.315540183580    -0.839563271101    12.000000000000
         C           -0.824010507384     1.209068816420    -0.839611271101    12.000000000000
         C            1.454298492616     0.105997816420    -0.839411271101    12.000000000000
         H           -2.474337507384    -0.180123183580    -0.846194271101     1.007825032230
         H            1.388096492616    -2.050170183580    -0.845856271101     1.007825032230
         H            1.076387492616     2.229819816420    -0.845936271101     1.007825032230
         H           -0.691341507384    -1.421480183580    -1.931256271101     1.007825032230
         H           -1.076589507384    -2.216905183580    -0.398252271101     1.007825032230
         H           -1.386450507384     2.037702816420    -0.398331271101     1.007825032230
         H           -0.890014507384     1.306433816420    -1.931307271101     1.007825032230
         H            2.453077492616     0.178745816420    -0.397996271101     1.007825032230
         H            1.571765492616     0.114531816420    -1.931092271101     1.007825032230

  Basis Set: AUG-CC-PVTZ
    Blend: AUG-CC-PVTZ
  Basis Set: (AUG-CC-PVTZ AUX)
    Blend: AUG-CC-PVTZ-JKFIT
	 Reference Energy          =    -530.9655332141019244 [Eh]
	 Singles Energy            =      -0.0000000000000000 [Eh]
	 Same-Spin Energy          =      -0.4699790725342100 [Eh]
	 Opposite-Spin Energy      =      -1.4865904136083126 [Eh]
	 Correlation Energy        =      -1.9565694861425227 [Eh]
	 Total Energy              =    -532.9221027002444089 [Eh]

	 ================> DF-SCS-MP2 Energies <==================
	-----------------------------------------------------------
	 SCS Same-Spin Scale       =       0.3333333333333333 [-]
	 SCS Opposite-Spin Scale   =       1.2000000000000000 [-]
	 SCS Same-Spin Energy      =      -0.1566596908447367 [Eh]
	 SCS Opposite-Spin Energy  =      -1.7839084963299749 [Eh]
	 SCS Correlation Energy    =      -1.9405681871747116 [Eh]
	 SCS Total Energy          =    -532.9061014012766009 [Eh]
	-----------------------------------------------------------

  Dipole Moment: [D]
     X:    -0.0366      Y:     0.0002      Z:    -5.2264     Total:     5.2265

*** Psi4 exiting successfully. Buy a developer a beer!
