                               Psi4 1.4a3.dev225

  ==> Input File <==

--------------------------------------------------------------------------
#psi4
#
memory 32 gb

molecule  {
0 1
  F       -1.6012940    -0.1166020     1.0531380
  F        0.9015100    -1.3283660     1.0533570
  F        0.7482415     1.4471075     1.0501034
  C       -1.4600740    -0.1063430    -0.3396260
  C        0.8221700    -1.2113200    -0.3394270
  C        0.6379870     1.3176500    -0.3394740
  C       -0.6367970    -1.3153920    -0.7539820
  C       -0.8206640     1.2092170    -0.7540300
  C        1.4576450     0.1061460    -0.7538300
  H       -2.4709910    -0.1799750    -0.7606130
  H        1.3914430    -2.0500220    -0.7602750
  H        1.0797340     2.2299680    -0.7603550
  H       -0.6879950    -1.4213320    -1.8456750
  H       -1.0732430    -2.2167570    -0.3126710
  H       -1.3831040     2.0378510    -0.3127500
  H       -0.8866680     1.3065820    -1.8457260
  H        2.4564240     0.1788940    -0.3124150
  H        1.5751120     0.1146800    -1.8455110
units angstrom
no_reorient  #important for SAPT in psi4, default
symmetry c1  #important for SAPT in psi4, default
}

set PROPERTIES_ORIGIN ["COM"]
properties('MP2/aug-cc-pvtz', properties = ['dipole'])
--------------------------------------------------------------------------

    Molecular point group: c1
  Charge       = 0
  Multiplicity = 1
  Basis Set: AUG-CC-PVTZ
    Blend: AUG-CC-PVTZ
  Basis Set: (AUG-CC-PVTZ AUX)
    Blend: AUG-CC-PVTZ-JKFIT

    Orbital Energies [Eh]
    ---------------------

    Doubly Occupied:

       1A    -26.266057     2A    -26.265333     3A    -26.265087
       4A    -11.320617     5A    -11.320043     6A    -11.319932
       7A    -11.245322     8A    -11.244188     9A    -11.243190
      10A     -1.582087    11A     -1.573289    12A     -1.572458
      13A     -1.136934    14A     -1.033069    15A     -1.032575
      16A     -0.871349    17A     -0.871290    18A     -0.780041
      19A     -0.745346    20A     -0.697343    21A     -0.696451
      22A     -0.672023    23A     -0.659963    24A     -0.657560
      25A     -0.656784    26A     -0.641331    27A     -0.640565
      28A     -0.583533    29A     -0.558940    30A     -0.548944
      31A     -0.547562    32A     -0.525049    33A     -0.524082
      34A     -0.520970    35A     -0.454703    36A     -0.454159

  @DF-RHF Final Energy:  -530.96545322490442

   => Energetics <=

    Nuclear Repulsion Energy =            525.0981570817021975
    One-Electron Energy =               -1776.6708790607183346
    Two-Electron Energy =                 720.6072687541116011
    Total Energy =                       -530.9654532249044223
  Basis Set: (AUG-CC-PVTZ AUX)
    Blend: AUG-CC-PVTZ-RI
    Molecular point group: c1

    Geometry (in Angstrom), charge = 0, multiplicity = 1:

       Center              X                  Y                   Z               Mass
    ------------   -----------------  -----------------  -----------------  -----------------
         F           -1.607990356368    -0.116891943367     0.967806163927    18.998403162730
         F            0.894813643632    -1.328655943367     0.968025163927    18.998403162730
         F            0.741545143632     1.446817556633     0.964771563927    18.998403162730
         C           -1.466770356368    -0.106632943367    -0.424957836073    12.000000000000
         C            0.815473643632    -1.211609943367    -0.424758836073    12.000000000000
         C            0.631290643632     1.317360056633    -0.424805836073    12.000000000000
         C           -0.643493356368    -1.315681943367    -0.839313836073    12.000000000000
         C           -0.827360356368     1.208927056633    -0.839361836073    12.000000000000
         C            1.450948643632     0.105856056633    -0.839161836073    12.000000000000
         H           -2.477687356368    -0.180264943367    -0.845944836073     1.007825032230
         H            1.384746643632    -2.050311943367    -0.845606836073     1.007825032230
         H            1.073037643632     2.229678056633    -0.845686836073     1.007825032230
         H           -0.694691356368    -1.421621943367    -1.931006836073     1.007825032230
         H           -1.079939356368    -2.217046943367    -0.398002836073     1.007825032230
         H           -1.389800356368     2.037561056633    -0.398081836073     1.007825032230
         H           -0.893364356368     1.306292056633    -1.931057836073     1.007825032230
         H            2.449727643632     0.178604056633    -0.397746836073     1.007825032230
         H            1.568415643632     0.114390056633    -1.930842836073     1.007825032230

  Basis Set: AUG-CC-PVTZ
    Blend: AUG-CC-PVTZ
  Basis Set: (AUG-CC-PVTZ AUX)
    Blend: AUG-CC-PVTZ-JKFIT
	 Reference Energy          =    -530.9654532249044223 [Eh]
	 Singles Energy            =      -0.0000000000000000 [Eh]
	 Same-Spin Energy          =      -0.4699637611151739 [Eh]
	 Opposite-Spin Energy      =      -1.4865692695036725 [Eh]
	 Correlation Energy        =      -1.9565330306188464 [Eh]
	 Total Energy              =    -532.9219862555232794 [Eh]

	 ================> DF-SCS-MP2 Energies <==================
	-----------------------------------------------------------
	 SCS Same-Spin Scale       =       0.3333333333333333 [-]
	 SCS Opposite-Spin Scale   =       1.2000000000000000 [-]
	 SCS Same-Spin Energy      =      -0.1566545870383913 [Eh]
	 SCS Opposite-Spin Energy  =      -1.7838831234044070 [Eh]
	 SCS Correlation Energy    =      -1.9405377104427983 [Eh]
	 SCS Total Energy          =    -532.9059909353471767 [Eh]
	-----------------------------------------------------------

  Dipole Moment: [D]
     X:    -0.0735      Y:     0.0006      Z:    -5.2277     Total:     5.2282

*** Psi4 exiting successfully. Buy a developer a beer!
