                               Psi4 1.4a3.dev225

  ==> Input File <==

--------------------------------------------------------------------------
#psi4
#
memory 32 gb

molecule  {
0 1
  F       -1.6012940    -0.1166020     1.0531380
  F        0.9015100    -1.3283660     1.0533570
  F        0.6995270     1.4450080     1.0533050
  C       -1.4600740    -0.1063430    -0.3396260
  C        0.8221700    -1.2113200    -0.3394270
  C        0.6379870     1.3176500    -0.3394740
  C       -0.6367970    -1.3153920    -0.7539820
  C       -0.8206640     1.2092170    -0.7540300
  C        1.5659265     0.0196920    -0.8320837
  H       -2.4709910    -0.1799750    -0.7606130
  H        1.3914430    -2.0500220    -0.7602750
  H        1.0797340     2.2299680    -0.7603550
  H       -0.6879950    -1.4213320    -1.8456750
  H       -1.0732430    -2.2167570    -0.3126710
  H       -1.3831040     2.0378510    -0.3127500
  H       -0.8866680     1.3065820    -1.8457260
  H        2.4564240     0.1788940    -0.3124150
  H        1.5751120     0.1146800    -1.8455110
units angstrom
no_reorient  #important for SAPT in psi4, default
symmetry c1  #important for SAPT in psi4, default
}

set PROPERTIES_ORIGIN ["COM"]
properties('MP2/aug-cc-pvtz', properties = ['dipole'])
--------------------------------------------------------------------------

    Molecular point group: c1
  Charge       = 0
  Multiplicity = 1
  Basis Set: AUG-CC-PVTZ
    Blend: AUG-CC-PVTZ
  Basis Set: (AUG-CC-PVTZ AUX)
    Blend: AUG-CC-PVTZ-JKFIT

    Orbital Energies [Eh]
    ---------------------

    Doubly Occupied:

       1A    -26.267916     2A    -26.266490     3A    -26.264942
       4A    -11.323713     5A    -11.320178     6A    -11.319501
       7A    -11.245402     8A    -11.243980     9A    -11.242197
      10A     -1.581899    11A     -1.573199    12A     -1.571924
      13A     -1.128994    14A     -1.035697    15A     -1.022882
      16A     -0.876939    17A     -0.863071    18A     -0.783437
      19A     -0.740709    20A     -0.699082    21A     -0.696773
      22A     -0.668942    23A     -0.664999    24A     -0.657477
      25A     -0.652072    26A     -0.643400    27A     -0.637688
      28A     -0.588224    29A     -0.581591    30A     -0.554245
      31A     -0.548194    32A     -0.524479    33A     -0.523630
      34A     -0.507359    35A     -0.461190    36A     -0.426325

  @DF-RHF Final Energy:  -530.94406899685441

   => Energetics <=

    Nuclear Repulsion Energy =            522.7501004810984568
    One-Electron Energy =               -1771.9708629698839104
    Two-Electron Energy =                 718.2766934919311552
    Total Energy =                       -530.9440689968544120
  Basis Set: (AUG-CC-PVTZ AUX)
    Blend: AUG-CC-PVTZ-RI
    Molecular point group: c1

    Geometry (in Angstrom), charge = 0, multiplicity = 1:

       Center              X                  Y                   Z               Mass
    ------------   -----------------  -----------------  -----------------  -----------------
         F           -1.610698345867    -0.109088878186     0.974167045212    18.998403162730
         F            0.892105654133    -1.320852878186     0.974386045212    18.998403162730
         F            0.690122654133     1.452521121814     0.974334045212    18.998403162730
         C           -1.469478345867    -0.098829878186    -0.418596954788    12.000000000000
         C            0.812765654133    -1.203806878186    -0.418397954788    12.000000000000
         C            0.628582654133     1.325163121814    -0.418444954788    12.000000000000
         C           -0.646201345867    -1.307878878186    -0.832952954788    12.000000000000
         C           -0.830068345867     1.216730121814    -0.833000954788    12.000000000000
         C            1.556522154133     0.027205121814    -0.911054654788    12.000000000000
         H           -2.480395345867    -0.172461878186    -0.839583954788     1.007825032230
         H            1.382038654133    -2.042508878186    -0.839245954788     1.007825032230
         H            1.070329654133     2.237481121814    -0.839325954788     1.007825032230
         H           -0.697399345867    -1.413818878186    -1.924645954788     1.007825032230
         H           -1.082647345867    -2.209243878186    -0.391641954788     1.007825032230
         H           -1.392508345867     2.045364121814    -0.391720954788     1.007825032230
         H           -0.896072345867     1.314095121814    -1.924696954788     1.007825032230
         H            2.447019654133     0.186407121814    -0.391385954788     1.007825032230
         H            1.565707654133     0.122193121814    -1.924481954788     1.007825032230

  Basis Set: AUG-CC-PVTZ
    Blend: AUG-CC-PVTZ
  Basis Set: (AUG-CC-PVTZ AUX)
    Blend: AUG-CC-PVTZ-JKFIT
	 Reference Energy          =    -530.9440689968544120 [Eh]
	 Singles Energy            =      -0.0000000000000000 [Eh]
	 Same-Spin Energy          =      -0.4698902593637746 [Eh]
	 Opposite-Spin Energy      =      -1.4875092924403961 [Eh]
	 Correlation Energy        =      -1.9573995518041707 [Eh]
	 Total Energy              =    -532.9014685486586131 [Eh]

	 ================> DF-SCS-MP2 Energies <==================
	-----------------------------------------------------------
	 SCS Same-Spin Scale       =       0.3333333333333333 [-]
	 SCS Opposite-Spin Scale   =       1.2000000000000000 [-]
	 SCS Same-Spin Energy      =      -0.1566300864545915 [Eh]
	 SCS Opposite-Spin Energy  =      -1.7850111509284752 [Eh]
	 SCS Correlation Energy    =      -1.9416412373830667 [Eh]
	 SCS Total Energy          =    -532.8857102342374219 [Eh]
	-----------------------------------------------------------

  Dipole Moment: [D]
     X:    -0.0235      Y:     0.0496      Z:    -5.1865     Total:     5.1868

*** Psi4 exiting successfully. Buy a developer a beer!
