                               Psi4 1.4a3.dev225

  ==> Input File <==

--------------------------------------------------------------------------
#psi4
#
memory 32 gb

molecule  {
0 1
  F       -1.6012940    -0.1166020     1.0531380
  F        0.9015100    -1.3283660     1.0533570
  F        0.6995270     1.4450080     1.0533050
  C       -1.4580565    -0.1061964    -0.3595234
  C        0.8221700    -1.2113200    -0.3394270
  C        0.6379870     1.3176500    -0.3394740
  C       -0.6367970    -1.3153920    -0.7539820
  C       -0.8206640     1.2092170    -0.7540300
  C        1.4576450     0.1061460    -0.7538300
  H       -2.4709910    -0.1799750    -0.7606130
  H        1.3914430    -2.0500220    -0.7602750
  H        1.0797340     2.2299680    -0.7603550
  H       -0.6879950    -1.4213320    -1.8456750
  H       -1.0732430    -2.2167570    -0.3126710
  H       -1.3831040     2.0378510    -0.3127500
  H       -0.8866680     1.3065820    -1.8457260
  H        2.4564240     0.1788940    -0.3124150
  H        1.5751120     0.1146800    -1.8455110
units angstrom
no_reorient  #important for SAPT in psi4, default
symmetry c1  #important for SAPT in psi4, default
}

set PROPERTIES_ORIGIN ["COM"]
properties('MP2/aug-cc-pvtz', properties = ['dipole'])
--------------------------------------------------------------------------

    Molecular point group: c1
  Charge       = 0
  Multiplicity = 1
  Basis Set: AUG-CC-PVTZ
    Blend: AUG-CC-PVTZ
  Basis Set: (AUG-CC-PVTZ AUX)
    Blend: AUG-CC-PVTZ-JKFIT

    Orbital Energies [Eh]
    ---------------------

    Doubly Occupied:

       1A    -26.265172     2A    -26.265170     3A    -26.260214
       4A    -11.320616     5A    -11.320609     6A    -11.320181
       7A    -11.244700     8A    -11.244686     9A    -11.244380
      10A     -1.580182    11A     -1.572501    12A     -1.564251
      13A     -1.138274    14A     -1.034238    15A     -1.033675
      16A     -0.872102    17A     -0.871291    18A     -0.778349
      19A     -0.744920    20A     -0.695977    21A     -0.693819
      22A     -0.670329    23A     -0.660407    24A     -0.655749
      25A     -0.654108    26A     -0.639022    27A     -0.638173
      28A     -0.584105    29A     -0.557016    30A     -0.548461
      31A     -0.548058    32A     -0.525055    33A     -0.524859
      34A     -0.522328    35A     -0.456544    36A     -0.456130

  @DF-RHF Final Energy:  -530.96455843744366

   => Energetics <=

    Nuclear Repulsion Energy =            525.3662534723097224
    One-Electron Energy =               -1777.2503184860802321
    Two-Electron Energy =                 720.9195065763267394
    Total Energy =                       -530.9645584374436567
  Basis Set: (AUG-CC-PVTZ AUX)
    Blend: AUG-CC-PVTZ-RI
    Molecular point group: c1

    Geometry (in Angstrom), charge = 0, multiplicity = 1:

       Center              X                  Y                   Z               Mass
    ------------   -----------------  -----------------  -----------------  -----------------
         F           -1.601462390794    -0.116615785237     0.969094996682    18.998403162730
         F            0.901341609206    -1.328379785237     0.969313996682    18.998403162730
         F            0.699358609206     1.444994214763     0.969261996682    18.998403162730
         C           -1.458224890794    -0.106210185237    -0.443566403318    12.000000000000
         C            0.822001609206    -1.211333785237    -0.423470003318    12.000000000000
         C            0.637818609206     1.317636214763    -0.423517003318    12.000000000000
         C           -0.636965390794    -1.315405785237    -0.838025003318    12.000000000000
         C           -0.820832390794     1.209203214763    -0.838073003318    12.000000000000
         C            1.457476609206     0.106132214763    -0.837873003318    12.000000000000
         H           -2.471159390794    -0.179988785237    -0.844656003318     1.007825032230
         H            1.391274609206    -2.050035785237    -0.844318003318     1.007825032230
         H            1.079565609206     2.229954214763    -0.844398003318     1.007825032230
         H           -0.688163390794    -1.421345785237    -1.929718003318     1.007825032230
         H           -1.073411390794    -2.216770785237    -0.396714003318     1.007825032230
         H           -1.383272390794     2.037837214763    -0.396793003318     1.007825032230
         H           -0.886836390794     1.306568214763    -1.929769003318     1.007825032230
         H            2.456255609206     0.178880214763    -0.396458003318     1.007825032230
         H            1.574943609206     0.114666214763    -1.929554003318     1.007825032230

  Basis Set: AUG-CC-PVTZ
    Blend: AUG-CC-PVTZ
  Basis Set: (AUG-CC-PVTZ AUX)
    Blend: AUG-CC-PVTZ-JKFIT
	 Reference Energy          =    -530.9645584374436567 [Eh]
	 Singles Energy            =      -0.0000000000000000 [Eh]
	 Same-Spin Energy          =      -0.4701344592057493 [Eh]
	 Opposite-Spin Energy      =      -1.4870854538326987 [Eh]
	 Correlation Energy        =      -1.9572199130384480 [Eh]
	 Total Energy              =    -532.9217783504821000 [Eh]

	 ================> DF-SCS-MP2 Energies <==================
	-----------------------------------------------------------
	 SCS Same-Spin Scale       =       0.3333333333333333 [-]
	 SCS Opposite-Spin Scale   =       1.2000000000000000 [-]
	 SCS Same-Spin Energy      =      -0.1567114864019164 [Eh]
	 SCS Opposite-Spin Energy  =      -1.7845025445992384 [Eh]
	 SCS Correlation Energy    =      -1.9412140310011547 [Eh]
	 SCS Total Energy          =    -532.9057724684448658 [Eh]
	-----------------------------------------------------------

  Dipole Moment: [D]
     X:     0.0225      Y:     0.0015      Z:    -5.3031     Total:     5.3032

*** Psi4 exiting successfully. Buy a developer a beer!
