                               Psi4 1.4a3.dev225

  ==> Input File <==

--------------------------------------------------------------------------
#psi4
#
memory 32 gb

molecule  {
0 1
  F       -1.6012940    -0.1166020     1.0531380
  F        0.9015100    -1.3283660     1.0533570
  F        0.6995270     1.4450080     1.0533050
  C       -1.4600740    -0.1063430    -0.3396260
  C        0.8221700    -1.2113200    -0.3394270
  C        0.6379870     1.3176500    -0.3394740
  C       -0.6367970    -1.3153920    -0.7539820
  C       -0.8206640     1.2092170    -0.7540300
  C        1.3895127     0.0459724    -0.6990814
  H       -2.4709910    -0.1799750    -0.7606130
  H        1.3914430    -2.0500220    -0.7602750
  H        1.0797340     2.2299680    -0.7603550
  H       -0.6879950    -1.4213320    -1.8456750
  H       -1.0732430    -2.2167570    -0.3126710
  H       -1.3831040     2.0378510    -0.3127500
  H       -0.8866680     1.3065820    -1.8457260
  H        2.4564240     0.1788940    -0.3124150
  H        1.5751120     0.1146800    -1.8455110
units angstrom
no_reorient  #important for SAPT in psi4, default
symmetry c1  #important for SAPT in psi4, default
}

set PROPERTIES_ORIGIN ["COM"]
properties('MP2/aug-cc-pvtz', properties = ['dipole'])
--------------------------------------------------------------------------

    Molecular point group: c1
  Charge       = 0
  Multiplicity = 1
  Basis Set: AUG-CC-PVTZ
    Blend: AUG-CC-PVTZ
  Basis Set: (AUG-CC-PVTZ AUX)
    Blend: AUG-CC-PVTZ-JKFIT

    Orbital Energies [Eh]
    ---------------------

    Doubly Occupied:

       1A    -26.265601     2A    -26.264244     3A    -26.263911
       4A    -11.321847     5A    -11.320702     6A    -11.316270
       7A    -11.248691     8A    -11.244169     9A    -11.243383
      10A     -1.582651    11A     -1.573304    12A     -1.572561
      13A     -1.145052    14A     -1.041807    15A     -1.031140
      16A     -0.878373    17A     -0.867260    18A     -0.777746
      19A     -0.749184    20A     -0.697906    21A     -0.696112
      22A     -0.676788    23A     -0.662047    24A     -0.657023
      25A     -0.656617    26A     -0.642374    27A     -0.637758
      28A     -0.586098    29A     -0.556790    30A     -0.548246
      31A     -0.534713    32A     -0.526791    33A     -0.524015
      34A     -0.516248    35A     -0.465745    36A     -0.447416

  @DF-RHF Final Energy:  -530.95182771822738

   => Energetics <=

    Nuclear Repulsion Energy =            527.5648620649668601
    One-Electron Energy =               -1781.5522150162789785
    Two-Electron Energy =                 723.0355252330846270
    Total Energy =                       -530.9518277182273778
  Basis Set: (AUG-CC-PVTZ AUX)
    Blend: AUG-CC-PVTZ-RI
    Molecular point group: c1

    Geometry (in Angstrom), charge = 0, multiplicity = 1:

       Center              X                  Y                   Z               Mass
    ------------   -----------------  -----------------  -----------------  -----------------
         F           -1.595365308045    -0.111373043978     0.962607125884    18.998403162730
         F            0.907438691955    -1.323137043978     0.962826125884    18.998403162730
         F            0.705455691955     1.450236956022     0.962774125884    18.998403162730
         C           -1.454145308045    -0.101114043978    -0.430156874116    12.000000000000
         C            0.828098691955    -1.206091043978    -0.429957874116    12.000000000000
         C            0.643915691955     1.322878956022    -0.430004874116    12.000000000000
         C           -0.630868308045    -1.310163043978    -0.844512874116    12.000000000000
         C           -0.814735308045     1.214445956022    -0.844560874116    12.000000000000
         C            1.395441391955     0.051201356022    -0.789612274116    12.000000000000
         H           -2.465062308045    -0.174746043978    -0.851143874116     1.007825032230
         H            1.397371691955    -2.044793043978    -0.850805874116     1.007825032230
         H            1.085662691955     2.235196956022    -0.850885874116     1.007825032230
         H           -0.682066308045    -1.416103043978    -1.936205874116     1.007825032230
         H           -1.067314308045    -2.211528043978    -0.403201874116     1.007825032230
         H           -1.377175308045     2.043079956022    -0.403280874116     1.007825032230
         H           -0.880739308045     1.311810956022    -1.936256874116     1.007825032230
         H            2.462352691955     0.184122956022    -0.402945874116     1.007825032230
         H            1.581040691955     0.119908956022    -1.936041874116     1.007825032230

  Basis Set: AUG-CC-PVTZ
    Blend: AUG-CC-PVTZ
  Basis Set: (AUG-CC-PVTZ AUX)
    Blend: AUG-CC-PVTZ-JKFIT
	 Reference Energy          =    -530.9518277182273778 [Eh]
	 Singles Energy            =      -0.0000000000000000 [Eh]
	 Same-Spin Energy          =      -0.4711735099464176 [Eh]
	 Opposite-Spin Energy      =      -1.4881524332903275 [Eh]
	 Correlation Energy        =      -1.9593259432367451 [Eh]
	 Total Energy              =    -532.9111536614641409 [Eh]

	 ================> DF-SCS-MP2 Energies <==================
	-----------------------------------------------------------
	 SCS Same-Spin Scale       =       0.3333333333333333 [-]
	 SCS Opposite-Spin Scale   =       1.2000000000000000 [-]
	 SCS Same-Spin Energy      =      -0.1570578366488058 [Eh]
	 SCS Opposite-Spin Energy  =      -1.7857829199483930 [Eh]
	 SCS Correlation Energy    =      -1.9428407565971988 [Eh]
	 SCS Total Energy          =    -532.8946684748245843 [Eh]
	-----------------------------------------------------------

  Dipole Moment: [D]
     X:    -0.0112      Y:     0.0352      Z:    -5.2375     Total:     5.2376

*** Psi4 exiting successfully. Buy a developer a beer!
