                               Psi4 1.4a3.dev225

  ==> Input File <==

--------------------------------------------------------------------------
#psi4
#
memory 32 gb

molecule  {
0 1
  F       -1.6012940    -0.1166020     1.0531380
  F        0.9015100    -1.3283660     1.0533570
  F        0.6995270     1.4450080     1.0533050
  C       -1.4600740    -0.1063430    -0.3396260
  C        0.8221700    -1.2113200    -0.3394270
  C        0.6379870     1.3176500    -0.3394740
  C       -0.6367970    -1.3153920    -0.7539820
  C       -0.8206640     1.2092170    -0.7540300
  C        1.4576450     0.1061460    -0.7538300
  H       -2.4709910    -0.1799750    -0.7606130
  H        1.3914430    -2.0500220    -0.7602750
  H        1.0596097     2.1884062    -0.7411813
  H       -0.6879950    -1.4213320    -1.8456750
  H       -1.0732430    -2.2167570    -0.3126710
  H       -1.3831040     2.0378510    -0.3127500
  H       -0.8866680     1.3065820    -1.8457260
  H        2.4564240     0.1788940    -0.3124150
  H        1.5751120     0.1146800    -1.8455110
units angstrom
no_reorient  #important for SAPT in psi4, default
symmetry c1  #important for SAPT in psi4, default
}

set PROPERTIES_ORIGIN ["COM"]
properties('MP2/aug-cc-pvtz', properties = ['dipole'])
--------------------------------------------------------------------------

    Molecular point group: c1
  Charge       = 0
  Multiplicity = 1
  Basis Set: AUG-CC-PVTZ
    Blend: AUG-CC-PVTZ
  Basis Set: (AUG-CC-PVTZ AUX)
    Blend: AUG-CC-PVTZ-JKFIT

    Orbital Energies [Eh]
    ---------------------

    Doubly Occupied:

       1A    -26.264970     2A    -26.264968     3A    -26.264236
       4A    -11.319814     5A    -11.319806     6A    -11.313905
       7A    -11.243778     8A    -11.243617     9A    -11.243602
      10A     -1.581631    11A     -1.572318    12A     -1.572042
      13A     -1.136950    14A     -1.034279    15A     -1.032374
      16A     -0.874848    17A     -0.870922    18A     -0.780816
      19A     -0.747098    20A     -0.697624    21A     -0.696549
      22A     -0.671211    23A     -0.660126    24A     -0.657348
      25A     -0.656303    26A     -0.641164    27A     -0.640595
      28A     -0.586325    29A     -0.558154    30A     -0.548362
      31A     -0.547916    32A     -0.525100    33A     -0.523848
      34A     -0.520535    35A     -0.456471    36A     -0.454034

  @DF-RHF Final Energy:  -530.96487463331687

   => Energetics <=

    Nuclear Repulsion Energy =            525.8470607779823922
    One-Electron Energy =               -1778.1765887710150764
    Two-Electron Energy =                 721.3646533597157031
    Total Energy =                       -530.9648746333168674
  Basis Set: (AUG-CC-PVTZ AUX)
    Blend: AUG-CC-PVTZ-RI
    Molecular point group: c1

    Geometry (in Angstrom), charge = 0, multiplicity = 1:

       Center              X                  Y                   Z               Mass
    ------------   -----------------  -----------------  -----------------  -----------------
         F           -1.601140139906    -0.116299658618     0.967225650010    18.998403162730
         F            0.901663860094    -1.328063658618     0.967444650010    18.998403162730
         F            0.699680860094     1.445310341382     0.967392650010    18.998403162730
         C           -1.459920139906    -0.106040658618    -0.425538349990    12.000000000000
         C            0.822323860094    -1.211017658618    -0.425339349990    12.000000000000
         C            0.638140860094     1.317952341382    -0.425386349990    12.000000000000
         C           -0.636643139906    -1.315089658618    -0.839894349990    12.000000000000
         C           -0.820510139906     1.209519341382    -0.839942349990    12.000000000000
         C            1.457798860094     0.106448341382    -0.839742349990    12.000000000000
         H           -2.470837139906    -0.179672658618    -0.846525349990     1.007825032230
         H            1.391596860094    -2.049719658618    -0.846187349990     1.007825032230
         H            1.059763560094     2.188708541382    -0.827093649990     1.007825032230
         H           -0.687841139906    -1.421029658618    -1.931587349990     1.007825032230
         H           -1.073089139906    -2.216454658618    -0.398583349990     1.007825032230
         H           -1.382950139906     2.038153341382    -0.398662349990     1.007825032230
         H           -0.886514139906     1.306884341382    -1.931638349990     1.007825032230
         H            2.456577860094     0.179196341382    -0.398327349990     1.007825032230
         H            1.575265860094     0.114982341382    -1.931423349990     1.007825032230

  Basis Set: AUG-CC-PVTZ
    Blend: AUG-CC-PVTZ
  Basis Set: (AUG-CC-PVTZ AUX)
    Blend: AUG-CC-PVTZ-JKFIT
	 Reference Energy          =    -530.9648746333168674 [Eh]
	 Singles Energy            =      -0.0000000000000000 [Eh]
	 Same-Spin Energy          =      -0.4699152460073636 [Eh]
	 Opposite-Spin Energy      =      -1.4862027011067971 [Eh]
	 Correlation Energy        =      -1.9561179471141608 [Eh]
	 Total Energy              =    -532.9209925804310615 [Eh]

	 ================> DF-SCS-MP2 Energies <==================
	-----------------------------------------------------------
	 SCS Same-Spin Scale       =       0.3333333333333333 [-]
	 SCS Opposite-Spin Scale   =       1.2000000000000000 [-]
	 SCS Same-Spin Energy      =      -0.1566384153357878 [Eh]
	 SCS Opposite-Spin Energy  =      -1.7834432413281565 [Eh]
	 SCS Correlation Energy    =      -1.9400816566639443 [Eh]
	 SCS Total Energy          =    -532.9049562899807597 [Eh]
	-----------------------------------------------------------

  Dipole Moment: [D]
     X:     0.0142      Y:     0.0284      Z:    -5.2414     Total:     5.2415

*** Psi4 exiting successfully. Buy a developer a beer!
