                               Psi4 1.4a3.dev225

  ==> Input File <==

--------------------------------------------------------------------------
#psi4
#
memory 32 gb

molecule  {
0 1
  F       -1.6012940    -0.1166020     1.0531380
  F        0.9015100    -1.3283660     1.0533570
  F        0.6995270     1.4450080     1.0533050
  C       -1.4600740    -0.1063430    -0.3396260
  C        0.8221700    -1.2113200    -0.3394270
  C        0.6379870     1.3176500    -0.3394740
  C       -0.6367970    -1.3153920    -0.7539820
  C       -0.8206640     1.2092170    -0.7540300
  C        1.4576450     0.1061460    -0.7538300
  H       -2.4709910    -0.1799750    -0.7606130
  H        1.3914430    -2.0500220    -0.7602750
  H        1.0797340     2.2299680    -0.7603550
  H       -0.6879950    -1.4213320    -1.8456750
  H       -1.0732430    -2.2167570    -0.3126710
  H       -1.3741145     2.0246024    -0.2780675
  H       -0.8866680     1.3065820    -1.8457260
  H        2.4564240     0.1788940    -0.3124150
  H        1.5751120     0.1146800    -1.8455110
units angstrom
no_reorient  #important for SAPT in psi4, default
symmetry c1  #important for SAPT in psi4, default
}

set PROPERTIES_ORIGIN ["COM"]
properties('MP2/aug-cc-pvtz', properties = ['dipole'])
--------------------------------------------------------------------------

    Molecular point group: c1
  Charge       = 0
  Multiplicity = 1
  Basis Set: AUG-CC-PVTZ
    Blend: AUG-CC-PVTZ
  Basis Set: (AUG-CC-PVTZ AUX)
    Blend: AUG-CC-PVTZ-JKFIT

    Orbital Energies [Eh]
    ---------------------

    Doubly Occupied:

       1A    -26.265405     2A    -26.265403     3A    -26.265203
       4A    -11.320052     5A    -11.319910     6A    -11.319902
       7A    -11.243979     8A    -11.243901     9A    -11.243886
      10A     -1.582146    11A     -1.572757    12A     -1.572630
      13A     -1.136743    14A     -1.032787    15A     -1.032615
      16A     -0.871186    17A     -0.871029    18A     -0.779604
      19A     -0.745196    20A     -0.697069    21A     -0.696947
      22A     -0.671704    23A     -0.659625    24A     -0.656809
      25A     -0.656706    26A     -0.641024    27A     -0.640567
      28A     -0.584143    29A     -0.559289    30A     -0.549618
      31A     -0.548094    32A     -0.524205    33A     -0.523252
      34A     -0.520843    35A     -0.454368    36A     -0.453626

  @DF-RHF Final Energy:  -530.96528256308727

   => Energetics <=

    Nuclear Repulsion Energy =            525.6104543630979151
    One-Electron Energy =               -1777.7070298944017850
    Two-Electron Energy =                 721.1312929682165986
    Total Energy =                       -530.9652825630872712
  Basis Set: (AUG-CC-PVTZ AUX)
    Blend: AUG-CC-PVTZ-RI
    Molecular point group: c1

    Geometry (in Angstrom), charge = 0, multiplicity = 1:

       Center              X                  Y                   Z               Mass
    ------------   -----------------  -----------------  -----------------  -----------------
         F           -1.601352659238    -0.116506333883     0.967112441847    18.998403162730
         F            0.901451340762    -1.328270333883     0.967331441847    18.998403162730
         F            0.699468340762     1.445103666117     0.967279441847    18.998403162730
         C           -1.460132659238    -0.106247333883    -0.425651558153    12.000000000000
         C            0.822111340762    -1.211224333883    -0.425452558153    12.000000000000
         C            0.637928340762     1.317745666117    -0.425499558153    12.000000000000
         C           -0.636855659238    -1.315296333883    -0.840007558153    12.000000000000
         C           -0.820722659238     1.209312666117    -0.840055558153    12.000000000000
         C            1.457586340762     0.106241666117    -0.839855558153    12.000000000000
         H           -2.471049659238    -0.179879333883    -0.846638558153     1.007825032230
         H            1.391384340762    -2.049926333883    -0.846300558153     1.007825032230
         H            1.079675340762     2.230063666117    -0.846380558153     1.007825032230
         H           -0.688053659238    -1.421236333883    -1.931700558153     1.007825032230
         H           -1.073301659238    -2.216661333883    -0.398696558153     1.007825032230
         H           -1.374173159238     2.024698066117    -0.364093058153     1.007825032230
         H           -0.886726659238     1.306677666117    -1.931751558153     1.007825032230
         H            2.456365340762     0.178989666117    -0.398440558153     1.007825032230
         H            1.575053340762     0.114775666117    -1.931536558153     1.007825032230

  Basis Set: AUG-CC-PVTZ
    Blend: AUG-CC-PVTZ
  Basis Set: (AUG-CC-PVTZ AUX)
    Blend: AUG-CC-PVTZ-JKFIT
	 Reference Energy          =    -530.9652825630872712 [Eh]
	 Singles Energy            =      -0.0000000000000000 [Eh]
	 Same-Spin Energy          =      -0.4700284829115742 [Eh]
	 Opposite-Spin Energy      =      -1.4866817969920954 [Eh]
	 Correlation Energy        =      -1.9567102799036695 [Eh]
	 Total Energy              =    -532.9219928429909032 [Eh]

	 ================> DF-SCS-MP2 Energies <==================
	-----------------------------------------------------------
	 SCS Same-Spin Scale       =       0.3333333333333333 [-]
	 SCS Opposite-Spin Scale   =       1.2000000000000000 [-]
	 SCS Same-Spin Energy      =      -0.1566761609705247 [Eh]
	 SCS Opposite-Spin Energy  =      -1.7840181563905144 [Eh]
	 SCS Correlation Energy    =      -1.9406943173610391 [Eh]
	 SCS Total Energy          =    -532.9059768804482928 [Eh]
	-----------------------------------------------------------

  Dipole Moment: [D]
     X:     0.0036      Y:    -0.0048      Z:    -5.2118     Total:     5.2118

*** Psi4 exiting successfully. Buy a developer a beer!
