                               Psi4 1.4a3.dev225

  ==> Input File <==

--------------------------------------------------------------------------
#psi4
#
memory 32 gb

molecule  {
0 1
  F       -1.6012940    -0.1166020     1.0531380
  F        0.9015100    -1.3283660     1.0533570
  F        0.6995270     1.4450080     1.0533050
  C       -1.4600740    -0.1063430    -0.3396260
  C        0.8221700    -1.2113200    -0.3394270
  C        0.6379870     1.3176500    -0.3394740
  C       -0.6367970    -1.3153920    -0.7539820
  C       -0.8206640     1.2092170    -0.7540300
  C        1.4576450     0.1061460    -0.7538300
  H       -2.4709910    -0.1799750    -0.7606130
  H        1.3914430    -2.0500220    -0.7602750
  H        1.0797340     2.2299680    -0.7603550
  H       -0.6879950    -1.4213320    -1.8456750
  H       -1.0732430    -2.2167570    -0.3126710
  H       -1.3831040     2.0378510    -0.3127500
  H       -0.8866680     1.3065820    -1.8457260
  H        2.2738977     0.1655993    -0.3930834
  H        1.5751120     0.1146800    -1.8455110
units angstrom
no_reorient  #important for SAPT in psi4, default
symmetry c1  #important for SAPT in psi4, default
}

set PROPERTIES_ORIGIN ["COM"]
properties('MP2/aug-cc-pvtz', properties = ['dipole'])
--------------------------------------------------------------------------

    Molecular point group: c1
  Charge       = 0
  Multiplicity = 1
  Basis Set: AUG-CC-PVTZ
    Blend: AUG-CC-PVTZ
  Basis Set: (AUG-CC-PVTZ AUX)
    Blend: AUG-CC-PVTZ-JKFIT

    Orbital Energies [Eh]
    ---------------------

    Doubly Occupied:

       1A    -26.265542     2A    -26.265540     3A    -26.264684
       4A    -11.319374     5A    -11.319068     6A    -11.319061
       7A    -11.242965     8A    -11.242951     9A    -11.220618
      10A     -1.582091    11A     -1.572879    12A     -1.572332
      13A     -1.139432    14A     -1.044891    15A     -1.031735
      16A     -0.882988    17A     -0.870711    18A     -0.781667
      19A     -0.746933    20A     -0.696698    21A     -0.696524
      22A     -0.682794    23A     -0.671485    24A     -0.656420
      25A     -0.656408    26A     -0.642436    27A     -0.640593
      28A     -0.583863    29A     -0.567725    30A     -0.555634
      31A     -0.547418    32A     -0.524093    33A     -0.523650
      34A     -0.520439    35A     -0.457449    36A     -0.453591

  @DF-RHF Final Energy:  -530.93190723775808

   => Energetics <=

    Nuclear Repulsion Energy =            526.7544206591129523
    One-Electron Energy =               -1779.8472942412483917
    Two-Electron Energy =                 722.1609663443772433
    Total Energy =                       -530.9319072377580824
  Basis Set: (AUG-CC-PVTZ AUX)
    Blend: AUG-CC-PVTZ-RI
    Molecular point group: c1

    Geometry (in Angstrom), charge = 0, multiplicity = 1:

       Center              X                  Y                   Z               Mass
    ------------   -----------------  -----------------  -----------------  -----------------
         F           -1.599954668944    -0.116505997371     0.967954458217    18.998403162730
         F            0.902849331056    -1.328269997371     0.968173458217    18.998403162730
         F            0.700866331056     1.445104002629     0.968121458217    18.998403162730
         C           -1.458734668944    -0.106246997371    -0.424809541783    12.000000000000
         C            0.823509331056    -1.211223997371    -0.424610541783    12.000000000000
         C            0.639326331056     1.317746002629    -0.424657541783    12.000000000000
         C           -0.635457668944    -1.315295997371    -0.839165541783    12.000000000000
         C           -0.819324668944     1.209313002629    -0.839213541783    12.000000000000
         C            1.458984331056     0.106242002629    -0.839013541783    12.000000000000
         H           -2.469651668944    -0.179878997371    -0.845796541783     1.007825032230
         H            1.392782331056    -2.049925997371    -0.845458541783     1.007825032230
         H            1.081073331056     2.230064002629    -0.845538541783     1.007825032230
         H           -0.686655668944    -1.421235997371    -1.930858541783     1.007825032230
         H           -1.071903668944    -2.216660997371    -0.397854541783     1.007825032230
         H           -1.381764668944     2.037947002629    -0.397933541783     1.007825032230
         H           -0.885328668944     1.306678002629    -1.930909541783     1.007825032230
         H            2.275237031056     0.165695302629    -0.478266941783     1.007825032230
         H            1.576451331056     0.114776002629    -1.930694541783     1.007825032230

  Basis Set: AUG-CC-PVTZ
    Blend: AUG-CC-PVTZ
  Basis Set: (AUG-CC-PVTZ AUX)
    Blend: AUG-CC-PVTZ-JKFIT
	 Reference Energy          =    -530.9319072377580824 [Eh]
	 Singles Energy            =      -0.0000000000000000 [Eh]
	 Same-Spin Energy          =      -0.4699515771543780 [Eh]
	 Opposite-Spin Energy      =      -1.4858667291103980 [Eh]
	 Correlation Energy        =      -1.9558183062647760 [Eh]
	 Total Energy              =    -532.8877255440228282 [Eh]

	 ================> DF-SCS-MP2 Energies <==================
	-----------------------------------------------------------
	 SCS Same-Spin Scale       =       0.3333333333333333 [-]
	 SCS Opposite-Spin Scale   =       1.2000000000000000 [-]
	 SCS Same-Spin Energy      =      -0.1566505257181260 [Eh]
	 SCS Opposite-Spin Energy  =      -1.7830400749324775 [Eh]
	 SCS Correlation Energy    =      -1.9396906006506034 [Eh]
	 SCS Total Energy          =    -532.8715978384086611 [Eh]
	-----------------------------------------------------------

  Dipole Moment: [D]
     X:     0.0648      Y:     0.0046      Z:    -5.2320     Total:     5.2325

*** Psi4 exiting successfully. Buy a developer a beer!
