                               Psi4 1.4a3.dev225

  ==> Input File <==

--------------------------------------------------------------------------
#psi4
#
memory 32 gb

molecule  {
0 1
  F       -1.6012940    -0.1166020     1.0531380
  F        0.9015100    -1.3283660     1.0533570
  F        0.6995270     1.4450080     1.0533050
  C       -1.4600740    -0.1063430    -0.3396260
  C        0.8221700    -1.2113200    -0.3394270
  C        0.6379870     1.3176500    -0.3394740
  C       -0.6367970    -1.3153920    -0.7539820
  C       -0.8206640     1.2092170    -0.7540300
  C        1.4576450     0.1061460    -0.7538300
  H       -2.4894124    -0.1813168    -0.7682844
  H        1.3914430    -2.0500220    -0.7602750
  H        1.0797340     2.2299680    -0.7603550
  H       -0.6879950    -1.4213320    -1.8456750
  H       -1.0732430    -2.2167570    -0.3126710
  H       -1.3831040     2.0378510    -0.3127500
  H       -0.8866680     1.3065820    -1.8457260
  H        2.4564240     0.1788940    -0.3124150
  H        1.5751120     0.1146800    -1.8455110
units angstrom
no_reorient  #important for SAPT in psi4, default
symmetry c1  #important for SAPT in psi4, default
}

set PROPERTIES_ORIGIN ["COM"]
properties('MP2/aug-cc-pvtz', properties = ['dipole'])
--------------------------------------------------------------------------

    Molecular point group: c1
  Charge       = 0
  Multiplicity = 1
  Basis Set: AUG-CC-PVTZ
    Blend: AUG-CC-PVTZ
  Basis Set: (AUG-CC-PVTZ AUX)
    Blend: AUG-CC-PVTZ-JKFIT

    Orbital Energies [Eh]
    ---------------------

    Doubly Occupied:

       1A    -26.265656     2A    -26.265342     3A    -26.265340
       4A    -11.322550     5A    -11.320252     6A    -11.320244
       7A    -11.244205     8A    -11.244193     9A    -11.244122
      10A     -1.582214    11A     -1.572823    12A     -1.572703
      13A     -1.136685    14A     -1.032822    15A     -1.032155
      16A     -0.871279    17A     -0.869901    18A     -0.779475
      19A     -0.744812    20A     -0.697037    21A     -0.696619
      22A     -0.671766    23A     -0.659690    24A     -0.656771
      25A     -0.656259    26A     -0.641127    27A     -0.640880
      28A     -0.583204    29A     -0.558461    30A     -0.548223
      31A     -0.548032    32A     -0.524403    33A     -0.523838
      34A     -0.520966    35A     -0.454575    36A     -0.453505

  @DF-RHF Final Energy:  -530.96483369901205

   => Energetics <=

    Nuclear Repulsion Energy =            525.4192553596111566
    One-Electron Energy =               -1777.3239188853358428
    Two-Electron Energy =                 720.9398298267125256
    Total Energy =                       -530.9648336990120470
  Basis Set: (AUG-CC-PVTZ AUX)
    Blend: AUG-CC-PVTZ-RI
    Molecular point group: c1

    Geometry (in Angstrom), charge = 0, multiplicity = 1:

       Center              X                  Y                   Z               Mass
    ------------   -----------------  -----------------  -----------------  -----------------
         F           -1.601152570409    -0.116593248857     0.967421608721    18.998403162730
         F            0.901651429591    -1.328357248857     0.967640608721    18.998403162730
         F            0.699668429591     1.445016751143     0.967588608721    18.998403162730
         C           -1.459932570409    -0.106334248857    -0.425342391279    12.000000000000
         C            0.822311429591    -1.211311248857    -0.425143391279    12.000000000000
         C            0.638128429591     1.317658751143    -0.425190391279    12.000000000000
         C           -0.636655570409    -1.315383248857    -0.839698391279    12.000000000000
         C           -0.820522570409     1.209225751143    -0.839746391279    12.000000000000
         C            1.457786429591     0.106154751143    -0.839546391279    12.000000000000
         H           -2.489270970409    -0.181308048857    -0.854000791279     1.007825032230
         H            1.391584429591    -2.050013248857    -0.845991391279     1.007825032230
         H            1.079875429591     2.229976751143    -0.846071391279     1.007825032230
         H           -0.687853570409    -1.421323248857    -1.931391391279     1.007825032230
         H           -1.073101570409    -2.216748248857    -0.398387391279     1.007825032230
         H           -1.382962570409     2.037859751143    -0.398466391279     1.007825032230
         H           -0.886526570409     1.306590751143    -1.931442391279     1.007825032230
         H            2.456565429591     0.178902751143    -0.398131391279     1.007825032230
         H            1.575253429591     0.114688751143    -1.931227391279     1.007825032230

  Basis Set: AUG-CC-PVTZ
    Blend: AUG-CC-PVTZ
  Basis Set: (AUG-CC-PVTZ AUX)
    Blend: AUG-CC-PVTZ-JKFIT
	 Reference Energy          =    -530.9648336990120470 [Eh]
	 Singles Energy            =      -0.0000000000000000 [Eh]
	 Same-Spin Energy          =      -0.4700376182342285 [Eh]
	 Opposite-Spin Energy      =      -1.4868085149125319 [Eh]
	 Correlation Energy        =      -1.9568461331467604 [Eh]
	 Total Energy              =    -532.9216798321588158 [Eh]

	 ================> DF-SCS-MP2 Energies <==================
	-----------------------------------------------------------
	 SCS Same-Spin Scale       =       0.3333333333333333 [-]
	 SCS Opposite-Spin Scale   =       1.2000000000000000 [-]
	 SCS Same-Spin Energy      =      -0.1566792060780762 [Eh]
	 SCS Opposite-Spin Energy  =      -1.7841702178950383 [Eh]
	 SCS Correlation Energy    =      -1.9408494239731144 [Eh]
	 SCS Total Energy          =    -532.9056831229851241 [Eh]
	-----------------------------------------------------------

  Dipole Moment: [D]
     X:     0.0149      Y:     0.0010      Z:    -5.2166     Total:     5.2166

*** Psi4 exiting successfully. Buy a developer a beer!
