                               Psi4 1.4a3.dev225

  ==> Input File <==

--------------------------------------------------------------------------
#psi4
#
memory 32 gb

molecule  {
0 1
  F       -1.6012940    -0.1166020     1.0531380
  F        0.9015100    -1.3283660     1.0533570
  F        0.6995270     1.4450080     1.0533050
  C       -1.4600740    -0.1063430    -0.3396260
  C        0.8221700    -1.2113200    -0.3394270
  C        0.6379870     1.3176500    -0.3394740
  C       -0.6367970    -1.3153920    -0.7539820
  C       -0.8206640     1.2092170    -0.7540300
  C        1.4576450     0.1061460    -0.7538300
  H       -2.4709910    -0.1799750    -0.7606130
  H        1.3914430    -2.0500220    -0.7602750
  H        1.0797340     2.2299680    -0.7603550
  H       -0.6879950    -1.4213320    -1.8456750
  H       -1.0732430    -2.2167570    -0.3126710
  H       -1.3831040     2.0378510    -0.3127500
  H       -0.8806568     1.2977146    -1.7463015
  H        2.4564240     0.1788940    -0.3124150
  H        1.5751120     0.1146800    -1.8455110
units angstrom
no_reorient  #important for SAPT in psi4, default
symmetry c1  #important for SAPT in psi4, default
}

set PROPERTIES_ORIGIN ["COM"]
properties('MP2/aug-cc-pvtz', properties = ['dipole'])
--------------------------------------------------------------------------

    Molecular point group: c1
  Charge       = 0
  Multiplicity = 1
  Basis Set: AUG-CC-PVTZ
    Blend: AUG-CC-PVTZ
  Basis Set: (AUG-CC-PVTZ AUX)
    Blend: AUG-CC-PVTZ-JKFIT

    Orbital Energies [Eh]
    ---------------------

    Doubly Occupied:

       1A    -26.265111     2A    -26.264253     3A    -26.264251
       4A    -11.320069     5A    -11.319337     6A    -11.319329
       7A    -11.244032     8A    -11.244018     9A    -11.231461
      10A     -1.581392    11A     -1.572172    12A     -1.571675
      13A     -1.138565    14A     -1.037327    15A     -1.032497
      16A     -0.874705    17A     -0.870717    18A     -0.783395
      19A     -0.746046    20A     -0.700700    21A     -0.696439
      22A     -0.670965    23A     -0.659288    24A     -0.656936
      25A     -0.655933    26A     -0.642245    27A     -0.640554
      28A     -0.583873    29A     -0.565918    30A     -0.552376
      31A     -0.548071    32A     -0.525273    33A     -0.523900
      34A     -0.520302    35A     -0.454041    36A     -0.453841

  @DF-RHF Final Energy:  -530.95975782147423

   => Energetics <=

    Nuclear Repulsion Energy =            526.1103840230042579
    One-Electron Energy =               -1778.6782739905152084
    Two-Electron Energy =                 721.6081321460366098
    Total Energy =                       -530.9597578214742271
  Basis Set: (AUG-CC-PVTZ AUX)
    Blend: AUG-CC-PVTZ-RI
    Molecular point group: c1

    Geometry (in Angstrom), charge = 0, multiplicity = 1:

       Center              X                  Y                   Z               Mass
    ------------   -----------------  -----------------  -----------------  -----------------
         F           -1.601330918815    -0.116538314926     0.966639850617    18.998403162730
         F            0.901473081185    -1.328302314926     0.966858850617    18.998403162730
         F            0.699490081185     1.445071685074     0.966806850617    18.998403162730
         C           -1.460110918815    -0.106279314926    -0.426124149383    12.000000000000
         C            0.822133081185    -1.211256314926    -0.425925149383    12.000000000000
         C            0.637950081185     1.317713685074    -0.425972149383    12.000000000000
         C           -0.636833918815    -1.315328314926    -0.840480149383    12.000000000000
         C           -0.820700918815     1.209280685074    -0.840528149383    12.000000000000
         C            1.457608081185     0.106209685074    -0.840328149383    12.000000000000
         H           -2.471027918815    -0.179911314926    -0.847111149383     1.007825032230
         H            1.391406081185    -2.049958314926    -0.846773149383     1.007825032230
         H            1.079697081185     2.230031685074    -0.846853149383     1.007825032230
         H           -0.688031918815    -1.421268314926    -1.932173149383     1.007825032230
         H           -1.073279918815    -2.216693314926    -0.399169149383     1.007825032230
         H           -1.383140918815     2.037914685074    -0.399248149383     1.007825032230
         H           -0.880693718815     1.297778285074    -1.832799649383     1.007825032230
         H            2.456387081185     0.178957685074    -0.398913149383     1.007825032230
         H            1.575075081185     0.114743685074    -1.932009149383     1.007825032230

  Basis Set: AUG-CC-PVTZ
    Blend: AUG-CC-PVTZ
  Basis Set: (AUG-CC-PVTZ AUX)
    Blend: AUG-CC-PVTZ-JKFIT
	 Reference Energy          =    -530.9597578214742271 [Eh]
	 Singles Energy            =      -0.0000000000000000 [Eh]
	 Same-Spin Energy          =      -0.4699862286075601 [Eh]
	 Opposite-Spin Energy      =      -1.4860929527882896 [Eh]
	 Correlation Energy        =      -1.9560791813958498 [Eh]
	 Total Energy              =    -532.9158370028700347 [Eh]

	 ================> DF-SCS-MP2 Energies <==================
	-----------------------------------------------------------
	 SCS Same-Spin Scale       =       0.3333333333333333 [-]
	 SCS Opposite-Spin Scale   =       1.2000000000000000 [-]
	 SCS Same-Spin Energy      =      -0.1566620762025200 [Eh]
	 SCS Opposite-Spin Energy  =      -1.7833115433459474 [Eh]
	 SCS Correlation Energy    =      -1.9399736195484674 [Eh]
	 SCS Total Energy          =    -532.8997314410227091 [Eh]
	-----------------------------------------------------------

  Dipole Moment: [D]
     X:    -0.0022      Y:     0.0038      Z:    -5.2630     Total:     5.2630

*** Psi4 exiting successfully. Buy a developer a beer!
