                               Psi4 1.4a3.dev225

  ==> Input File <==

--------------------------------------------------------------------------
#psi4
#
memory 32 gb

molecule  {
0 1
  F       -1.6012940    -0.1166020     1.0531380
  F        0.9015100    -1.3283660     1.0533570
  F        0.6995270     1.4450080     1.0533050
  C       -1.4600740    -0.1063430    -0.3396260
  C        0.8221700    -1.2113200    -0.3394270
  C        0.6379870     1.3176500    -0.3394740
  C       -0.6367970    -1.3153920    -0.7539820
  C       -0.8206640     1.2092170    -0.7540300
  C        1.4576450     0.1061460    -0.7538300
  H       -2.4709910    -0.1799750    -0.7606130
  H        1.3914430    -2.0500220    -0.7602750
  H        1.0797340     2.2299680    -0.7603550
  H       -0.6879950    -1.4213320    -1.8456750
  H       -1.0732430    -2.2167570    -0.3126710
  H       -1.3914083     2.0500900    -0.3479702
  H       -0.8866680     1.3065820    -1.8457260
  H        2.4564240     0.1788940    -0.3124150
  H        1.5751120     0.1146800    -1.8455110
units angstrom
no_reorient  #important for SAPT in psi4, default
symmetry c1  #important for SAPT in psi4, default
}

set PROPERTIES_ORIGIN ["COM"]
properties('MP2/aug-cc-pvtz', properties = ['dipole'])
--------------------------------------------------------------------------

    Molecular point group: c1
  Charge       = 0
  Multiplicity = 1
  Basis Set: AUG-CC-PVTZ
    Blend: AUG-CC-PVTZ
  Basis Set: (AUG-CC-PVTZ AUX)
    Blend: AUG-CC-PVTZ-JKFIT

    Orbital Energies [Eh]
    ---------------------

    Doubly Occupied:

       1A    -26.265247     2A    -26.265056     3A    -26.265054
       4A    -11.320327     5A    -11.320320     6A    -11.320166
       7A    -11.244140     8A    -11.244128     9A    -11.244051
      10A     -1.581929    11A     -1.572540    12A     -1.572423
      13A     -1.136716    14A     -1.032749    15A     -1.032601
      16A     -0.871324    17A     -0.871150    18A     -0.780001
      19A     -0.745700    20A     -0.696832    21A     -0.696794
      22A     -0.671491    23A     -0.659826    24A     -0.656553
      25A     -0.656410    26A     -0.641334    27A     -0.640910
      28A     -0.584054    29A     -0.557779    30A     -0.548155
      31A     -0.546222    32A     -0.525140    33A     -0.524258
      34A     -0.520822    35A     -0.455116    36A     -0.454445

  @DF-RHF Final Energy:  -530.96539326291679

   => Energetics <=

    Nuclear Repulsion Energy =            525.4695257356033835
    One-Electron Energy =               -1777.4263170686988360
    Two-Electron Energy =                 720.9913980701786613
    Total Energy =                       -530.9653932629167912
  Basis Set: (AUG-CC-PVTZ AUX)
    Blend: AUG-CC-PVTZ-RI
    Molecular point group: c1

    Geometry (in Angstrom), charge = 0, multiplicity = 1:

       Center              X                  Y                   Z               Mass
    ------------   -----------------  -----------------  -----------------  -----------------
         F           -1.601226421275    -0.116692383376     0.967622704166    18.998403162730
         F            0.901577578725    -1.328456383376     0.967841704166    18.998403162730
         F            0.699594578725     1.444917616624     0.967789704166    18.998403162730
         C           -1.460006421275    -0.106433383376    -0.425141295834    12.000000000000
         C            0.822237578725    -1.211410383376    -0.424942295834    12.000000000000
         C            0.638054578725     1.317559616624    -0.424989295834    12.000000000000
         C           -0.636729421275    -1.315482383376    -0.839497295834    12.000000000000
         C           -0.820596421275     1.209126616624    -0.839545295834    12.000000000000
         C            1.457712578725     0.106055616624    -0.839345295834    12.000000000000
         H           -2.470923421275    -0.180065383376    -0.846128295834     1.007825032230
         H            1.391510578725    -2.050112383376    -0.845790295834     1.007825032230
         H            1.079801578725     2.229877616624    -0.845870295834     1.007825032230
         H           -0.687927421275    -1.421422383376    -1.931190295834     1.007825032230
         H           -1.073175421275    -2.216847383376    -0.398186295834     1.007825032230
         H           -1.391340721275     2.049999616624    -0.433485495834     1.007825032230
         H           -0.886600421275     1.306491616624    -1.931241295834     1.007825032230
         H            2.456491578725     0.178803616624    -0.397930295834     1.007825032230
         H            1.575179578725     0.114589616624    -1.931026295834     1.007825032230

  Basis Set: AUG-CC-PVTZ
    Blend: AUG-CC-PVTZ
  Basis Set: (AUG-CC-PVTZ AUX)
    Blend: AUG-CC-PVTZ-JKFIT
	 Reference Energy          =    -530.9653932629167912 [Eh]
	 Singles Energy            =      -0.0000000000000000 [Eh]
	 Same-Spin Energy          =      -0.4699859363621375 [Eh]
	 Opposite-Spin Energy      =      -1.4865797019191560 [Eh]
	 Correlation Energy        =      -1.9565656382812935 [Eh]
	 Total Energy              =    -532.9219589011980815 [Eh]

	 ================> DF-SCS-MP2 Energies <==================
	-----------------------------------------------------------
	 SCS Same-Spin Scale       =       0.3333333333333333 [-]
	 SCS Opposite-Spin Scale   =       1.2000000000000000 [-]
	 SCS Same-Spin Energy      =      -0.1566619787873792 [Eh]
	 SCS Opposite-Spin Energy  =      -1.7838956423029873 [Eh]
	 SCS Correlation Energy    =      -1.9405576210903663 [Eh]
	 SCS Total Energy          =    -532.9059508840072112 [Eh]
	-----------------------------------------------------------

  Dipole Moment: [D]
     X:    -0.0026      Y:     0.0044      Z:    -5.2372     Total:     5.2372

*** Psi4 exiting successfully. Buy a developer a beer!
