                               Psi4 1.4a3.dev225

  ==> Input File <==

--------------------------------------------------------------------------
#psi4
#
memory 32 gb

molecule  {
0 1
  F       -1.6012940    -0.1166020     1.0531380
  F        0.9015100    -1.3283660     1.0533570
  F        0.6995270     1.4450080     1.0533050
  C       -1.4600740    -0.1063430    -0.3396260
  C        0.8221700    -1.2113200    -0.3394270
  C        0.6379870     1.3176500    -0.3394740
  C       -0.6367970    -1.3153920    -0.7539820
  C       -0.8206640     1.2092170    -0.7540300
  C        1.4576450     0.1061460    -0.7538300
  H       -2.4709910    -0.1799750    -0.7606130
  H        1.3914430    -2.0500220    -0.7602750
  H        1.0998583     2.2715298    -0.7795287
  H       -0.6879950    -1.4213320    -1.8456750
  H       -1.0732430    -2.2167570    -0.3126710
  H       -1.3831040     2.0378510    -0.3127500
  H       -0.8866680     1.3065820    -1.8457260
  H        2.4564240     0.1788940    -0.3124150
  H        1.5751120     0.1146800    -1.8455110
units angstrom
no_reorient  #important for SAPT in psi4, default
symmetry c1  #important for SAPT in psi4, default
}

set PROPERTIES_ORIGIN ["COM"]
properties('MP2/aug-cc-pvtz', properties = ['dipole'])
--------------------------------------------------------------------------

    Molecular point group: c1
  Charge       = 0
  Multiplicity = 1
  Basis Set: AUG-CC-PVTZ
    Blend: AUG-CC-PVTZ
  Basis Set: (AUG-CC-PVTZ AUX)
    Blend: AUG-CC-PVTZ-JKFIT

    Orbital Energies [Eh]
    ---------------------

    Doubly Occupied:

       1A    -26.266341     2A    -26.265530     3A    -26.265527
       4A    -11.326159     5A    -11.320478     6A    -11.320470
       7A    -11.244500     8A    -11.244487     9A    -11.244298
      10A     -1.582511    11A     -1.573206    12A     -1.572897
      13A     -1.136673    14A     -1.033050    15A     -1.031472
      16A     -0.871466    17A     -0.868211    18A     -0.779099
      19A     -0.743920    20A     -0.697282    21A     -0.696252
      22A     -0.672046    23A     -0.659748    24A     -0.657005
      25A     -0.655695    26A     -0.641389    27A     -0.640752
      28A     -0.581886    29A     -0.558623    30A     -0.548385
      31A     -0.547895    32A     -0.524682    33A     -0.523197
      34A     -0.521187    35A     -0.454852    36A     -0.452065

  @DF-RHF Final Energy:  -530.96308573807710

   => Energetics <=

    Nuclear Repulsion Energy =            525.2450236778972794
    One-Electron Energy =               -1776.9697446251852853
    Two-Electron Energy =                 720.7616352092109082
    Total Energy =                       -530.9630857380770976
  Basis Set: (AUG-CC-PVTZ AUX)
    Blend: AUG-CC-PVTZ-RI
    Molecular point group: c1

    Geometry (in Angstrom), charge = 0, multiplicity = 1:

       Center              X                  Y                   Z               Mass
    ------------   -----------------  -----------------  -----------------  -----------------
         F           -1.601433938915    -0.116906428325     0.967505571004    18.998403162730
         F            0.901370061085    -1.328670428325     0.967724571004    18.998403162730
         F            0.699387061085     1.444703571675     0.967672571004    18.998403162730
         C           -1.460213938915    -0.106647428325    -0.425258428996    12.000000000000
         C            0.822030061085    -1.211624428325    -0.425059428996    12.000000000000
         C            0.637847061085     1.317345571675    -0.425106428996    12.000000000000
         C           -0.636936938915    -1.315696428325    -0.839614428996    12.000000000000
         C           -0.820803938915     1.208912571675    -0.839662428996    12.000000000000
         C            1.457505061085     0.105841571675    -0.839462428996    12.000000000000
         H           -2.471130938915    -0.180279428325    -0.846245428996     1.007825032230
         H            1.391303061085    -2.050326428325    -0.845907428996     1.007825032230
         H            1.099718361085     2.271225371675    -0.865161128996     1.007825032230
         H           -0.688134938915    -1.421636428325    -1.931307428996     1.007825032230
         H           -1.073382938915    -2.217061428325    -0.398303428996     1.007825032230
         H           -1.383243938915     2.037546571675    -0.398382428996     1.007825032230
         H           -0.886807938915     1.306277571675    -1.931358428996     1.007825032230
         H            2.456284061085     0.178589571675    -0.398047428996     1.007825032230
         H            1.574972061085     0.114375571675    -1.931143428996     1.007825032230

  Basis Set: AUG-CC-PVTZ
    Blend: AUG-CC-PVTZ
  Basis Set: (AUG-CC-PVTZ AUX)
    Blend: AUG-CC-PVTZ-JKFIT
	 Reference Energy          =    -530.9630857380770976 [Eh]
	 Singles Energy            =      -0.0000000000000000 [Eh]
	 Same-Spin Energy          =      -0.4700984817768872 [Eh]
	 Opposite-Spin Energy      =      -1.4871102570746193 [Eh]
	 Correlation Energy        =      -1.9572087388515065 [Eh]
	 Total Energy              =    -532.9202944769285750 [Eh]

	 ================> DF-SCS-MP2 Energies <==================
	-----------------------------------------------------------
	 SCS Same-Spin Scale       =       0.3333333333333333 [-]
	 SCS Opposite-Spin Scale   =       1.2000000000000000 [-]
	 SCS Same-Spin Energy      =      -0.1566994939256291 [Eh]
	 SCS Opposite-Spin Energy  =      -1.7845323084895430 [Eh]
	 SCS Correlation Energy    =      -1.9412318024151720 [Eh]
	 SCS Total Energy          =    -532.9043175404922295 [Eh]
	-----------------------------------------------------------

  Dipole Moment: [D]
     X:    -0.0163      Y:    -0.0346      Z:    -5.2045     Total:     5.2047

*** Psi4 exiting successfully. Buy a developer a beer!
