                               Psi4 1.4a3.dev225

  ==> Input File <==

--------------------------------------------------------------------------
#psi4
#
memory 32 gb

molecule  {
0 1
  F       -1.6012940    -0.1166020     1.0531380
  F        0.9015100    -1.3283660     1.0533570
  F        0.6995270     1.4450080     1.0533050
  C       -1.4600740    -0.1063430    -0.3396260
  C        0.8221700    -1.2113200    -0.3394270
  C        0.6379870     1.3176500    -0.3394740
  C       -0.6367970    -1.3153920    -0.7539820
  C       -0.8206640     1.2092170    -0.7540300
  C        1.4576450     0.1061460    -0.7538300
  H       -2.4709910    -0.1799750    -0.7606130
  H        1.3914430    -2.0500220    -0.7602750
  H        1.0797340     2.2299680    -0.7603550
  H       -0.6879950    -1.4213320    -1.8456750
  H       -1.0732430    -2.2167570    -0.3126710
  H       -1.3644506     2.0103604    -0.2439648
  H       -0.8866680     1.3065820    -1.8457260
  H        2.4564240     0.1788940    -0.3124150
  H        1.5751120     0.1146800    -1.8455110
units angstrom
no_reorient  #important for SAPT in psi4, default
symmetry c1  #important for SAPT in psi4, default
}

set PROPERTIES_ORIGIN ["COM"]
properties('MP2/aug-cc-pvtz', properties = ['dipole'])
--------------------------------------------------------------------------

    Molecular point group: c1
  Charge       = 0
  Multiplicity = 1
  Basis Set: AUG-CC-PVTZ
    Blend: AUG-CC-PVTZ
  Basis Set: (AUG-CC-PVTZ AUX)
    Blend: AUG-CC-PVTZ-JKFIT

    Orbital Energies [Eh]
    ---------------------

    Doubly Occupied:

       1A    -26.265595     2A    -26.265593     3A    -26.265181
       4A    -11.319991     5A    -11.319716     6A    -11.319709
       7A    -11.243939     8A    -11.243775     9A    -11.243761
      10A     -1.582274    11A     -1.572946    12A     -1.572680
      13A     -1.136770    14A     -1.032916    15A     -1.032547
      16A     -0.871211    17A     -0.870913    18A     -0.779443
      19A     -0.744964    20A     -0.697345    21A     -0.697014
      22A     -0.671826    23A     -0.659568    24A     -0.656952
      25A     -0.656796    26A     -0.641092    27A     -0.640145
      28A     -0.584197    29A     -0.560573    30A     -0.550663
      31A     -0.548062    32A     -0.524181    33A     -0.522220
      34A     -0.520859    35A     -0.454332    36A     -0.452776

  @DF-RHF Final Energy:  -530.96480675633563

   => Energetics <=

    Nuclear Repulsion Energy =            525.6858971101358975
    One-Electron Energy =               -1777.8563603819566197
    Two-Electron Energy =                 721.2056565154849750
    Total Energy =                       -530.9648067563356335
  Basis Set: (AUG-CC-PVTZ AUX)
    Blend: AUG-CC-PVTZ-RI
    Molecular point group: c1

    Geometry (in Angstrom), charge = 0, multiplicity = 1:

       Center              X                  Y                   Z               Mass
    ------------   -----------------  -----------------  -----------------  -----------------
         F           -1.601423201921    -0.116402372864     0.966863505501    18.998403162730
         F            0.901380798079    -1.328166372864     0.967082505501    18.998403162730
         F            0.699397798079     1.445207627136     0.967030505501    18.998403162730
         C           -1.460203201921    -0.106143372864    -0.425900494499    12.000000000000
         C            0.822040798079    -1.211120372864    -0.425701494499    12.000000000000
         C            0.637857798079     1.317849627136    -0.425748494499    12.000000000000
         C           -0.636926201921    -1.315192372864    -0.840256494499    12.000000000000
         C           -0.820793201921     1.209416627136    -0.840304494499    12.000000000000
         C            1.457515798079     0.106345627136    -0.840104494499    12.000000000000
         H           -2.471120201921    -0.179775372864    -0.846887494499     1.007825032230
         H            1.391313798079    -2.049822372864    -0.846549494499     1.007825032230
         H            1.079604798079     2.230167627136    -0.846629494499     1.007825032230
         H           -0.688124201921    -1.421132372864    -1.931949494499     1.007825032230
         H           -1.073372201921    -2.216557372864    -0.398945494499     1.007825032230
         H           -1.364579801921     2.010560027136    -0.330239294499     1.007825032230
         H           -0.886797201921     1.306781627136    -1.932000494499     1.007825032230
         H            2.456294798079     0.179093627136    -0.398689494499     1.007825032230
         H            1.574982798079     0.114879627136    -1.931785494499     1.007825032230

  Basis Set: AUG-CC-PVTZ
    Blend: AUG-CC-PVTZ
  Basis Set: (AUG-CC-PVTZ AUX)
    Blend: AUG-CC-PVTZ-JKFIT
	 Reference Energy          =    -530.9648067563356335 [Eh]
	 Singles Energy            =      -0.0000000000000000 [Eh]
	 Same-Spin Energy          =      -0.4700726863718411 [Eh]
	 Opposite-Spin Energy      =      -1.4867635452092351 [Eh]
	 Correlation Energy        =      -1.9568362315810763 [Eh]
	 Total Energy              =    -532.9216429879166981 [Eh]

	 ================> DF-SCS-MP2 Energies <==================
	-----------------------------------------------------------
	 SCS Same-Spin Scale       =       0.3333333333333333 [-]
	 SCS Opposite-Spin Scale   =       1.2000000000000000 [-]
	 SCS Same-Spin Energy      =      -0.1566908954572804 [Eh]
	 SCS Opposite-Spin Energy  =      -1.7841162542510822 [Eh]
	 SCS Correlation Energy    =      -1.9408071497083625 [Eh]
	 SCS Total Energy          =    -532.9056139060439818 [Eh]
	-----------------------------------------------------------

  Dipole Moment: [D]
     X:     0.0071      Y:    -0.0099      Z:    -5.2001     Total:     5.2001

*** Psi4 exiting successfully. Buy a developer a beer!
