                               Psi4 1.4a3.dev225

  ==> Input File <==

--------------------------------------------------------------------------
#psi4
#
memory 32 gb

molecule  {
0 1
  F       -1.6012940    -0.1166020     1.0531380
  F        0.9015100    -1.3283660     1.0533570
  F        0.6995270     1.4450080     1.0533050
  C       -1.4600740    -0.1063430    -0.3396260
  C        0.8221700    -1.2113200    -0.3394270
  C        0.6379870     1.3176500    -0.3394740
  C       -0.6367970    -1.3153920    -0.7539820
  C       -0.8206640     1.2092170    -0.7540300
  C        1.4576450     0.1061460    -0.7538300
  H       -2.4709910    -0.1799750    -0.7606130
  H        1.3914430    -2.0500220    -0.7602750
  H        1.0797340     2.2299680    -0.7603550
  H       -0.6879950    -1.4213320    -1.8456750
  H       -1.0732430    -2.2167570    -0.3126710
  H       -1.3831040     2.0378510    -0.3127500
  H       -0.8986904     1.3243167    -2.0445750
  H        2.4564240     0.1788940    -0.3124150
  H        1.5751120     0.1146800    -1.8455110
units angstrom
no_reorient  #important for SAPT in psi4, default
symmetry c1  #important for SAPT in psi4, default
}

set PROPERTIES_ORIGIN ["COM"]
properties('MP2/aug-cc-pvtz', properties = ['dipole'])
--------------------------------------------------------------------------

    Molecular point group: c1
  Charge       = 0
  Multiplicity = 1
  Basis Set: AUG-CC-PVTZ
    Blend: AUG-CC-PVTZ
  Basis Set: (AUG-CC-PVTZ AUX)
    Blend: AUG-CC-PVTZ-JKFIT

    Orbital Energies [Eh]
    ---------------------

    Doubly Occupied:

       1A    -26.267922     2A    -26.267920     3A    -26.265665
       4A    -11.322350     5A    -11.322343     6A    -11.320387
       7A    -11.267026     8A    -11.244207     9A    -11.244193
      10A     -1.583950    11A     -1.575064    12A     -1.573659
      13A     -1.135292    14A     -1.033409    15A     -1.027904
      16A     -0.872549    17A     -0.867731    18A     -0.776085
      19A     -0.745077    20A     -0.698256    21A     -0.691866
      22A     -0.673402    23A     -0.661200    24A     -0.658583
      25A     -0.656850    26A     -0.642210    27A     -0.639733
      28A     -0.585322    29A     -0.555942    30A     -0.548452
      31A     -0.535623    32A     -0.525293    33A     -0.522508
      34A     -0.508915    35A     -0.456123    36A     -0.455486

  @DF-RHF Final Energy:  -530.94550895526834

   => Energetics <=

    Nuclear Repulsion Energy =            524.5502746729813452
    One-Electron Energy =               -1775.5345680393957082
    Two-Electron Energy =                 720.0387844111461391
    Total Energy =                       -530.9455089552683376
  Basis Set: (AUG-CC-PVTZ AUX)
    Blend: AUG-CC-PVTZ-RI
    Molecular point group: c1

    Geometry (in Angstrom), charge = 0, multiplicity = 1:

       Center              X                  Y                   Z               Mass
    ------------   -----------------  -----------------  -----------------  -----------------
         F           -1.601199280602    -0.116732499832     0.968817130287    18.998403162730
         F            0.901604719398    -1.328496499832     0.969036130287    18.998403162730
         F            0.699621719398     1.444877500168     0.968984130287    18.998403162730
         C           -1.459979280602    -0.106473499832    -0.423946869713    12.000000000000
         C            0.822264719398    -1.211450499832    -0.423747869713    12.000000000000
         C            0.638081719398     1.317519500168    -0.423794869713    12.000000000000
         C           -0.636702280602    -1.315522499832    -0.838302869713    12.000000000000
         C           -0.820569280602     1.209086500168    -0.838350869713    12.000000000000
         C            1.457739719398     0.106015500168    -0.838150869713    12.000000000000
         H           -2.470896280602    -0.180105499832    -0.844933869713     1.007825032230
         H            1.391537719398    -2.050152499832    -0.844595869713     1.007825032230
         H            1.079828719398     2.229837500168    -0.844675869713     1.007825032230
         H           -0.687900280602    -1.421462499832    -1.929995869713     1.007825032230
         H           -1.073148280602    -2.216887499832    -0.396991869713     1.007825032230
         H           -1.383009280602     2.037720500168    -0.397070869713     1.007825032230
         H           -0.898595680602     1.324186200168    -2.128895869713     1.007825032230
         H            2.456518719398     0.178763500168    -0.396735869713     1.007825032230
         H            1.575206719398     0.114549500168    -1.929831869713     1.007825032230

  Basis Set: AUG-CC-PVTZ
    Blend: AUG-CC-PVTZ
  Basis Set: (AUG-CC-PVTZ AUX)
    Blend: AUG-CC-PVTZ-JKFIT
	 Reference Energy          =    -530.9455089552683376 [Eh]
	 Singles Energy            =      -0.0000000000000000 [Eh]
	 Same-Spin Energy          =      -0.4700632114543719 [Eh]
	 Opposite-Spin Energy      =      -1.4883058955477086 [Eh]
	 Correlation Energy        =      -1.9583691070020806 [Eh]
	 Total Energy              =    -532.9038780622704508 [Eh]

	 ================> DF-SCS-MP2 Energies <==================
	-----------------------------------------------------------
	 SCS Same-Spin Scale       =       0.3333333333333333 [-]
	 SCS Opposite-Spin Scale   =       1.2000000000000000 [-]
	 SCS Same-Spin Energy      =      -0.1566877371514573 [Eh]
	 SCS Opposite-Spin Energy  =      -1.7859670746572502 [Eh]
	 SCS Correlation Energy    =      -1.9426548118087075 [Eh]
	 SCS Total Energy          =    -532.8881637670770033 [Eh]
	-----------------------------------------------------------

  Dipole Moment: [D]
     X:     0.0124      Y:    -0.0177      Z:    -5.1094     Total:     5.1094

*** Psi4 exiting successfully. Buy a developer a beer!
