                               Psi4 1.4a3.dev225

  ==> Input File <==

--------------------------------------------------------------------------
#psi4
#
memory 32 gb

molecule  {
0 1
  F       -1.6012940    -0.1166020     1.0531380
  F        0.9015100    -1.3283660     1.0533570
  F        0.6995270     1.4450080     1.0533050
  C       -1.4600740    -0.1063430    -0.3396260
  C        0.8221700    -1.2113200    -0.3394270
  C        0.6379870     1.3176500    -0.3394740
  C       -0.6367970    -1.3153920    -0.7539820
  C       -0.7996348     1.2524838    -0.7676591
  C        1.4576450     0.1061460    -0.7538300
  H       -2.4709910    -0.1799750    -0.7606130
  H        1.3914430    -2.0500220    -0.7602750
  H        1.0797340     2.2299680    -0.7603550
  H       -0.6879950    -1.4213320    -1.8456750
  H       -1.0732430    -2.2167570    -0.3126710
  H       -1.3831040     2.0378510    -0.3127500
  H       -0.8866680     1.3065820    -1.8457260
  H        2.4564240     0.1788940    -0.3124150
  H        1.5751120     0.1146800    -1.8455110
units angstrom
no_reorient  #important for SAPT in psi4, default
symmetry c1  #important for SAPT in psi4, default
}

set PROPERTIES_ORIGIN ["COM"]
properties('MP2/aug-cc-pvtz', properties = ['dipole'])
--------------------------------------------------------------------------

    Molecular point group: c1
  Charge       = 0
  Multiplicity = 1
  Basis Set: AUG-CC-PVTZ
    Blend: AUG-CC-PVTZ
  Basis Set: (AUG-CC-PVTZ AUX)
    Blend: AUG-CC-PVTZ-JKFIT

    Orbital Energies [Eh]
    ---------------------

    Doubly Occupied:

       1A    -26.265726     2A    -26.265258     3A    -26.265150
       4A    -11.321766     5A    -11.319979     6A    -11.319054
       7A    -11.244518     8A    -11.243901     9A    -11.243216
      10A     -1.581911    11A     -1.572768    12A     -1.572219
      13A     -1.134800    14A     -1.035240    15A     -1.028517
      16A     -0.873085    17A     -0.868583    18A     -0.780395
      19A     -0.744323    20A     -0.697401    21A     -0.696451
      22A     -0.670824    23A     -0.661460    24A     -0.656664
      25A     -0.655063    26A     -0.641753    27A     -0.639989
      28A     -0.583620    29A     -0.561703    30A     -0.552431
      31A     -0.548140    32A     -0.526306    33A     -0.523626
      34A     -0.516464    35A     -0.458314    36A     -0.446844

  @DF-RHF Final Energy:  -530.96348243436341

   => Energetics <=

    Nuclear Repulsion Energy =            524.9349230842120733
    One-Electron Energy =               -1776.3618897212322736
    Two-Electron Energy =                 720.4634842026566730
    Total Energy =                       -530.9634824343634136
  Basis Set: (AUG-CC-PVTZ AUX)
    Blend: AUG-CC-PVTZ-RI
    Molecular point group: c1

    Geometry (in Angstrom), charge = 0, multiplicity = 1:

       Center              X                  Y                   Z               Mass
    ------------   -----------------  -----------------  -----------------  -----------------
         F           -1.603114796190    -0.120363585339     0.968550186236    18.998403162730
         F            0.899689203810    -1.332127585339     0.968769186236    18.998403162730
         F            0.697706203810     1.441246414661     0.968717186236    18.998403162730
         C           -1.461894796190    -0.110104585339    -0.424213813764    12.000000000000
         C            0.820349203810    -1.215081585339    -0.424014813764    12.000000000000
         C            0.636166203810     1.313888414661    -0.424061813764    12.000000000000
         C           -0.638617796190    -1.319153585339    -0.838569813764    12.000000000000
         C           -0.801455596190     1.248722214661    -0.852246913764    12.000000000000
         C            1.455824203810     0.102384414661    -0.838417813764    12.000000000000
         H           -2.472811796190    -0.183736585339    -0.845200813764     1.007825032230
         H            1.389622203810    -2.053783585339    -0.844862813764     1.007825032230
         H            1.077913203810     2.226206414661    -0.844942813764     1.007825032230
         H           -0.689815796190    -1.425093585339    -1.930262813764     1.007825032230
         H           -1.075063796190    -2.220518585339    -0.397258813764     1.007825032230
         H           -1.384924796190     2.034089414661    -0.397337813764     1.007825032230
         H           -0.888488796190     1.302820414661    -1.930313813764     1.007825032230
         H            2.454603203810     0.175132414661    -0.397002813764     1.007825032230
         H            1.573291203810     0.110918414661    -1.930098813764     1.007825032230

  Basis Set: AUG-CC-PVTZ
    Blend: AUG-CC-PVTZ
  Basis Set: (AUG-CC-PVTZ AUX)
    Blend: AUG-CC-PVTZ-JKFIT
	 Reference Energy          =    -530.9634824343634136 [Eh]
	 Singles Energy            =      -0.0000000000000000 [Eh]
	 Same-Spin Energy          =      -0.4698726267362086 [Eh]
	 Opposite-Spin Energy      =      -1.4865953372439555 [Eh]
	 Correlation Energy        =      -1.9564679639801641 [Eh]
	 Total Energy              =    -532.9199503983435307 [Eh]

	 ================> DF-SCS-MP2 Energies <==================
	-----------------------------------------------------------
	 SCS Same-Spin Scale       =       0.3333333333333333 [-]
	 SCS Opposite-Spin Scale   =       1.2000000000000000 [-]
	 SCS Same-Spin Energy      =      -0.1566242089120695 [Eh]
	 SCS Opposite-Spin Energy  =      -1.7839144046927466 [Eh]
	 SCS Correlation Energy    =      -1.9405386136048162 [Eh]
	 SCS Total Energy          =    -532.9040210479682855 [Eh]
	-----------------------------------------------------------

  Dipole Moment: [D]
     X:    -0.0176      Y:    -0.0155      Z:    -5.2170     Total:     5.2170

*** Psi4 exiting successfully. Buy a developer a beer!
