                               Psi4 1.4a3.dev225

  ==> Input File <==

--------------------------------------------------------------------------
#psi4
#
memory 32 gb

molecule  {
0 1
  F       -1.6012940    -0.1166020     1.0531380
  F        0.9015100    -1.3283660     1.0533570
  F        0.6995270     1.4450080     1.0533050
  C       -1.4600740    -0.1063430    -0.3396260
  C        0.8221700    -1.2113200    -0.3394270
  C        0.6379870     1.3176500    -0.3394740
  C       -0.6367970    -1.3153920    -0.7539820
  C       -0.7786055     1.2957506    -0.7812883
  C        1.4576450     0.1061460    -0.7538300
  H       -2.4709910    -0.1799750    -0.7606130
  H        1.3914430    -2.0500220    -0.7602750
  H        1.0797340     2.2299680    -0.7603550
  H       -0.6879950    -1.4213320    -1.8456750
  H       -1.0732430    -2.2167570    -0.3126710
  H       -1.3831040     2.0378510    -0.3127500
  H       -0.8866680     1.3065820    -1.8457260
  H        2.4564240     0.1788940    -0.3124150
  H        1.5751120     0.1146800    -1.8455110
units angstrom
no_reorient  #important for SAPT in psi4, default
symmetry c1  #important for SAPT in psi4, default
}

set PROPERTIES_ORIGIN ["COM"]
properties('MP2/aug-cc-pvtz', properties = ['dipole'])
--------------------------------------------------------------------------

    Molecular point group: c1
  Charge       = 0
  Multiplicity = 1
  Basis Set: AUG-CC-PVTZ
    Blend: AUG-CC-PVTZ
  Basis Set: (AUG-CC-PVTZ AUX)
    Blend: AUG-CC-PVTZ-JKFIT

    Orbital Energies [Eh]
    ---------------------

    Doubly Occupied:

       1A    -26.266302     2A    -26.265279     3A    -26.265088
       4A    -11.323001     5A    -11.319864     6A    -11.318281
       7A    -11.245075     8A    -11.243815     9A    -11.243055
      10A     -1.581862    11A     -1.572975    12A     -1.571870
      13A     -1.133408    14A     -1.037833    15A     -1.024994
      16A     -0.874785    17A     -0.866311    18A     -0.781023
      19A     -0.743280    20A     -0.697989    21A     -0.696238
      22A     -0.670504    23A     -0.663713    24A     -0.656697
      25A     -0.653805    26A     -0.642274    27A     -0.638826
      28A     -0.583325    29A     -0.567162    30A     -0.553984
      31A     -0.548175    32A     -0.528915    33A     -0.523694
      34A     -0.511609    35A     -0.461456    36A     -0.437495

  @DF-RHF Final Energy:  -530.95724843964547

   => Energetics <=

    Nuclear Repulsion Energy =            524.3398075670180560
    One-Electron Energy =               -1775.1661865177293294
    Two-Electron Energy =                 719.8691305110659187
    Total Energy =                       -530.9572484396454684
  Basis Set: (AUG-CC-PVTZ AUX)
    Blend: AUG-CC-PVTZ-RI
    Molecular point group: c1

    Geometry (in Angstrom), charge = 0, multiplicity = 1:

       Center              X                  Y                   Z               Mass
    ------------   -----------------  -----------------  -----------------  -----------------
         F           -1.604942561661    -0.124124127206     0.969734770657    18.998403162730
         F            0.897861438339    -1.335888127206     0.969953770657    18.998403162730
         F            0.695878438339     1.437485872794     0.969901770657    18.998403162730
         C           -1.463722561661    -0.113865127206    -0.423029229343    12.000000000000
         C            0.818521438339    -1.218842127206    -0.422830229343    12.000000000000
         C            0.634338438339     1.310127872794    -0.422877229343    12.000000000000
         C           -0.640445561661    -1.322914127206    -0.837385229343    12.000000000000
         C           -0.782254061661     1.288228472794    -0.864691529343    12.000000000000
         C            1.453996438339     0.098623872794    -0.837233229343    12.000000000000
         H           -2.474639561661    -0.187497127206    -0.844016229343     1.007825032230
         H            1.387794438339    -2.057544127206    -0.843678229343     1.007825032230
         H            1.076085438339     2.222445872794    -0.843758229343     1.007825032230
         H           -0.691643561661    -1.428854127206    -1.929078229343     1.007825032230
         H           -1.076891561661    -2.224279127206    -0.396074229343     1.007825032230
         H           -1.386752561661     2.030328872794    -0.396153229343     1.007825032230
         H           -0.890316561661     1.299059872794    -1.929129229343     1.007825032230
         H            2.452775438339     0.171371872794    -0.395818229343     1.007825032230
         H            1.571463438339     0.107157872794    -1.928914229343     1.007825032230

  Basis Set: AUG-CC-PVTZ
    Blend: AUG-CC-PVTZ
  Basis Set: (AUG-CC-PVTZ AUX)
    Blend: AUG-CC-PVTZ-JKFIT
	 Reference Energy          =    -530.9572484396454684 [Eh]
	 Singles Energy            =      -0.0000000000000000 [Eh]
	 Same-Spin Energy          =      -0.4699522186008109 [Eh]
	 Opposite-Spin Energy      =      -1.4869552678487390 [Eh]
	 Correlation Energy        =      -1.9569074864495499 [Eh]
	 Total Energy              =    -532.9141559260949634 [Eh]

	 ================> DF-SCS-MP2 Energies <==================
	-----------------------------------------------------------
	 SCS Same-Spin Scale       =       0.3333333333333333 [-]
	 SCS Opposite-Spin Scale   =       1.2000000000000000 [-]
	 SCS Same-Spin Energy      =      -0.1566507395336036 [Eh]
	 SCS Opposite-Spin Energy  =      -1.7843463214184867 [Eh]
	 SCS Correlation Energy    =      -1.9409970609520903 [Eh]
	 SCS Total Energy          =    -532.8982455005975680 [Eh]
	-----------------------------------------------------------

  Dipole Moment: [D]
     X:    -0.0330      Y:    -0.0324      Z:    -5.2086     Total:     5.2088

*** Psi4 exiting successfully. Buy a developer a beer!
