                               Psi4 1.4a3.dev225

  ==> Input File <==

--------------------------------------------------------------------------
#psi4
#
memory 32 gb

molecule  {
0 1
  O       -1.4489980    -1.3596060     0.4723610
  O       -2.3691670     0.4939580    -0.4217430
  C        1.1321160    -0.2196140    -0.0405290
  C       -0.0105280     0.5069120     0.0326710
  C        2.4766970     0.4535350     0.0627600
  C        1.2313970    -1.7075980    -0.2583110
  C       -0.0156040     2.0162910     0.1296940
  C       -1.3701120    -0.0899940    -0.0219250
  H        2.9277060     0.5711490    -0.9308000
  H        2.4285750     1.4356710     0.5340320
  H        3.1575210    -0.1728930     0.6488100
  H        0.3365173    -2.1280973    -0.7108184
  H        1.3871470    -2.2249860     0.6954000
  H        2.1022510    -1.9178450    -0.8884640
  H        0.7095660     2.4663690    -0.5519310
  H        0.2213140     2.3529670     1.1451890
  H       -1.0053580     2.3925600    -0.1303250
  H       -2.3942410    -1.6004330     0.3722060
units angstrom
no_reorient  #important for SAPT in psi4, default
symmetry c1  #important for SAPT in psi4, default
}

set PROPERTIES_ORIGIN ["COM"]
properties('MP2/aug-cc-pvtz', properties = ['dipole'])
--------------------------------------------------------------------------

    Molecular point group: c1
  Charge       = 0
  Multiplicity = 1
  Basis Set: AUG-CC-PVTZ
    Blend: AUG-CC-PVTZ
  Basis Set: (AUG-CC-PVTZ AUX)
    Blend: AUG-CC-PVTZ-JKFIT

    Orbital Energies [Eh]
    ---------------------

    Doubly Occupied:

       1A    -20.608633     2A    -20.541386     3A    -11.384456
       4A    -11.268463     5A    -11.242562     6A    -11.234327
       7A    -11.228205     8A    -11.219370     9A     -1.452828
      10A     -1.346245    11A     -1.123348    12A     -1.015300
      13A     -0.956605    14A     -0.908677    15A     -0.832722
      16A     -0.734027    17A     -0.699525    18A     -0.662551
      19A     -0.634950    20A     -0.610091    21A     -0.600148
      22A     -0.588182    23A     -0.562999    24A     -0.550367
      25A     -0.546655    26A     -0.543054    27A     -0.514246
      28A     -0.492349    29A     -0.475678    30A     -0.447157
      31A     -0.350238

  @DF-RHF Final Energy:  -382.89946658554112

   => Energetics <=

    Nuclear Repulsion Energy =            378.7192451985681600
    One-Electron Energy =               -1272.4867314388025079
    Two-Electron Energy =                 510.8680196546932279
    Total Energy =                       -382.8994665855411199
  Basis Set: (AUG-CC-PVTZ AUX)
    Blend: AUG-CC-PVTZ-RI
    Molecular point group: c1

    Geometry (in Angstrom), charge = 0, multiplicity = 1:

       Center              X                  Y                   Z               Mass
    ------------   -----------------  -----------------  -----------------  -----------------
         O           -1.363124791332    -1.349542448879     0.473705078860    15.994914619570
         O           -2.283293791332     0.504021551121    -0.420398921140    15.994914619570
         C            1.217989208668    -0.209550448879    -0.039184921140    12.000000000000
         C            0.075345208668     0.516975551121     0.034015078860    12.000000000000
         C            2.562570208668     0.463598551121     0.064104078860    12.000000000000
         C            1.317270208668    -1.697534448879    -0.256966921140    12.000000000000
         C            0.070269208668     2.026354551121     0.131038078860    12.000000000000
         C           -1.284238791332    -0.079930448879    -0.020580921140    12.000000000000
         H            3.013579208668     0.581212551121    -0.929455921140     1.007825032230
         H            2.514448208668     1.445734551121     0.535376078860     1.007825032230
         H            3.243394208668    -0.162829448879     0.650154078860     1.007825032230
         H            0.422390508668    -2.118033748879    -0.709474321140     1.007825032230
         H            1.473020208668    -2.214922448879     0.696744078860     1.007825032230
         H            2.188124208668    -1.907781448879    -0.887119921140     1.007825032230
         H            0.795439208668     2.476432551121    -0.550586921140     1.007825032230
         H            0.307187208668     2.363030551121     1.146533078860     1.007825032230
         H           -0.919484791332     2.402623551121    -0.128980921140     1.007825032230
         H           -2.308367791332    -1.590369448879     0.373550078860     1.007825032230

  Basis Set: AUG-CC-PVTZ
    Blend: AUG-CC-PVTZ
  Basis Set: (AUG-CC-PVTZ AUX)
    Blend: AUG-CC-PVTZ-JKFIT
	 Reference Energy          =    -382.8994665855411199 [Eh]
	 Singles Energy            =      -0.0000000000000000 [Eh]
	 Same-Spin Energy          =      -0.3880863309250422 [Eh]
	 Opposite-Spin Energy      =      -1.2605107265899071 [Eh]
	 Correlation Energy        =      -1.6485970575149493 [Eh]
	 Total Energy              =    -384.5480636430560821 [Eh]

	 ================> DF-SCS-MP2 Energies <==================
	-----------------------------------------------------------
	 SCS Same-Spin Scale       =       0.3333333333333333 [-]
	 SCS Opposite-Spin Scale   =       1.2000000000000000 [-]
	 SCS Same-Spin Energy      =      -0.1293621103083474 [Eh]
	 SCS Opposite-Spin Energy  =      -1.5126128719078886 [Eh]
	 SCS Correlation Energy    =      -1.6419749822162359 [Eh]
	 SCS Total Energy          =    -384.5414415677573743 [Eh]
	-----------------------------------------------------------

  Dipole Moment: [D]
     X:     2.1103      Y:    -0.9156      Z:     0.4726     Total:     2.3484

*** Psi4 exiting successfully. Buy a developer a beer!
