                               Psi4 1.4a3.dev225

  ==> Input File <==

--------------------------------------------------------------------------
#psi4
#
memory 32 gb

molecule  {
0 1
  O       -1.4489980    -1.3596060     0.4723610
  O       -2.3691670     0.4939580    -0.4217430
  C        1.1210440    -0.1987653    -0.0289219
  C       -0.0105280     0.5069120     0.0326710
  C        2.4766970     0.4535350     0.0627600
  C        1.2313970    -1.7075980    -0.2583110
  C       -0.0156040     2.0162910     0.1296940
  C       -1.3701120    -0.0899940    -0.0219250
  H        2.9277060     0.5711490    -0.9308000
  H        2.4285750     1.4356710     0.5340320
  H        3.1575210    -0.1728930     0.6488100
  H        0.3470430    -2.1345670    -0.7252240
  H        1.3871470    -2.2249860     0.6954000
  H        2.1022510    -1.9178450    -0.8884640
  H        0.7095660     2.4663690    -0.5519310
  H        0.2213140     2.3529670     1.1451890
  H       -1.0053580     2.3925600    -0.1303250
  H       -2.3942410    -1.6004330     0.3722060
units angstrom
no_reorient  #important for SAPT in psi4, default
symmetry c1  #important for SAPT in psi4, default
}

set PROPERTIES_ORIGIN ["COM"]
properties('MP2/aug-cc-pvtz', properties = ['dipole'])
--------------------------------------------------------------------------

    Molecular point group: c1
  Charge       = 0
  Multiplicity = 1
  Basis Set: AUG-CC-PVTZ
    Blend: AUG-CC-PVTZ
  Basis Set: (AUG-CC-PVTZ AUX)
    Blend: AUG-CC-PVTZ-JKFIT

    Orbital Energies [Eh]
    ---------------------

    Doubly Occupied:

       1A    -20.609036     2A    -20.542461     3A    -11.385483
       4A    -11.265895     5A    -11.240760     6A    -11.234065
       7A    -11.228537     8A    -11.219273     9A     -1.453388
      10A     -1.346979    11A     -1.124935    12A     -1.013441
      13A     -0.954660    14A     -0.909227    15A     -0.836577
      16A     -0.734448    17A     -0.699735    18A     -0.660849
      19A     -0.635036    20A     -0.609960    21A     -0.599937
      22A     -0.587335    23A     -0.563026    24A     -0.550776
      25A     -0.546903    26A     -0.542948    27A     -0.515069
      28A     -0.487259    29A     -0.476308    30A     -0.447411
      31A     -0.355555

  @DF-RHF Final Energy:  -382.89973697961284

   => Energetics <=

    Nuclear Repulsion Energy =            378.8450684260983508
    One-Electron Energy =               -1272.7350650806408794
    Two-Electron Energy =                 510.9902596749296890
    Total Energy =                       -382.8997369796128396
  Basis Set: (AUG-CC-PVTZ AUX)
    Blend: AUG-CC-PVTZ-RI
    Molecular point group: c1

    Geometry (in Angstrom), charge = 0, multiplicity = 1:

       Center              X                  Y                   Z               Mass
    ------------   -----------------  -----------------  -----------------  -----------------
         O           -1.362053010895    -1.351678577368     0.472611285783    15.994914619570
         O           -2.282222010895     0.501885422632    -0.421492714217    15.994914619570
         C            1.207988989105    -0.190837877368    -0.028671614217    12.000000000000
         C            0.076416989105     0.514839422632     0.032921285783    12.000000000000
         C            2.563641989105     0.461462422632     0.063010285783    12.000000000000
         C            1.318341989105    -1.699670577368    -0.258060714217    12.000000000000
         C            0.071340989105     2.024218422632     0.129944285783    12.000000000000
         C           -1.283167010895    -0.082066577368    -0.021674714217    12.000000000000
         H            3.014650989105     0.579076422632    -0.930549714217     1.007825032230
         H            2.515519989105     1.443598422632     0.534282285783     1.007825032230
         H            3.244465989105    -0.164965577368     0.649060285783     1.007825032230
         H            0.433987989105    -2.126639577368    -0.724973714217     1.007825032230
         H            1.474091989105    -2.217058577368     0.695650285783     1.007825032230
         H            2.189195989105    -1.909917577368    -0.888213714217     1.007825032230
         H            0.796510989105     2.474296422632    -0.551680714217     1.007825032230
         H            0.308258989105     2.360894422632     1.145439285783     1.007825032230
         H           -0.918413010895     2.400487422632    -0.130074714217     1.007825032230
         H           -2.307296010895    -1.592505577368     0.372456285783     1.007825032230

  Basis Set: AUG-CC-PVTZ
    Blend: AUG-CC-PVTZ
  Basis Set: (AUG-CC-PVTZ AUX)
    Blend: AUG-CC-PVTZ-JKFIT
	 Reference Energy          =    -382.8997369796128396 [Eh]
	 Singles Energy            =      -0.0000000000000000 [Eh]
	 Same-Spin Energy          =      -0.3876809701670217 [Eh]
	 Opposite-Spin Energy      =      -1.2600175395007034 [Eh]
	 Correlation Energy        =      -1.6476985096677250 [Eh]
	 Total Energy              =    -384.5474354892805877 [Eh]

	 ================> DF-SCS-MP2 Energies <==================
	-----------------------------------------------------------
	 SCS Same-Spin Scale       =       0.3333333333333333 [-]
	 SCS Opposite-Spin Scale   =       1.2000000000000000 [-]
	 SCS Same-Spin Energy      =      -0.1292269900556739 [Eh]
	 SCS Opposite-Spin Energy  =      -1.5120210474008440 [Eh]
	 SCS Correlation Energy    =      -1.6412480374565179 [Eh]
	 SCS Total Energy          =    -384.5409850170693744 [Eh]
	-----------------------------------------------------------

  Dipole Moment: [D]
     X:     2.0831      Y:    -0.8954      Z:     0.4619     Total:     2.3139

*** Psi4 exiting successfully. Buy a developer a beer!
