                               Psi4 1.4a3.dev225

  ==> Input File <==

--------------------------------------------------------------------------
#psi4
#
memory 32 gb

molecule  {
0 1
  O       -1.4489980    -1.3596060     0.4723610
  O       -2.3691670     0.4939580    -0.4217430
  C        1.1557361    -0.2243834    -0.1964409
  C       -0.0105280     0.5069120     0.0326710
  C        2.4766970     0.4535350     0.0627600
  C        1.2313970    -1.7075980    -0.2583110
  C       -0.0156040     2.0162910     0.1296940
  C       -1.3701120    -0.0899940    -0.0219250
  H        2.9277060     0.5711490    -0.9308000
  H        2.4285750     1.4356710     0.5340320
  H        3.1575210    -0.1728930     0.6488100
  H        0.3470430    -2.1345670    -0.7252240
  H        1.3871470    -2.2249860     0.6954000
  H        2.1022510    -1.9178450    -0.8884640
  H        0.7095660     2.4663690    -0.5519310
  H        0.2213140     2.3529670     1.1451890
  H       -1.0053580     2.3925600    -0.1303250
  H       -2.3942410    -1.6004330     0.3722060
units angstrom
no_reorient  #important for SAPT in psi4, default
symmetry c1  #important for SAPT in psi4, default
}

set PROPERTIES_ORIGIN ["COM"]
properties('MP2/aug-cc-pvtz', properties = ['dipole'])
--------------------------------------------------------------------------

    Molecular point group: c1
  Charge       = 0
  Multiplicity = 1
  Basis Set: AUG-CC-PVTZ
    Blend: AUG-CC-PVTZ
  Basis Set: (AUG-CC-PVTZ AUX)
    Blend: AUG-CC-PVTZ-JKFIT

    Orbital Energies [Eh]
    ---------------------

    Doubly Occupied:

       1A    -20.608908     2A    -20.541882     3A    -11.384730
       4A    -11.272768     5A    -11.248398     6A    -11.234487
       7A    -11.227322     8A    -11.220069     9A     -1.452960
      10A     -1.346506    11A     -1.119983    12A     -1.017492
      13A     -0.957795    14A     -0.907488    15A     -0.827084
      16A     -0.734402    17A     -0.699739    18A     -0.664200
      19A     -0.635380    20A     -0.608725    21A     -0.602084
      22A     -0.587803    23A     -0.564129    24A     -0.552059
      25A     -0.547573    26A     -0.539558    27A     -0.508035
      28A     -0.495724    29A     -0.474832    30A     -0.447814
      31A     -0.341882

  @DF-RHF Final Energy:  -382.88580990751086

   => Energetics <=

    Nuclear Repulsion Energy =            378.1248911245475028
    One-Electron Energy =               -1271.2777801545450984
    Two-Electron Energy =                 510.2670791224867344
    Total Energy =                       -382.8858099075108612
  Basis Set: (AUG-CC-PVTZ AUX)
    Blend: AUG-CC-PVTZ-RI
    Molecular point group: c1

    Geometry (in Angstrom), charge = 0, multiplicity = 1:

       Center              X                  Y                   Z               Mass
    ------------   -----------------  -----------------  -----------------  -----------------
         O           -1.365702631382    -1.348983544706     0.490234340434    15.994914619570
         O           -2.285871631382     0.504580455294    -0.403869659566    15.994914619570
         C            1.239031468618    -0.213760944706    -0.178567559566    12.000000000000
         C            0.072767368618     0.517534455294     0.050544340434    12.000000000000
         C            2.559992368618     0.464157455294     0.080633340434    12.000000000000
         C            1.314692368618    -1.696975544706    -0.240437659566    12.000000000000
         C            0.067691368618     2.026913455294     0.147567340434    12.000000000000
         C           -1.286816631382    -0.079371544706    -0.004051659566    12.000000000000
         H            3.011001368618     0.581771455294    -0.912926659566     1.007825032230
         H            2.511870368618     1.446293455294     0.551905340434     1.007825032230
         H            3.240816368618    -0.162270544706     0.666683340434     1.007825032230
         H            0.430338368618    -2.123944544706    -0.707350659566     1.007825032230
         H            1.470442368618    -2.214363544706     0.713273340434     1.007825032230
         H            2.185546368618    -1.907222544706    -0.870590659566     1.007825032230
         H            0.792861368618     2.476991455294    -0.534057659566     1.007825032230
         H            0.304609368618     2.363589455294     1.163062340434     1.007825032230
         H           -0.922062631382     2.403182455294    -0.112451659566     1.007825032230
         H           -2.310945631382    -1.589810544706     0.390079340434     1.007825032230

  Basis Set: AUG-CC-PVTZ
    Blend: AUG-CC-PVTZ
  Basis Set: (AUG-CC-PVTZ AUX)
    Blend: AUG-CC-PVTZ-JKFIT
	 Reference Energy          =    -382.8858099075108612 [Eh]
	 Singles Energy            =      -0.0000000000000000 [Eh]
	 Same-Spin Energy          =      -0.3892084818018349 [Eh]
	 Opposite-Spin Energy      =      -1.2630323051299337 [Eh]
	 Correlation Energy        =      -1.6522407869317686 [Eh]
	 Total Energy              =    -384.5380506944426315 [Eh]

	 ================> DF-SCS-MP2 Energies <==================
	-----------------------------------------------------------
	 SCS Same-Spin Scale       =       0.3333333333333333 [-]
	 SCS Opposite-Spin Scale   =       1.2000000000000000 [-]
	 SCS Same-Spin Energy      =      -0.1297361606006116 [Eh]
	 SCS Opposite-Spin Energy  =      -1.5156387661559203 [Eh]
	 SCS Correlation Energy    =      -1.6453749267565319 [Eh]
	 SCS Total Energy          =    -384.5311848342673784 [Eh]
	-----------------------------------------------------------

  Dipole Moment: [D]
     X:     2.0339      Y:    -0.8937      Z:     0.5736     Total:     2.2945

*** Psi4 exiting successfully. Buy a developer a beer!
