                               Psi4 1.4a3.dev225

  ==> Input File <==

--------------------------------------------------------------------------
#psi4
#
memory 32 gb

molecule  {
0 1
  O       -1.4489980    -1.3596060     0.4723610
  O       -2.3691670     0.4939580    -0.4217430
  C        1.1321160    -0.2196140    -0.0405290
  C       -0.0105280     0.5069120     0.0326710
  C        2.4766970     0.4535350     0.0627600
  C        1.2313970    -1.7075980    -0.2583110
  C       -0.0156040     2.0162910     0.1296940
  C       -1.3701120    -0.0899940    -0.0219250
  H        2.9277060     0.5711490    -0.9308000
  H        2.4285750     1.4356710     0.5340320
  H        3.1575210    -0.1728930     0.6488100
  H        0.1843850    -2.2130988    -0.8111026
  H        1.3871470    -2.2249860     0.6954000
  H        2.1022510    -1.9178450    -0.8884640
  H        0.7095660     2.4663690    -0.5519310
  H        0.2213140     2.3529670     1.1451890
  H       -1.0053580     2.3925600    -0.1303250
  H       -2.3942410    -1.6004330     0.3722060
units angstrom
no_reorient  #important for SAPT in psi4, default
symmetry c1  #important for SAPT in psi4, default
}

set PROPERTIES_ORIGIN ["COM"]
properties('MP2/aug-cc-pvtz', properties = ['dipole'])
--------------------------------------------------------------------------

    Molecular point group: c1
  Charge       = 0
  Multiplicity = 1
  Basis Set: AUG-CC-PVTZ
    Blend: AUG-CC-PVTZ
  Basis Set: (AUG-CC-PVTZ AUX)
    Blend: AUG-CC-PVTZ-JKFIT

    Orbital Energies [Eh]
    ---------------------

    Doubly Occupied:

       1A    -20.607752     2A    -20.541399     3A    -11.384431
       4A    -11.270085     5A    -11.248977     6A    -11.243493
       7A    -11.236082     8A    -11.219927     9A     -1.452489
      10A     -1.346081    11A     -1.123183    12A     -1.014243
      13A     -0.950243    14A     -0.905721    15A     -0.831961
      16A     -0.733560    17A     -0.698833    18A     -0.654794
      19A     -0.634798    20A     -0.610551    21A     -0.600693
      22A     -0.584643    23A     -0.563085    24A     -0.551801
      25A     -0.547545    26A     -0.531719    27A     -0.511204
      28A     -0.483060    29A     -0.467783    30A     -0.447291
      31A     -0.350517

  @DF-RHF Final Energy:  -382.87774533736456

   => Energetics <=

    Nuclear Repulsion Energy =            378.0282344524872542
    One-Electron Energy =               -1271.1160740357781833
    Two-Electron Energy =                 510.2100942459263706
    Total Energy =                       -382.8777453373645585
  Basis Set: (AUG-CC-PVTZ AUX)
    Blend: AUG-CC-PVTZ-RI
    Molecular point group: c1

    Geometry (in Angstrom), charge = 0, multiplicity = 1:

       Center              X                  Y                   Z               Mass
    ------------   -----------------  -----------------  -----------------  -----------------
         O           -1.361780657716    -1.348791435626     0.474591119262    15.994914619570
         O           -2.281949657716     0.504772564374    -0.419512880738    15.994914619570
         C            1.219333342284    -0.208799435626    -0.038298880738    12.000000000000
         C            0.076689342284     0.517726564374     0.034901119262    12.000000000000
         C            2.563914342284     0.464349564374     0.064990119262    12.000000000000
         C            1.318614342284    -1.696783435626    -0.256080880738    12.000000000000
         C            0.071613342284     2.027105564374     0.131924119262    12.000000000000
         C           -1.282894657716    -0.079179435626    -0.019694880738    12.000000000000
         H            3.014923342284     0.581963564374    -0.928569880738     1.007825032230
         H            2.515792342284     1.446485564374     0.536262119262     1.007825032230
         H            3.244738342284    -0.162078435626     0.651040119262     1.007825032230
         H            0.271602342284    -2.202284235626    -0.808872480738     1.007825032230
         H            1.474364342284    -2.214171435626     0.697630119262     1.007825032230
         H            2.189468342284    -1.907030435626    -0.886233880738     1.007825032230
         H            0.796783342284     2.477183564374    -0.549700880738     1.007825032230
         H            0.308531342284     2.363781564374     1.147419119262     1.007825032230
         H           -0.918140657716     2.403374564374    -0.128094880738     1.007825032230
         H           -2.307023657716    -1.589618435626     0.374436119262     1.007825032230

  Basis Set: AUG-CC-PVTZ
    Blend: AUG-CC-PVTZ
  Basis Set: (AUG-CC-PVTZ AUX)
    Blend: AUG-CC-PVTZ-JKFIT
	 Reference Energy          =    -382.8777453373645585 [Eh]
	 Singles Energy            =      -0.0000000000000000 [Eh]
	 Same-Spin Energy          =      -0.3885557455839950 [Eh]
	 Opposite-Spin Energy      =      -1.2626850294524385 [Eh]
	 Correlation Energy        =      -1.6512407750364335 [Eh]
	 Total Energy              =    -384.5289861124010145 [Eh]

	 ================> DF-SCS-MP2 Energies <==================
	-----------------------------------------------------------
	 SCS Same-Spin Scale       =       0.3333333333333333 [-]
	 SCS Opposite-Spin Scale   =       1.2000000000000000 [-]
	 SCS Same-Spin Energy      =      -0.1295185818613316 [Eh]
	 SCS Opposite-Spin Energy  =      -1.5152220353429262 [Eh]
	 SCS Correlation Energy    =      -1.6447406172042578 [Eh]
	 SCS Total Energy          =    -384.5224859545688219 [Eh]
	-----------------------------------------------------------

  Dipole Moment: [D]
     X:     2.1486      Y:    -0.8322      Z:     0.5254     Total:     2.3633

*** Psi4 exiting successfully. Buy a developer a beer!
