                               Psi4 1.4a3.dev225

  ==> Input File <==

--------------------------------------------------------------------------
#psi4
#
memory 32 gb

molecule  {
0 1
  O       -1.4489980    -1.3596060     0.4723610
  O       -2.3691670     0.4939580    -0.4217430
  C        1.0903187    -0.1350529     0.0060529
  C       -0.0105280     0.5069120     0.0326710
  C        2.4766970     0.4535350     0.0627600
  C        1.2313970    -1.7075980    -0.2583110
  C       -0.0156040     2.0162910     0.1296940
  C       -1.3701120    -0.0899940    -0.0219250
  H        2.9277060     0.5711490    -0.9308000
  H        2.4285750     1.4356710     0.5340320
  H        3.1575210    -0.1728930     0.6488100
  H        0.3470430    -2.1345670    -0.7252240
  H        1.3871470    -2.2249860     0.6954000
  H        2.1022510    -1.9178450    -0.8884640
  H        0.7095660     2.4663690    -0.5519310
  H        0.2213140     2.3529670     1.1451890
  H       -1.0053580     2.3925600    -0.1303250
  H       -2.3942410    -1.6004330     0.3722060
units angstrom
no_reorient  #important for SAPT in psi4, default
symmetry c1  #important for SAPT in psi4, default
}

set PROPERTIES_ORIGIN ["COM"]
properties('MP2/aug-cc-pvtz', properties = ['dipole'])
--------------------------------------------------------------------------

    Molecular point group: c1
  Charge       = 0
  Multiplicity = 1
  Basis Set: AUG-CC-PVTZ
    Blend: AUG-CC-PVTZ
  Basis Set: (AUG-CC-PVTZ AUX)
    Blend: AUG-CC-PVTZ-JKFIT

    Orbital Energies [Eh]
    ---------------------

    Doubly Occupied:

       1A    -20.610657     2A    -20.545709     3A    -11.388683
       4A    -11.258375     5A    -11.234823     6A    -11.233740
       7A    -11.228833     8A    -11.218876     9A     -1.455434
      10A     -1.349385    11A     -1.132254    12A     -1.008092
      13A     -0.949890    14A     -0.909789    15A     -0.847726
      16A     -0.736011    17A     -0.701269    18A     -0.654726
      19A     -0.636176    20A     -0.611254    21A     -0.599024
      22A     -0.587174    23A     -0.562515    24A     -0.555203
      25A     -0.544825    26A     -0.542789    27A     -0.517788
      28A     -0.478409    29A     -0.472175    30A     -0.443538
      31A     -0.371155

  @DF-RHF Final Energy:  -382.88949934401160

   => Energetics <=

    Nuclear Repulsion Energy =            379.3511938595897277
    One-Electron Energy =               -1273.7087904899360638
    Two-Electron Energy =                 511.4680972863346824
    Total Energy =                       -382.8894993440115968
  Basis Set: (AUG-CC-PVTZ AUX)
    Blend: AUG-CC-PVTZ-RI
    Molecular point group: c1

    Geometry (in Angstrom), charge = 0, multiplicity = 1:

       Center              X                  Y                   Z               Mass
    ------------   -----------------  -----------------  -----------------  -----------------
         O           -1.358820699092    -1.358381143089     0.468931925163    15.994914619570
         O           -2.278989699092     0.495182856911    -0.425172074837    15.994914619570
         C            1.180496000908    -0.133828043089     0.002623825163    12.000000000000
         C            0.079649300908     0.508136856911     0.029241925163    12.000000000000
         C            2.566874300908     0.454759856911     0.059330925163    12.000000000000
         C            1.321574300908    -1.706373143089    -0.261740074837    12.000000000000
         C            0.074573300908     2.017515856911     0.126264925163    12.000000000000
         C           -1.279934699092    -0.088769143089    -0.025354074837    12.000000000000
         H            3.017883300908     0.572373856911    -0.934229074837     1.007825032230
         H            2.518752300908     1.436895856911     0.530602925163     1.007825032230
         H            3.247698300908    -0.171668143089     0.645380925163     1.007825032230
         H            0.437220300908    -2.133342143089    -0.728653074837     1.007825032230
         H            1.477324300908    -2.223761143089     0.691970925163     1.007825032230
         H            2.192428300908    -1.916620143089    -0.891893074837     1.007825032230
         H            0.799743300908     2.467593856911    -0.555360074837     1.007825032230
         H            0.311491300908     2.354191856911     1.141759925163     1.007825032230
         H           -0.915180699092     2.393784856911    -0.133754074837     1.007825032230
         H           -2.304063699092    -1.599208143089     0.368776925163     1.007825032230

  Basis Set: AUG-CC-PVTZ
    Blend: AUG-CC-PVTZ
  Basis Set: (AUG-CC-PVTZ AUX)
    Blend: AUG-CC-PVTZ-JKFIT
	 Reference Energy          =    -382.8894993440115968 [Eh]
	 Singles Energy            =      -0.0000000000000000 [Eh]
	 Same-Spin Energy          =      -0.3869863827540002 [Eh]
	 Opposite-Spin Energy      =      -1.2592951049919279 [Eh]
	 Correlation Energy        =      -1.6462814877459282 [Eh]
	 Total Energy              =    -384.5357808317575063 [Eh]

	 ================> DF-SCS-MP2 Energies <==================
	-----------------------------------------------------------
	 SCS Same-Spin Scale       =       0.3333333333333333 [-]
	 SCS Opposite-Spin Scale   =       1.2000000000000000 [-]
	 SCS Same-Spin Energy      =      -0.1289954609180001 [Eh]
	 SCS Opposite-Spin Energy  =      -1.5111541259903134 [Eh]
	 SCS Correlation Energy    =      -1.6401495869083134 [Eh]
	 SCS Total Energy          =    -384.5296489309199046 [Eh]
	-----------------------------------------------------------

  Dipole Moment: [D]
     X:     1.9869      Y:    -0.8261      Z:     0.4495     Total:     2.1983

*** Psi4 exiting successfully. Buy a developer a beer!
