                               Psi4 1.4a3.dev225

  ==> Input File <==

--------------------------------------------------------------------------
#psi4
#
memory 32 gb

molecule  {
0 1
  O       -1.4489980    -1.3596060     0.4723610
  O       -2.3691670     0.4939580    -0.4217430
  C        1.1321160    -0.2196140    -0.0405290
  C       -0.0105280     0.5069120     0.0326710
  C        2.4766970     0.4535350     0.0627600
  C        1.2313970    -1.7075980    -0.2583110
  C       -0.0156040     2.0162910     0.1296940
  C       -1.3701120    -0.0899940    -0.0219250
  H        2.9277060     0.5711490    -0.9308000
  H        2.4285750     1.4356710     0.5340320
  H        3.1575210    -0.1728930     0.6488100
  H        0.2880389    -2.0938680    -0.6368122
  H        1.3871470    -2.2249860     0.6954000
  H        2.1022510    -1.9178450    -0.8884640
  H        0.7095660     2.4663690    -0.5519310
  H        0.2213140     2.3529670     1.1451890
  H       -1.0053580     2.3925600    -0.1303250
  H       -2.3942410    -1.6004330     0.3722060
units angstrom
no_reorient  #important for SAPT in psi4, default
symmetry c1  #important for SAPT in psi4, default
}

set PROPERTIES_ORIGIN ["COM"]
properties('MP2/aug-cc-pvtz', properties = ['dipole'])
--------------------------------------------------------------------------

    Molecular point group: c1
  Charge       = 0
  Multiplicity = 1
  Basis Set: AUG-CC-PVTZ
    Blend: AUG-CC-PVTZ
  Basis Set: (AUG-CC-PVTZ AUX)
    Blend: AUG-CC-PVTZ-JKFIT

    Orbital Energies [Eh]
    ---------------------

    Doubly Occupied:

       1A    -20.609583     2A    -20.541690     3A    -11.384826
       4A    -11.268057     5A    -11.242271     6A    -11.234010
       7A    -11.227506     8A    -11.219312     9A     -1.453748
      10A     -1.346871    11A     -1.123507    12A     -1.015226
      13A     -0.956943    14A     -0.908470    15A     -0.832783
      16A     -0.734350    17A     -0.701102    18A     -0.661522
      19A     -0.636266    20A     -0.611385    21A     -0.599812
      22A     -0.589221    23A     -0.562192    24A     -0.550973
      25A     -0.546134    26A     -0.542239    27A     -0.515936
      28A     -0.490288    29A     -0.476208    30A     -0.447383
      31A     -0.349797

  @DF-RHF Final Energy:  -382.89796181307446

   => Energetics <=

    Nuclear Repulsion Energy =            378.9087914238500616
    One-Electron Energy =               -1272.8542813522888082
    Two-Electron Energy =                 511.0475281153642868
    Total Energy =                       -382.8979618130744598
  Basis Set: (AUG-CC-PVTZ AUX)
    Blend: AUG-CC-PVTZ-RI
    Molecular point group: c1

    Geometry (in Angstrom), charge = 0, multiplicity = 1:

       Center              X                  Y                   Z               Mass
    ------------   -----------------  -----------------  -----------------  -----------------
         O           -1.362696470409    -1.349844874812     0.473051212317    15.994914619570
         O           -2.282865470409     0.503719125188    -0.421052787683    15.994914619570
         C            1.218417529591    -0.209852874812    -0.039838787683    12.000000000000
         C            0.075773529591     0.516673125188     0.033361212317    12.000000000000
         C            2.562998529591     0.463296125188     0.063450212317    12.000000000000
         C            1.317698529591    -1.697836874812    -0.257620787683    12.000000000000
         C            0.070697529591     2.026052125188     0.130384212317    12.000000000000
         C           -1.283810470409    -0.080232874812    -0.021234787683    12.000000000000
         H            3.014007529591     0.580910125188    -0.930109787683     1.007825032230
         H            2.514876529591     1.445432125188     0.534722212317     1.007825032230
         H            3.243822529591    -0.163131874812     0.649500212317     1.007825032230
         H            0.374340429591    -2.084106874812    -0.636121987683     1.007825032230
         H            1.473448529591    -2.215224874812     0.696090212317     1.007825032230
         H            2.188552529591    -1.908083874812    -0.887773787683     1.007825032230
         H            0.795867529591     2.476130125188    -0.551240787683     1.007825032230
         H            0.307615529591     2.362728125188     1.145879212317     1.007825032230
         H           -0.919056470409     2.402321125188    -0.129634787683     1.007825032230
         H           -2.307939470409    -1.590671874812     0.372896212317     1.007825032230

  Basis Set: AUG-CC-PVTZ
    Blend: AUG-CC-PVTZ
  Basis Set: (AUG-CC-PVTZ AUX)
    Blend: AUG-CC-PVTZ-JKFIT
	 Reference Energy          =    -382.8979618130744598 [Eh]
	 Singles Energy            =      -0.0000000000000000 [Eh]
	 Same-Spin Energy          =      -0.3883128845383315 [Eh]
	 Opposite-Spin Energy      =      -1.2607122066718843 [Eh]
	 Correlation Energy        =      -1.6490250912102158 [Eh]
	 Total Energy              =    -384.5469869042846653 [Eh]

	 ================> DF-SCS-MP2 Energies <==================
	-----------------------------------------------------------
	 SCS Same-Spin Scale       =       0.3333333333333333 [-]
	 SCS Opposite-Spin Scale   =       1.2000000000000000 [-]
	 SCS Same-Spin Energy      =      -0.1294376281794438 [Eh]
	 SCS Opposite-Spin Energy  =      -1.5128546480062612 [Eh]
	 SCS Correlation Energy    =      -1.6422922761857051 [Eh]
	 SCS Total Energy          =    -384.5402540892601451 [Eh]
	-----------------------------------------------------------

  Dipole Moment: [D]
     X:     2.0885      Y:    -0.9106      Z:     0.5033     Total:     2.3333

*** Psi4 exiting successfully. Buy a developer a beer!
