                               Psi4 1.4a3.dev225

  ==> Input File <==

--------------------------------------------------------------------------
#psi4
#
memory 32 gb

molecule  {
0 1
  O       -1.4489980    -1.3596060     0.4723610
  O       -2.3691670     0.4939580    -0.4217430
  C        1.1321160    -0.2196140    -0.0405290
  C       -0.0105280     0.5069120     0.0326710
  C        2.4766970     0.4535350     0.0627600
  C        1.2313970    -1.7075980    -0.2583110
  C       -0.0156040     2.0162910     0.1296940
  C       -1.3585512     0.0960681    -0.0943628
  H        2.9277060     0.5711490    -0.9308000
  H        2.4285750     1.4356710     0.5340320
  H        3.1575210    -0.1728930     0.6488100
  H        0.3470430    -2.1345670    -0.7252240
  H        1.3871470    -2.2249860     0.6954000
  H        2.1022510    -1.9178450    -0.8884640
  H        0.7095660     2.4663690    -0.5519310
  H        0.2213140     2.3529670     1.1451890
  H       -1.0053580     2.3925600    -0.1303250
  H       -2.3942410    -1.6004330     0.3722060
units angstrom
no_reorient  #important for SAPT in psi4, default
symmetry c1  #important for SAPT in psi4, default
}

set PROPERTIES_ORIGIN ["COM"]
properties('MP2/aug-cc-pvtz', properties = ['dipole'])
--------------------------------------------------------------------------

    Molecular point group: c1
  Charge       = 0
  Multiplicity = 1
  Basis Set: AUG-CC-PVTZ
    Blend: AUG-CC-PVTZ
  Basis Set: (AUG-CC-PVTZ AUX)
    Blend: AUG-CC-PVTZ-JKFIT

    Orbital Energies [Eh]
    ---------------------

    Doubly Occupied:

       1A    -20.569062     2A    -20.545505     3A    -11.382138
       4A    -11.284084     5A    -11.244944     6A    -11.241673
       7A    -11.226861     8A    -11.226375     9A     -1.474079
      10A     -1.299417    11A     -1.135281    12A     -1.033136
      13A     -0.959464    14A     -0.910127    15A     -0.833959
      16A     -0.717805    17A     -0.684200    18A     -0.667081
      19A     -0.634658    20A     -0.617131    21A     -0.598399
      22A     -0.585540    23A     -0.566466    24A     -0.557119
      25A     -0.550731    26A     -0.542868    27A     -0.524180
      28A     -0.496851    29A     -0.464994    30A     -0.433574
      31A     -0.360106

  @DF-RHF Final Energy:  -382.86191339394236

   => Energetics <=

    Nuclear Repulsion Energy =            378.9159779838417990
    One-Electron Energy =               -1272.8201660559418542
    Two-Electron Energy =                 511.0422746781576961
    Total Energy =                       -382.8619133939423591
  Basis Set: (AUG-CC-PVTZ AUX)
    Blend: AUG-CC-PVTZ-RI
    Molecular point group: c1

    Geometry (in Angstrom), charge = 0, multiplicity = 1:

       Center              X                  Y                   Z               Mass
    ------------   -----------------  -----------------  -----------------  -----------------
         O           -1.364433989001    -1.369059082129     0.481452837284    15.994914619570
         O           -2.284602989001     0.484504917871    -0.412651162716    15.994914619570
         C            1.216680010999    -0.229067082129    -0.031437162716    12.000000000000
         C            0.074036010999     0.497458917871     0.041762837284    12.000000000000
         C            2.561261010999     0.444081917871     0.071851837284    12.000000000000
         C            1.315961010999    -1.717051082129    -0.249219162716    12.000000000000
         C            0.068960010999     2.006837917871     0.138785837284    12.000000000000
         C           -1.273987189001     0.086615017871    -0.085270962716    12.000000000000
         H            3.012270010999     0.561695917871    -0.921708162716     1.007825032230
         H            2.513139010999     1.426217917871     0.543123837284     1.007825032230
         H            3.242085010999    -0.182346082129     0.657901837284     1.007825032230
         H            0.431607010999    -2.144020082129    -0.716132162716     1.007825032230
         H            1.471711010999    -2.234439082129     0.704491837284     1.007825032230
         H            2.186815010999    -1.927298082129    -0.879372162716     1.007825032230
         H            0.794130010999     2.456915917871    -0.542839162716     1.007825032230
         H            0.305878010999     2.343513917871     1.154280837284     1.007825032230
         H           -0.920793989001     2.383106917871    -0.121233162716     1.007825032230
         H           -2.309676989001    -1.609886082129     0.381297837284     1.007825032230

  Basis Set: AUG-CC-PVTZ
    Blend: AUG-CC-PVTZ
  Basis Set: (AUG-CC-PVTZ AUX)
    Blend: AUG-CC-PVTZ-JKFIT
	 Reference Energy          =    -382.8619133939423591 [Eh]
	 Singles Energy            =      -0.0000000000000000 [Eh]
	 Same-Spin Energy          =      -0.3891199720939558 [Eh]
	 Opposite-Spin Energy      =      -1.2632166346733165 [Eh]
	 Correlation Energy        =      -1.6523366067672722 [Eh]
	 Total Energy              =    -384.5142500007096373 [Eh]

	 ================> DF-SCS-MP2 Energies <==================
	-----------------------------------------------------------
	 SCS Same-Spin Scale       =       0.3333333333333333 [-]
	 SCS Opposite-Spin Scale   =       1.2000000000000000 [-]
	 SCS Same-Spin Energy      =      -0.1297066573646519 [Eh]
	 SCS Opposite-Spin Energy  =      -1.5158599616079798 [Eh]
	 SCS Correlation Energy    =      -1.6455666189726317 [Eh]
	 SCS Total Energy          =    -384.5074800129149821 [Eh]
	-----------------------------------------------------------

  Dipole Moment: [D]
     X:     2.4572      Y:     0.5412      Z:    -0.1685     Total:     2.5217

*** Psi4 exiting successfully. Buy a developer a beer!
