                               Psi4 1.4a3.dev225

  ==> Input File <==

--------------------------------------------------------------------------
#psi4
#
memory 32 gb

molecule  {
0 1
  O       -1.4489980    -1.3596060     0.4723610
  O       -2.3691670     0.4939580    -0.4217430
  C        1.1321160    -0.2196140    -0.0405290
  C       -0.0105280     0.5069120     0.0326710
  C        2.4766970     0.4535350     0.0627600
  C        1.2313970    -1.7075980    -0.2583110
  C       -0.0156040     2.0162910     0.1296940
  C       -1.3701120    -0.0899940    -0.0219250
  H        2.9277060     0.5711490    -0.9308000
  H        2.4285750     1.4356710     0.5340320
  H        3.1575210    -0.1728930     0.6488100
  H        0.3470430    -2.1345670    -0.7252240
  H        1.3871470    -2.2249860     0.6954000
  H        2.1022510    -1.9178450    -0.8884640
  H        0.7259862     2.4834947    -0.5220874
  H        0.2213140     2.3529670     1.1451890
  H       -1.0053580     2.3925600    -0.1303250
  H       -2.3942410    -1.6004330     0.3722060
units angstrom
no_reorient  #important for SAPT in psi4, default
symmetry c1  #important for SAPT in psi4, default
}

set PROPERTIES_ORIGIN ["COM"]
properties('MP2/aug-cc-pvtz', properties = ['dipole'])
--------------------------------------------------------------------------

    Molecular point group: c1
  Charge       = 0
  Multiplicity = 1
  Basis Set: AUG-CC-PVTZ
    Blend: AUG-CC-PVTZ
  Basis Set: (AUG-CC-PVTZ AUX)
    Blend: AUG-CC-PVTZ-JKFIT

    Orbital Energies [Eh]
    ---------------------

    Doubly Occupied:

       1A    -20.608596     2A    -20.541463     3A    -11.384600
       4A    -11.268664     5A    -11.242919     6A    -11.234486
       7A    -11.228379     8A    -11.219417     9A     -1.452793
      10A     -1.346261    11A     -1.123357    12A     -1.015279
      13A     -0.956667    14A     -0.908956    15A     -0.832839
      16A     -0.734471    17A     -0.699385    18A     -0.662896
      19A     -0.634756    20A     -0.610144    21A     -0.600100
      22A     -0.588152    23A     -0.560365    24A     -0.550660
      25A     -0.546586    26A     -0.544760    27A     -0.514036
      28A     -0.493318    29A     -0.475696    30A     -0.447253
      31A     -0.350134

  @DF-RHF Final Energy:  -382.89941938794618

   => Energetics <=

    Nuclear Repulsion Energy =            378.6571238585252104
    One-Electron Energy =               -1272.3583104417850791
    Two-Electron Energy =                 510.8017671953136869
    Total Energy =                       -382.8994193879461818
  Basis Set: (AUG-CC-PVTZ AUX)
    Blend: AUG-CC-PVTZ-RI
    Molecular point group: c1

    Geometry (in Angstrom), charge = 0, multiplicity = 1:

       Center              X                  Y                   Z               Mass
    ------------   -----------------  -----------------  -----------------  -----------------
         O           -1.363362866283    -1.349636597773     0.473568679589    15.994914619570
         O           -2.283531866283     0.503927402227    -0.420535320411    15.994914619570
         C            1.217751133717    -0.209644597773    -0.039321320411    12.000000000000
         C            0.075107133717     0.516881402227     0.033878679589    12.000000000000
         C            2.562332133717     0.463504402227     0.063967679589    12.000000000000
         C            1.317032133717    -1.697628597773    -0.257103320411    12.000000000000
         C            0.070031133717     2.026260402227     0.130901679589    12.000000000000
         C           -1.284476866283    -0.080024597773    -0.020717320411    12.000000000000
         H            3.013341133717     0.581118402227    -0.929592320411     1.007825032230
         H            2.514210133717     1.445640402227     0.535239679589     1.007825032230
         H            3.243156133717    -0.162923597773     0.650017679589     1.007825032230
         H            0.432678133717    -2.124597597773    -0.724016320411     1.007825032230
         H            1.472782133717    -2.215016597773     0.696607679589     1.007825032230
         H            2.187886133717    -1.907875597773    -0.887256320411     1.007825032230
         H            0.811621333717     2.493464102227    -0.520879720411     1.007825032230
         H            0.306949133717     2.362936402227     1.146396679589     1.007825032230
         H           -0.919722866283     2.402529402227    -0.129117320411     1.007825032230
         H           -2.308605866283    -1.590463597773     0.373413679589     1.007825032230

  Basis Set: AUG-CC-PVTZ
    Blend: AUG-CC-PVTZ
  Basis Set: (AUG-CC-PVTZ AUX)
    Blend: AUG-CC-PVTZ-JKFIT
	 Reference Energy          =    -382.8994193879461818 [Eh]
	 Singles Energy            =      -0.0000000000000000 [Eh]
	 Same-Spin Energy          =      -0.3880605186152091 [Eh]
	 Opposite-Spin Energy      =      -1.2604709548367539 [Eh]
	 Correlation Energy        =      -1.6485314734519629 [Eh]
	 Total Energy              =    -384.5479508613981352 [Eh]

	 ================> DF-SCS-MP2 Energies <==================
	-----------------------------------------------------------
	 SCS Same-Spin Scale       =       0.3333333333333333 [-]
	 SCS Opposite-Spin Scale   =       1.2000000000000000 [-]
	 SCS Same-Spin Energy      =      -0.1293535062050697 [Eh]
	 SCS Opposite-Spin Energy  =      -1.5125651458041045 [Eh]
	 SCS Correlation Energy    =      -1.6419186520091742 [Eh]
	 SCS Total Energy          =    -384.5413380399553489 [Eh]
	-----------------------------------------------------------

  Dipole Moment: [D]
     X:     2.1212      Y:    -0.9169      Z:     0.4732     Total:     2.3588

*** Psi4 exiting successfully. Buy a developer a beer!
