                               Psi4 1.4a3.dev225

  ==> Input File <==

--------------------------------------------------------------------------
#psi4
#
memory 32 gb

molecule  {
0 1
  O       -1.4489980    -1.3596060     0.4723610
  O       -2.3691670     0.4939580    -0.4217430
  C        1.1321160    -0.2196140    -0.0405290
  C       -0.0105280     0.5069120     0.0326710
  C        2.4766970     0.4535350     0.0627600
  C        1.2313970    -1.7075980    -0.2583110
  C       -0.0156040     2.0162910     0.1296940
  C       -1.3701120    -0.0899940    -0.0219250
  H        2.9277060     0.5711490    -0.9308000
  H        2.4285750     1.4356710     0.5340320
  H        3.1575210    -0.1728930     0.6488100
  H        0.3063785    -2.1541999    -0.7466937
  H        1.3871470    -2.2249860     0.6954000
  H        2.1022510    -1.9178450    -0.8884640
  H        0.7095660     2.4663690    -0.5519310
  H        0.2213140     2.3529670     1.1451890
  H       -1.0053580     2.3925600    -0.1303250
  H       -2.3942410    -1.6004330     0.3722060
units angstrom
no_reorient  #important for SAPT in psi4, default
symmetry c1  #important for SAPT in psi4, default
}

set PROPERTIES_ORIGIN ["COM"]
properties('MP2/aug-cc-pvtz', properties = ['dipole'])
--------------------------------------------------------------------------

    Molecular point group: c1
  Charge       = 0
  Multiplicity = 1
  Basis Set: AUG-CC-PVTZ
    Blend: AUG-CC-PVTZ
  Basis Set: (AUG-CC-PVTZ AUX)
    Blend: AUG-CC-PVTZ-JKFIT

    Orbital Energies [Eh]
    ---------------------

    Doubly Occupied:

       1A    -20.608293     2A    -20.541339     3A    -11.384390
       4A    -11.268871     5A    -11.242778     6A    -11.234746
       7A    -11.233794     8A    -11.219486     9A     -1.452623
      10A     -1.346117    11A     -1.123140    12A     -1.014777
      13A     -0.954393    14A     -0.907798    15A     -0.832436
      16A     -0.733805    17A     -0.699132    18A     -0.660009
      19A     -0.634750    20A     -0.609986    21A     -0.600284
      22A     -0.586733    23A     -0.563029    24A     -0.550703
      25A     -0.546773    26A     -0.539610    27A     -0.513096
      28A     -0.490492    29A     -0.474865    30A     -0.447161
      31A     -0.350348

  @DF-RHF Final Energy:  -382.89717207396404

   => Energetics <=

    Nuclear Repulsion Energy =            378.5043060874720595
    One-Electron Energy =               -1272.0714451105052376
    Two-Electron Energy =                 510.6699669490691349
    Total Energy =                       -382.8971720739640432
  Basis Set: (AUG-CC-PVTZ AUX)
    Blend: AUG-CC-PVTZ-RI
    Molecular point group: c1

    Geometry (in Angstrom), charge = 0, multiplicity = 1:

       Center              X                  Y                   Z               Mass
    ------------   -----------------  -----------------  -----------------  -----------------
         O           -1.362858506169    -1.349311824731     0.474022047687    15.994914619570
         O           -2.283027506169     0.504252175269    -0.420081952313    15.994914619570
         C            1.218255493831    -0.209319824731    -0.038867952313    12.000000000000
         C            0.075611493831     0.517206175269     0.034332047687    12.000000000000
         C            2.562836493831     0.463829175269     0.064421047687    12.000000000000
         C            1.317536493831    -1.697303824731    -0.256649952313    12.000000000000
         C            0.070535493831     2.026585175269     0.131355047687    12.000000000000
         C           -1.283972506169    -0.079699824731    -0.020263952313    12.000000000000
         H            3.013845493831     0.581443175269    -0.929138952313     1.007825032230
         H            2.514714493831     1.445965175269     0.535693047687     1.007825032230
         H            3.243660493831    -0.162598824731     0.650471047687     1.007825032230
         H            0.392517993831    -2.143905724731    -0.745032652313     1.007825032230
         H            1.473286493831    -2.214691824731     0.697061047687     1.007825032230
         H            2.188390493831    -1.907550824731    -0.886802952313     1.007825032230
         H            0.795705493831     2.476663175269    -0.550269952313     1.007825032230
         H            0.307453493831     2.363261175269     1.146850047687     1.007825032230
         H           -0.919218506169     2.402854175269    -0.128663952313     1.007825032230
         H           -2.308101506169    -1.590138824731     0.373867047687     1.007825032230

  Basis Set: AUG-CC-PVTZ
    Blend: AUG-CC-PVTZ
  Basis Set: (AUG-CC-PVTZ AUX)
    Blend: AUG-CC-PVTZ-JKFIT
	 Reference Energy          =    -382.8971720739640432 [Eh]
	 Singles Energy            =      -0.0000000000000000 [Eh]
	 Same-Spin Energy          =      -0.3881670402893653 [Eh]
	 Opposite-Spin Energy      =      -1.2609528226733855 [Eh]
	 Correlation Energy        =      -1.6491198629627508 [Eh]
	 Total Energy              =    -384.5462919369268207 [Eh]

	 ================> DF-SCS-MP2 Energies <==================
	-----------------------------------------------------------
	 SCS Same-Spin Scale       =       0.3333333333333333 [-]
	 SCS Opposite-Spin Scale   =       1.2000000000000000 [-]
	 SCS Same-Spin Energy      =      -0.1293890134297884 [Eh]
	 SCS Opposite-Spin Energy  =      -1.5131433872080626 [Eh]
	 SCS Correlation Energy    =      -1.6425324006378510 [Eh]
	 SCS Total Energy          =    -384.5397044746018764 [Eh]
	-----------------------------------------------------------

  Dipole Moment: [D]
     X:     2.1207      Y:    -0.8988      Z:     0.4786     Total:     2.3525

*** Psi4 exiting successfully. Buy a developer a beer!
