                               Psi4 1.4a3.dev225

  ==> Input File <==

--------------------------------------------------------------------------
#psi4
#
memory 32 gb

molecule  {
0 1
  O       -1.4489980    -1.3596060     0.4723610
  O       -2.3691670     0.4939580    -0.4217430
  C        1.1321160    -0.2196140    -0.0405290
  C       -0.0105280     0.5069120     0.0326710
  C        2.4766970     0.4535350     0.0627600
  C        1.2313970    -1.7075980    -0.2583110
  C       -0.0156040     2.0162910     0.1296940
  C       -1.3701120    -0.0899940    -0.0219250
  H        2.9277060     0.5711490    -0.9308000
  H        2.4285750     1.4356710     0.5340320
  H        3.1575210    -0.1728930     0.6488100
  H        0.3877075    -2.1149341    -0.7037543
  H        1.3871470    -2.2249860     0.6954000
  H        2.1022510    -1.9178450    -0.8884640
  H        0.7095660     2.4663690    -0.5519310
  H        0.2213140     2.3529670     1.1451890
  H       -1.0053580     2.3925600    -0.1303250
  H       -2.3942410    -1.6004330     0.3722060
units angstrom
no_reorient  #important for SAPT in psi4, default
symmetry c1  #important for SAPT in psi4, default
}

set PROPERTIES_ORIGIN ["COM"]
properties('MP2/aug-cc-pvtz', properties = ['dipole'])
--------------------------------------------------------------------------

    Molecular point group: c1
  Charge       = 0
  Multiplicity = 1
  Basis Set: AUG-CC-PVTZ
    Blend: AUG-CC-PVTZ
  Basis Set: (AUG-CC-PVTZ AUX)
    Blend: AUG-CC-PVTZ-JKFIT

    Orbital Energies [Eh]
    ---------------------

    Doubly Occupied:

       1A    -20.608630     2A    -20.541338     3A    -11.384404
       4A    -11.268262     5A    -11.242509     6A    -11.234053
       7A    -11.222685     8A    -11.219305     9A     -1.452705
      10A     -1.346154    11A     -1.123627    12A     -1.016132
      13A     -0.959171    14A     -0.909752    15A     -0.833068
      16A     -0.734203    17A     -0.699395    18A     -0.666142
      19A     -0.634658    20A     -0.609831    21A     -0.600344
      22A     -0.589430    23A     -0.563524    24A     -0.550534
      25A     -0.548003    26A     -0.544682    27A     -0.514540
      28A     -0.494314    29A     -0.475994    30A     -0.447082
      31A     -0.350328

  @DF-RHF Final Energy:  -382.89869203746719

   => Energetics <=

    Nuclear Repulsion Energy =            378.8733946239268562
    One-Electron Energy =               -1272.7745745021425137
    Two-Electron Energy =                 511.0024878407484721
    Total Energy =                       -382.8986920374671854
  Basis Set: (AUG-CC-PVTZ AUX)
    Blend: AUG-CC-PVTZ-RI
    Molecular point group: c1

    Geometry (in Angstrom), charge = 0, multiplicity = 1:

       Center              X                  Y                   Z               Mass
    ------------   -----------------  -----------------  -----------------  -----------------
         O           -1.363577071804    -1.349658749622     0.473642665459    15.994914619570
         O           -2.283746071804     0.503905250378    -0.420461334541    15.994914619570
         C            1.217536928196    -0.209666749622    -0.039247334541    12.000000000000
         C            0.074892928196     0.516859250378     0.033952665459    12.000000000000
         C            2.562117928196     0.463482250378     0.064041665459    12.000000000000
         C            1.316817928196    -1.697650749622    -0.257029334541    12.000000000000
         C            0.069816928196     2.026238250378     0.130975665459    12.000000000000
         C           -1.284691071804    -0.080046749622    -0.020643334541    12.000000000000
         H            3.013126928196     0.581096250378    -0.929518334541     1.007825032230
         H            2.513995928196     1.445618250378     0.535313665459     1.007825032230
         H            3.242941928196    -0.162945749622     0.650091665459     1.007825032230
         H            0.473128428196    -2.104986849622    -0.702472634541     1.007825032230
         H            1.472567928196    -2.215038749622     0.696681665459     1.007825032230
         H            2.187671928196    -1.907897749622    -0.887182334541     1.007825032230
         H            0.794986928196     2.476316250378    -0.550649334541     1.007825032230
         H            0.306734928196     2.362914250378     1.146470665459     1.007825032230
         H           -0.919937071804     2.402507250378    -0.129043334541     1.007825032230
         H           -2.308820071804    -1.590485749622     0.373487665459     1.007825032230

  Basis Set: AUG-CC-PVTZ
    Blend: AUG-CC-PVTZ
  Basis Set: (AUG-CC-PVTZ AUX)
    Blend: AUG-CC-PVTZ-JKFIT
	 Reference Energy          =    -382.8986920374671854 [Eh]
	 Singles Energy            =      -0.0000000000000000 [Eh]
	 Same-Spin Energy          =      -0.3879542338729539 [Eh]
	 Opposite-Spin Energy      =      -1.2600927361883552 [Eh]
	 Correlation Energy        =      -1.6480469700613090 [Eh]
	 Total Energy              =    -384.5467390075285152 [Eh]

	 ================> DF-SCS-MP2 Energies <==================
	-----------------------------------------------------------
	 SCS Same-Spin Scale       =       0.3333333333333333 [-]
	 SCS Opposite-Spin Scale   =       1.2000000000000000 [-]
	 SCS Same-Spin Energy      =      -0.1293180779576513 [Eh]
	 SCS Opposite-Spin Energy  =      -1.5121112834260262 [Eh]
	 SCS Correlation Energy    =      -1.6414293613836775 [Eh]
	 SCS Total Energy          =    -384.5401213988508857 [Eh]
	-----------------------------------------------------------

  Dipole Moment: [D]
     X:     2.1092      Y:    -0.9315      Z:     0.4561     Total:     2.3504

*** Psi4 exiting successfully. Buy a developer a beer!
