                               Psi4 1.4a3.dev225

  ==> Input File <==

--------------------------------------------------------------------------
#psi4
#
memory 32 gb

molecule  {
0 1
  O       -1.4489980    -1.3596060     0.4723610
  O       -2.3691670     0.4939580    -0.4217430
  C        1.1321160    -0.2196140    -0.0405290
  C       -0.0105280     0.5069120     0.0326710
  C        2.4766970     0.4535350     0.0627600
  C        1.2313970    -1.7075980    -0.2583110
  C       -0.0156040     2.0162910     0.1296940
  C       -1.3701120    -0.0899940    -0.0219250
  H        2.9277060     0.5711490    -0.9308000
  H        2.4285750     1.4356710     0.5340320
  H        3.1575210    -0.1728930     0.6488100
  H        0.5097010    -2.0560352    -0.6393454
  H        1.3871470    -2.2249860     0.6954000
  H        2.1022510    -1.9178450    -0.8884640
  H        0.7095660     2.4663690    -0.5519310
  H        0.2213140     2.3529670     1.1451890
  H       -1.0053580     2.3925600    -0.1303250
  H       -2.3942410    -1.6004330     0.3722060
units angstrom
no_reorient  #important for SAPT in psi4, default
symmetry c1  #important for SAPT in psi4, default
}

set PROPERTIES_ORIGIN ["COM"]
properties('MP2/aug-cc-pvtz', properties = ['dipole'])
--------------------------------------------------------------------------

    Molecular point group: c1
  Charge       = 0
  Multiplicity = 1
  Basis Set: AUG-CC-PVTZ
    Blend: AUG-CC-PVTZ
  Basis Set: (AUG-CC-PVTZ AUX)
    Blend: AUG-CC-PVTZ-JKFIT

    Orbital Energies [Eh]
    ---------------------

    Doubly Occupied:

       1A    -20.609062     2A    -20.541373     3A    -11.384459
       4A    -11.267668     5A    -11.242364     6A    -11.233322
       7A    -11.219176     8A    -11.205589     9A     -1.452796
      10A     -1.346209    11A     -1.125499    12A     -1.021194
      13A     -0.969834    14A     -0.913051    15A     -0.834437
      16A     -0.735356    17A     -0.700169    18A     -0.679526
      19A     -0.634487    20A     -0.609964    21A     -0.601687
      22A     -0.594491    23A     -0.565533    24A     -0.555413
      25A     -0.549434    26A     -0.545230    27A     -0.516196
      28A     -0.497237    29A     -0.476589    30A     -0.447013
      31A     -0.350430

  @DF-RHF Final Energy:  -382.86469150242414

   => Energetics <=

    Nuclear Repulsion Energy =            379.5409556178570938
    One-Electron Energy =               -1273.9617217404820622
    Two-Electron Energy =                 511.5560746202008318
    Total Energy =                       -382.8646915024241366
  Basis Set: (AUG-CC-PVTZ AUX)
    Blend: AUG-CC-PVTZ-RI
    Molecular point group: c1

    Geometry (in Angstrom), charge = 0, multiplicity = 1:

       Center              X                  Y                   Z               Mass
    ------------   -----------------  -----------------  -----------------  -----------------
         O           -1.364654920257    -1.350179138727     0.473073593884    15.994914619570
         O           -2.284823920257     0.503384861273    -0.421030406116    15.994914619570
         C            1.216459079743    -0.210187138727    -0.039816406116    12.000000000000
         C            0.073815079743     0.516338861273     0.033383593884    12.000000000000
         C            2.561040079743     0.462961861273     0.063472593884    12.000000000000
         C            1.315740079743    -1.698171138727    -0.257598406116    12.000000000000
         C            0.068739079743     2.025717861273     0.130406593884    12.000000000000
         C           -1.285768920257    -0.080567138727    -0.021212406116    12.000000000000
         H            3.012049079743     0.580575861273    -0.930087406116     1.007825032230
         H            2.512918079743     1.445097861273     0.534744593884     1.007825032230
         H            3.241864079743    -0.163466138727     0.649522593884     1.007825032230
         H            0.594044079743    -2.046608338727    -0.638632806116     1.007825032230
         H            1.471490079743    -2.215559138727     0.696112593884     1.007825032230
         H            2.186594079743    -1.908418138727    -0.887751406116     1.007825032230
         H            0.793909079743     2.475795861273    -0.551218406116     1.007825032230
         H            0.305657079743     2.362393861273     1.145901593884     1.007825032230
         H           -0.921014920257     2.401986861273    -0.129612406116     1.007825032230
         H           -2.309897920257    -1.591006138727     0.372918593884     1.007825032230

  Basis Set: AUG-CC-PVTZ
    Blend: AUG-CC-PVTZ
  Basis Set: (AUG-CC-PVTZ AUX)
    Blend: AUG-CC-PVTZ-JKFIT
	 Reference Energy          =    -382.8646915024241366 [Eh]
	 Singles Energy            =      -0.0000000000000000 [Eh]
	 Same-Spin Energy          =      -0.3877886892820570 [Eh]
	 Opposite-Spin Energy      =      -1.2594926148210743 [Eh]
	 Correlation Energy        =      -1.6472813041031313 [Eh]
	 Total Energy              =    -384.5119728065272398 [Eh]

	 ================> DF-SCS-MP2 Energies <==================
	-----------------------------------------------------------
	 SCS Same-Spin Scale       =       0.3333333333333333 [-]
	 SCS Opposite-Spin Scale   =       1.2000000000000000 [-]
	 SCS Same-Spin Energy      =      -0.1292628964273523 [Eh]
	 SCS Opposite-Spin Energy  =      -1.5113911377852891 [Eh]
	 SCS Correlation Energy    =      -1.6406540342126414 [Eh]
	 SCS Total Energy          =    -384.5053455366367530 [Eh]
	-----------------------------------------------------------

  Dipole Moment: [D]
     X:     2.1036      Y:    -0.9628      Z:     0.4361     Total:     2.3542

*** Psi4 exiting successfully. Buy a developer a beer!
