                               Psi4 1.4a3.dev225

  ==> Input File <==

--------------------------------------------------------------------------
#psi4
#
memory 32 gb

molecule  {
0 1
  O       -1.4489980    -1.3596060     0.4723610
  O       -2.3691670     0.4939580    -0.4217430
  C        1.1321160    -0.2196140    -0.0405290
  C       -0.0105280     0.5069120     0.0326710
  C        2.4766970     0.4535350     0.0627600
  C        1.2313970    -1.7075980    -0.2583110
  C       -0.0156040     2.0162910     0.1296940
  C       -1.3701120    -0.0899940    -0.0219250
  H        2.9277060     0.5711490    -0.9308000
  H        2.4285750     1.4356710     0.5340320
  H        3.1575210    -0.1728930     0.6488100
  H        0.3578381    -2.1409067    -0.7394873
  H        1.3871470    -2.2249860     0.6954000
  H        2.1022510    -1.9178450    -0.8884640
  H        0.7095660     2.4663690    -0.5519310
  H        0.2213140     2.3529670     1.1451890
  H       -1.0053580     2.3925600    -0.1303250
  H       -2.3942410    -1.6004330     0.3722060
units angstrom
no_reorient  #important for SAPT in psi4, default
symmetry c1  #important for SAPT in psi4, default
}

set PROPERTIES_ORIGIN ["COM"]
properties('MP2/aug-cc-pvtz', properties = ['dipole'])
--------------------------------------------------------------------------

    Molecular point group: c1
  Charge       = 0
  Multiplicity = 1
  Basis Set: AUG-CC-PVTZ
    Blend: AUG-CC-PVTZ
  Basis Set: (AUG-CC-PVTZ AUX)
    Blend: AUG-CC-PVTZ-JKFIT

    Orbital Energies [Eh]
    ---------------------

    Doubly Occupied:

       1A    -20.608304     2A    -20.541288     3A    -11.384334
       4A    -11.268629     5A    -11.242688     6A    -11.234427
       7A    -11.228434     8A    -11.219401     9A     -1.452509
      10A     -1.346030    11A     -1.123300    12A     -1.015342
      13A     -0.956497    14A     -0.908786    15A     -0.832724
      16A     -0.733930    17A     -0.698994    18A     -0.663009
      19A     -0.634474    20A     -0.609701    21A     -0.600399
      22A     -0.587702    23A     -0.563429    24A     -0.550716
      25A     -0.547123    26A     -0.542302    27A     -0.513412
      28A     -0.492915    29A     -0.475452    30A     -0.447082
      31A     -0.350420

  @DF-RHF Final Energy:  -382.89955959984621

   => Energetics <=

    Nuclear Repulsion Energy =            378.6465968274209786
    One-Electron Energy =               -1272.3448028326765780
    Two-Electron Energy =                 510.7986464054093290
    Total Energy =                       -382.8995595998462136
  Basis Set: (AUG-CC-PVTZ AUX)
    Blend: AUG-CC-PVTZ-RI
    Molecular point group: c1

    Geometry (in Angstrom), charge = 0, multiplicity = 1:

       Center              X                  Y                   Z               Mass
    ------------   -----------------  -----------------  -----------------  -----------------
         O           -1.363313166870    -1.349429274062     0.473958377023    15.994914619570
         O           -2.283482166870     0.504134725938    -0.420145622977    15.994914619570
         C            1.217800833130    -0.209437274062    -0.038931622977    12.000000000000
         C            0.075156833130     0.517088725938     0.034268377023    12.000000000000
         C            2.562381833130     0.463711725938     0.064357377023    12.000000000000
         C            1.317081833130    -1.697421274062    -0.256713622977    12.000000000000
         C            0.070080833130     2.026467725938     0.131291377023    12.000000000000
         C           -1.284427166870    -0.079817274062    -0.020327622977    12.000000000000
         H            3.013390833130     0.581325725938    -0.929202622977     1.007825032230
         H            2.514259833130     1.445847725938     0.535629377023     1.007825032230
         H            3.243205833130    -0.162716274062     0.650407377023     1.007825032230
         H            0.443522933130    -2.130729974062    -0.737889922977     1.007825032230
         H            1.472831833130    -2.214809274062     0.696997377023     1.007825032230
         H            2.187935833130    -1.907668274062    -0.886866622977     1.007825032230
         H            0.795250833130     2.476545725938    -0.550333622977     1.007825032230
         H            0.306998833130     2.363143725938     1.146786377023     1.007825032230
         H           -0.919673166870     2.402736725938    -0.128727622977     1.007825032230
         H           -2.308556166870    -1.590256274062     0.373803377023     1.007825032230

  Basis Set: AUG-CC-PVTZ
    Blend: AUG-CC-PVTZ
  Basis Set: (AUG-CC-PVTZ AUX)
    Blend: AUG-CC-PVTZ-JKFIT
	 Reference Energy          =    -382.8995595998462136 [Eh]
	 Singles Energy            =      -0.0000000000000000 [Eh]
	 Same-Spin Energy          =      -0.3880248408230526 [Eh]
	 Opposite-Spin Energy      =      -1.2604663113031040 [Eh]
	 Correlation Energy        =      -1.6484911521261565 [Eh]
	 Total Energy              =    -384.5480507519723687 [Eh]

	 ================> DF-SCS-MP2 Energies <==================
	-----------------------------------------------------------
	 SCS Same-Spin Scale       =       0.3333333333333333 [-]
	 SCS Opposite-Spin Scale   =       1.2000000000000000 [-]
	 SCS Same-Spin Energy      =      -0.1293416136076842 [Eh]
	 SCS Opposite-Spin Energy  =      -1.5125595735637247 [Eh]
	 SCS Correlation Energy    =      -1.6419011871714089 [Eh]
	 SCS Total Energy          =    -384.5414607870176269 [Eh]
	-----------------------------------------------------------

  Dipole Moment: [D]
     X:     2.1180      Y:    -0.9170      Z:     0.4603     Total:     2.3535

*** Psi4 exiting successfully. Buy a developer a beer!
