                               Psi4 1.4a3.dev225

  ==> Input File <==

--------------------------------------------------------------------------
#psi4
#
memory 32 gb

molecule  {
0 1
  O       -1.4489980    -1.3596060     0.4723610
  O       -2.3691670     0.4939580    -0.4217430
  C        1.1321160    -0.2196140    -0.0405290
  C       -0.0105280     0.5069120     0.0326710
  C        2.4766970     0.4535350     0.0627600
  C        1.2313970    -1.7075980    -0.2583110
  C       -0.0156040     2.0162910     0.1296940
  C       -1.3701120    -0.0899940    -0.0219250
  H        2.9359252     0.5732924    -0.9489066
  H        2.4285750     1.4356710     0.5340320
  H        3.1575210    -0.1728930     0.6488100
  H        0.3470430    -2.1345670    -0.7252240
  H        1.3871470    -2.2249860     0.6954000
  H        2.1022510    -1.9178450    -0.8884640
  H        0.7095660     2.4663690    -0.5519310
  H        0.2213140     2.3529670     1.1451890
  H       -1.0053580     2.3925600    -0.1303250
  H       -2.3942410    -1.6004330     0.3722060
units angstrom
no_reorient  #important for SAPT in psi4, default
symmetry c1  #important for SAPT in psi4, default
}

set PROPERTIES_ORIGIN ["COM"]
properties('MP2/aug-cc-pvtz', properties = ['dipole'])
--------------------------------------------------------------------------

    Molecular point group: c1
  Charge       = 0
  Multiplicity = 1
  Basis Set: AUG-CC-PVTZ
    Blend: AUG-CC-PVTZ
  Basis Set: (AUG-CC-PVTZ AUX)
    Blend: AUG-CC-PVTZ-JKFIT

    Orbital Energies [Eh]
    ---------------------

    Doubly Occupied:

       1A    -20.608527     2A    -20.541417     3A    -11.384481
       4A    -11.268686     5A    -11.242778     6A    -11.236755
       7A    -11.228316     8A    -11.219450     9A     -1.452733
      10A     -1.346207    11A     -1.123233    12A     -1.015055
      13A     -0.955450    14A     -0.908787    15A     -0.832344
      16A     -0.733891    17A     -0.699307    18A     -0.662830
      19A     -0.634612    20A     -0.609378    21A     -0.599837
      22A     -0.587341    23A     -0.563237    24A     -0.548886
      25A     -0.546461    26A     -0.542720    27A     -0.513893
      28A     -0.492784    29A     -0.475623    30A     -0.447200
      31A     -0.350275

  @DF-RHF Final Energy:  -382.89903558168101

   => Energetics <=

    Nuclear Repulsion Energy =            378.5953034393073153
    One-Electron Energy =               -1272.2436910956034808
    Two-Electron Energy =                 510.7493520746151034
    Total Energy =                       -382.8990355816810052
  Basis Set: (AUG-CC-PVTZ AUX)
    Blend: AUG-CC-PVTZ-RI
    Molecular point group: c1

    Geometry (in Angstrom), charge = 0, multiplicity = 1:

       Center              X                  Y                   Z               Mass
    ------------   -----------------  -----------------  -----------------  -----------------
         O           -1.363290408036    -1.349504224746     0.473992333709    15.994914619570
         O           -2.283459408036     0.504059775254    -0.420111666291    15.994914619570
         C            1.217823591964    -0.209512224746    -0.038897666291    12.000000000000
         C            0.075179591964     0.517013775254     0.034302333709    12.000000000000
         C            2.562404591964     0.463636775254     0.064391333709    12.000000000000
         C            1.317104591964    -1.697496224746    -0.256679666291    12.000000000000
         C            0.070103591964     2.026392775254     0.131325333709    12.000000000000
         C           -1.284404408036    -0.079892224746    -0.020293666291    12.000000000000
         H            3.021632791964     0.583394175254    -0.947275266291     1.007825032230
         H            2.514282591964     1.445772775254     0.535663333709     1.007825032230
         H            3.243228591964    -0.162791224746     0.650441333709     1.007825032230
         H            0.432750591964    -2.124465224746    -0.723592666291     1.007825032230
         H            1.472854591964    -2.214884224746     0.697031333709     1.007825032230
         H            2.187958591964    -1.907743224746    -0.886832666291     1.007825032230
         H            0.795273591964     2.476470775254    -0.550299666291     1.007825032230
         H            0.307021591964     2.363068775254     1.146820333709     1.007825032230
         H           -0.919650408036     2.402661775254    -0.128693666291     1.007825032230
         H           -2.308533408036    -1.590331224746     0.373837333709     1.007825032230

  Basis Set: AUG-CC-PVTZ
    Blend: AUG-CC-PVTZ
  Basis Set: (AUG-CC-PVTZ AUX)
    Blend: AUG-CC-PVTZ-JKFIT
	 Reference Energy          =    -382.8990355816810052 [Eh]
	 Singles Energy            =      -0.0000000000000000 [Eh]
	 Same-Spin Energy          =      -0.3880598920487326 [Eh]
	 Opposite-Spin Energy      =      -1.2606126218310689 [Eh]
	 Correlation Energy        =      -1.6486725138798015 [Eh]
	 Total Energy              =    -384.5477080955607789 [Eh]

	 ================> DF-SCS-MP2 Energies <==================
	-----------------------------------------------------------
	 SCS Same-Spin Scale       =       0.3333333333333333 [-]
	 SCS Opposite-Spin Scale   =       1.2000000000000000 [-]
	 SCS Same-Spin Energy      =      -0.1293532973495775 [Eh]
	 SCS Opposite-Spin Energy  =      -1.5127351461972827 [Eh]
	 SCS Correlation Energy    =      -1.6420884435468601 [Eh]
	 SCS Total Energy          =    -384.5411240252278731 [Eh]
	-----------------------------------------------------------

  Dipole Moment: [D]
     X:     2.1063      Y:    -0.9169      Z:     0.4729     Total:     2.3454

*** Psi4 exiting successfully. Buy a developer a beer!
