                               Psi4 1.4a3.dev225

  ==> Input File <==

--------------------------------------------------------------------------
#psi4
#
memory 32 gb

molecule  {
0 1
  O       -1.4489980    -1.3596060     0.4723610
  O       -2.3691670     0.4939580    -0.4217430
  C        1.1321160    -0.2196140    -0.0405290
  C       -0.0105280     0.5069120     0.0326710
  C        2.4766970     0.4535350     0.0627600
  C        1.2313970    -1.7075980    -0.2583110
  C       -0.0156040     2.0162910     0.1296940
  C       -1.3701120    -0.0899940    -0.0219250
  H        2.9277060     0.5711490    -0.9308000
  H        2.4285750     1.4356710     0.5340320
  H        3.1575210    -0.1728930     0.6488100
  H        0.3307772    -2.1424202    -0.7338119
  H        1.3871470    -2.2249860     0.6954000
  H        2.1022510    -1.9178450    -0.8884640
  H        0.7095660     2.4663690    -0.5519310
  H        0.2213140     2.3529670     1.1451890
  H       -1.0053580     2.3925600    -0.1303250
  H       -2.3942410    -1.6004330     0.3722060
units angstrom
no_reorient  #important for SAPT in psi4, default
symmetry c1  #important for SAPT in psi4, default
}

set PROPERTIES_ORIGIN ["COM"]
properties('MP2/aug-cc-pvtz', properties = ['dipole'])
--------------------------------------------------------------------------

    Molecular point group: c1
  Charge       = 0
  Multiplicity = 1
  Basis Set: AUG-CC-PVTZ
    Blend: AUG-CC-PVTZ
  Basis Set: (AUG-CC-PVTZ AUX)
    Blend: AUG-CC-PVTZ-JKFIT

    Orbital Energies [Eh]
    ---------------------

    Doubly Occupied:

       1A    -20.608397     2A    -20.541336     3A    -11.384391
       4A    -11.268671     5A    -11.242681     6A    -11.234521
       7A    -11.230534     8A    -11.219423     9A     -1.452648
      10A     -1.346128    11A     -1.123236    12A     -1.015074
      13A     -0.955633    14A     -0.908345    15A     -0.832600
      16A     -0.733901    17A     -0.699203    18A     -0.661600
      19A     -0.634726    20A     -0.609921    21A     -0.600264
      22A     -0.587426    23A     -0.563120    24A     -0.550564
      25A     -0.546792    26A     -0.541526    27A     -0.513546
      28A     -0.491849    29A     -0.475328    30A     -0.447135
      31A     -0.350334

  @DF-RHF Final Energy:  -382.89893734526629

   => Energetics <=

    Nuclear Repulsion Energy =            378.6099479526142204
    One-Electron Energy =               -1272.2760633433067596
    Two-Electron Energy =                 510.7671780454262489
    Total Energy =                       -382.8989373452662903
  Basis Set: (AUG-CC-PVTZ AUX)
    Blend: AUG-CC-PVTZ-RI
    Molecular point group: c1

    Geometry (in Angstrom), charge = 0, multiplicity = 1:

       Center              X                  Y                   Z               Mass
    ------------   -----------------  -----------------  -----------------  -----------------
         O           -1.363074075860    -1.349415901845     0.473908233195    15.994914619570
         O           -2.283243075860     0.504148098155    -0.420195766805    15.994914619570
         C            1.218039924140    -0.209423901845    -0.038981766805    12.000000000000
         C            0.075395924140     0.517102098155     0.034218233195    12.000000000000
         C            2.562620924140     0.463725098155     0.064307233195    12.000000000000
         C            1.317320924140    -1.697407901845    -0.256763766805    12.000000000000
         C            0.070319924140     2.026481098155     0.131241233195    12.000000000000
         C           -1.284188075860    -0.079803901845    -0.020377766805    12.000000000000
         H            3.013629924140     0.581339098155    -0.929252766805     1.007825032230
         H            2.514498924140     1.445861098155     0.535579233195     1.007825032230
         H            3.243444924140    -0.162702901845     0.650357233195     1.007825032230
         H            0.416701124140    -2.132230101845    -0.732264666805     1.007825032230
         H            1.473070924140    -2.214795901845     0.696947233195     1.007825032230
         H            2.188174924140    -1.907654901845    -0.886916766805     1.007825032230
         H            0.795489924140     2.476559098155    -0.550383766805     1.007825032230
         H            0.307237924140     2.363157098155     1.146736233195     1.007825032230
         H           -0.919434075860     2.402750098155    -0.128777766805     1.007825032230
         H           -2.308317075860    -1.590242901845     0.373753233195     1.007825032230

  Basis Set: AUG-CC-PVTZ
    Blend: AUG-CC-PVTZ
  Basis Set: (AUG-CC-PVTZ AUX)
    Blend: AUG-CC-PVTZ-JKFIT
	 Reference Energy          =    -382.8989373452662903 [Eh]
	 Singles Energy            =      -0.0000000000000000 [Eh]
	 Same-Spin Energy          =      -0.3880974705290304 [Eh]
	 Opposite-Spin Energy      =      -1.2606646462723163 [Eh]
	 Correlation Energy        =      -1.6487621168013469 [Eh]
	 Total Energy              =    -384.5476994620676123 [Eh]

	 ================> DF-SCS-MP2 Energies <==================
	-----------------------------------------------------------
	 SCS Same-Spin Scale       =       0.3333333333333333 [-]
	 SCS Opposite-Spin Scale   =       1.2000000000000000 [-]
	 SCS Same-Spin Energy      =      -0.1293658235096768 [Eh]
	 SCS Opposite-Spin Energy  =      -1.5127975755267795 [Eh]
	 SCS Correlation Energy    =      -1.6421633990364564 [Eh]
	 SCS Total Energy          =    -384.5411007443027529 [Eh]
	-----------------------------------------------------------

  Dipole Moment: [D]
     X:     2.1167      Y:    -0.9096      Z:     0.4711     Total:     2.3515

*** Psi4 exiting successfully. Buy a developer a beer!
