                               Psi4 1.4a3.dev225

  ==> Input File <==

--------------------------------------------------------------------------
#psi4
#
memory 32 gb

molecule  {
0 1
  O       -1.4489980    -1.3596060     0.4723610
  O       -2.3691670     0.4939580    -0.4217430
  C        1.1321160    -0.2196140    -0.0405290
  C       -0.0105280     0.5069120     0.0326710
  C        2.4766970     0.4535350     0.0627600
  C        1.2313970    -1.7075980    -0.2583110
  C       -0.0156040     2.0162910     0.1296940
  C       -1.3701120    -0.0899940    -0.0219250
  H        2.9277060     0.5711490    -0.9308000
  H        2.4285750     1.4356710     0.5340320
  H        3.1575210    -0.1728930     0.6488100
  H        0.4157363    -2.1705881    -0.8085202
  H        1.3871470    -2.2249860     0.6954000
  H        2.1022510    -1.9178450    -0.8884640
  H        0.7095660     2.4663690    -0.5519310
  H        0.2213140     2.3529670     1.1451890
  H       -1.0053580     2.3925600    -0.1303250
  H       -2.3942410    -1.6004330     0.3722060
units angstrom
no_reorient  #important for SAPT in psi4, default
symmetry c1  #important for SAPT in psi4, default
}

set PROPERTIES_ORIGIN ["COM"]
properties('MP2/aug-cc-pvtz', properties = ['dipole'])
--------------------------------------------------------------------------

    Molecular point group: c1
  Charge       = 0
  Multiplicity = 1
  Basis Set: AUG-CC-PVTZ
    Blend: AUG-CC-PVTZ
  Basis Set: (AUG-CC-PVTZ AUX)
    Blend: AUG-CC-PVTZ-JKFIT

    Orbital Energies [Eh]
    ---------------------

    Doubly Occupied:

       1A    -20.607591     2A    -20.541092     3A    -11.384087
       4A    -11.269052     5A    -11.243027     6A    -11.234612
       7A    -11.228890     8A    -11.219493     9A     -1.451822
      10A     -1.345570    11A     -1.123212    12A     -1.015480
      13A     -0.956306    14A     -0.909124    15A     -0.832794
      16A     -0.733761    17A     -0.697884    18A     -0.664277
      19A     -0.633420    20A     -0.609100    21A     -0.601202
      22A     -0.586441    23A     -0.564807    24A     -0.552524
      25A     -0.547512    26A     -0.539723    27A     -0.510963
      28A     -0.493542    29A     -0.474862    30A     -0.446930
      31A     -0.350883

  @DF-RHF Final Energy:  -382.89852531220697

   => Energetics <=

    Nuclear Repulsion Energy =            378.4736980791984706
    One-Electron Energy =               -1272.0044827898393578
    Two-Electron Energy =                 510.6322593984339164
    Total Energy =                       -382.8985253122069707
  Basis Set: (AUG-CC-PVTZ AUX)
    Blend: AUG-CC-PVTZ-RI
    Molecular point group: c1

    Geometry (in Angstrom), charge = 0, multiplicity = 1:

       Center              X                  Y                   Z               Mass
    ------------   -----------------  -----------------  -----------------  -----------------
         O           -1.363824714496    -1.349167030164     0.474568302999    15.994914619570
         O           -2.283993714496     0.504396969836    -0.419535697001    15.994914619570
         C            1.217289285504    -0.209175030164    -0.038321697001    12.000000000000
         C            0.074645285504     0.517350969836     0.034878302999    12.000000000000
         C            2.561870285504     0.463973969836     0.064967302999    12.000000000000
         C            1.316570285504    -1.697159030164    -0.256103697001    12.000000000000
         C            0.069569285504     2.026729969836     0.131901302999    12.000000000000
         C           -1.284938714496    -0.079555030164    -0.019717697001    12.000000000000
         H            3.012879285504     0.581587969836    -0.928592697001     1.007825032230
         H            2.513748285504     1.446109969836     0.536239302999     1.007825032230
         H            3.242694285504    -0.162454030164     0.651017302999     1.007825032230
         H            0.500909585504    -2.160149130164    -0.806312897001     1.007825032230
         H            1.472320285504    -2.214547030164     0.697607302999     1.007825032230
         H            2.187424285504    -1.907406030164    -0.886256697001     1.007825032230
         H            0.794739285504     2.476807969836    -0.549723697001     1.007825032230
         H            0.306487285504     2.363405969836     1.147396302999     1.007825032230
         H           -0.920184714496     2.402998969836    -0.128117697001     1.007825032230
         H           -2.309067714496    -1.589994030164     0.374413302999     1.007825032230

  Basis Set: AUG-CC-PVTZ
    Blend: AUG-CC-PVTZ
  Basis Set: (AUG-CC-PVTZ AUX)
    Blend: AUG-CC-PVTZ-JKFIT
	 Reference Energy          =    -382.8985253122069707 [Eh]
	 Singles Energy            =      -0.0000000000000000 [Eh]
	 Same-Spin Energy          =      -0.3879442940467363 [Eh]
	 Opposite-Spin Energy      =      -1.2604482955401906 [Eh]
	 Correlation Energy        =      -1.6483925895869269 [Eh]
	 Total Energy              =    -384.5469179017939041 [Eh]

	 ================> DF-SCS-MP2 Energies <==================
	-----------------------------------------------------------
	 SCS Same-Spin Scale       =       0.3333333333333333 [-]
	 SCS Opposite-Spin Scale   =       1.2000000000000000 [-]
	 SCS Same-Spin Energy      =      -0.1293147646822454 [Eh]
	 SCS Opposite-Spin Energy  =      -1.5125379546482287 [Eh]
	 SCS Correlation Energy    =      -1.6418527193304742 [Eh]
	 SCS Total Energy          =    -384.5403780315374433 [Eh]
	-----------------------------------------------------------

  Dipole Moment: [D]
     X:     2.1359      Y:    -0.9194      Z:     0.4296     Total:     2.3647

*** Psi4 exiting successfully. Buy a developer a beer!
