                               Psi4 1.4a3.dev225

  ==> Input File <==

--------------------------------------------------------------------------
#psi4
#
memory 32 gb

molecule  {
0 1
  O       -1.4489980    -1.3596060     0.4723610
  O       -2.3691670     0.4939580    -0.4217430
  C        1.1321160    -0.2196140    -0.0405290
  C       -0.0105280     0.5069120     0.0326710
  C        2.4766970     0.4535350     0.0627600
  C        1.2313970    -1.7075980    -0.2583110
  C       -0.0156040     2.0162910     0.1296940
  C       -1.3816728    -0.2760561     0.0505128
  H        2.9277060     0.5711490    -0.9308000
  H        2.4285750     1.4356710     0.5340320
  H        3.1575210    -0.1728930     0.6488100
  H        0.3470430    -2.1345670    -0.7252240
  H        1.3871470    -2.2249860     0.6954000
  H        2.1022510    -1.9178450    -0.8884640
  H        0.7095660     2.4663690    -0.5519310
  H        0.2213140     2.3529670     1.1451890
  H       -1.0053580     2.3925600    -0.1303250
  H       -2.3942410    -1.6004330     0.3722060
units angstrom
no_reorient  #important for SAPT in psi4, default
symmetry c1  #important for SAPT in psi4, default
}

set PROPERTIES_ORIGIN ["COM"]
properties('MP2/aug-cc-pvtz', properties = ['dipole'])
--------------------------------------------------------------------------

    Molecular point group: c1
  Charge       = 0
  Multiplicity = 1
  Basis Set: AUG-CC-PVTZ
    Blend: AUG-CC-PVTZ
  Basis Set: (AUG-CC-PVTZ AUX)
    Blend: AUG-CC-PVTZ-JKFIT

    Orbital Energies [Eh]
    ---------------------

    Doubly Occupied:

       1A    -20.665555     2A    -20.511128     3A    -11.390384
       4A    -11.255375     5A    -11.245766     6A    -11.230923
       7A    -11.228402     8A    -11.214994     9A     -1.576411
      10A     -1.282681    11A     -1.114711    12A     -1.003620
      13A     -0.957935    14A     -0.928187    15A     -0.866671
      16A     -0.766960    17A     -0.727417    18A     -0.701726
      19A     -0.655018    20A     -0.603787    21A     -0.598767
      22A     -0.580217    23A     -0.559913    24A     -0.547253
      25A     -0.540179    26A     -0.531976    27A     -0.501851
      28A     -0.478452    29A     -0.439341    30A     -0.419655
      31A     -0.341315

  @DF-RHF Final Energy:  -382.83930268455293

   => Energetics <=

    Nuclear Repulsion Energy =            379.0347314770869502
    One-Electron Energy =               -1272.8149210127362494
    Two-Electron Energy =                 510.9408868510963089
    Total Energy =                       -382.8393026845529334
  Basis Set: (AUG-CC-PVTZ AUX)
    Blend: AUG-CC-PVTZ-RI
    Molecular point group: c1

    Geometry (in Angstrom), charge = 0, multiplicity = 1:

       Center              X                  Y                   Z               Mass
    ------------   -----------------  -----------------  -----------------  -----------------
         O           -1.362001588972    -1.329911492224     0.466211875862    15.994914619570
         O           -2.282170588972     0.523652507776    -0.427892124138    15.994914619570
         C            1.219112411028    -0.189919492224    -0.046678124138    12.000000000000
         C            0.076468411028     0.536606507776     0.026521875862    12.000000000000
         C            2.563693411028     0.483229507776     0.056610875862    12.000000000000
         C            1.318393411028    -1.677903492224    -0.264460124138    12.000000000000
         C            0.071392411028     2.045985507776     0.123544875862    12.000000000000
         C           -1.294676388972    -0.246361592224     0.044363675862    12.000000000000
         H            3.014702411028     0.600843507776    -0.936949124138     1.007825032230
         H            2.515571411028     1.465365507776     0.527882875862     1.007825032230
         H            3.244517411028    -0.143198492224     0.642660875862     1.007825032230
         H            0.434039411028    -2.104872492224    -0.731373124138     1.007825032230
         H            1.474143411028    -2.195291492224     0.689250875862     1.007825032230
         H            2.189247411028    -1.888150492224    -0.894613124138     1.007825032230
         H            0.796562411028     2.496063507776    -0.558080124138     1.007825032230
         H            0.308310411028     2.382661507776     1.139039875862     1.007825032230
         H           -0.918361588972     2.422254507776    -0.136474124138     1.007825032230
         H           -2.307244588972    -1.570738492224     0.366056875862     1.007825032230

  Basis Set: AUG-CC-PVTZ
    Blend: AUG-CC-PVTZ
  Basis Set: (AUG-CC-PVTZ AUX)
    Blend: AUG-CC-PVTZ-JKFIT
	 Reference Energy          =    -382.8393026845529334 [Eh]
	 Singles Energy            =      -0.0000000000000000 [Eh]
	 Same-Spin Energy          =      -0.3889946106265135 [Eh]
	 Opposite-Spin Energy      =      -1.2611354222113051 [Eh]
	 Correlation Energy        =      -1.6501300328378186 [Eh]
	 Total Energy              =    -384.4894327173907413 [Eh]

	 ================> DF-SCS-MP2 Energies <==================
	-----------------------------------------------------------
	 SCS Same-Spin Scale       =       0.3333333333333333 [-]
	 SCS Opposite-Spin Scale   =       1.2000000000000000 [-]
	 SCS Same-Spin Energy      =      -0.1296648702088378 [Eh]
	 SCS Opposite-Spin Energy  =      -1.5133625066535661 [Eh]
	 SCS Correlation Energy    =      -1.6430273768624040 [Eh]
	 SCS Total Energy          =    -384.4823300614153254 [Eh]
	-----------------------------------------------------------

  Dipole Moment: [D]
     X:     1.9848      Y:    -2.2304      Z:     1.0819     Total:     3.1756

*** Psi4 exiting successfully. Buy a developer a beer!
