                               Psi4 1.4a3.dev225

  ==> Input File <==

--------------------------------------------------------------------------
#psi4
#
memory 32 gb

molecule  {
0 1
  O       -1.4489980    -1.3596060     0.4723610
  O       -2.3691670     0.4939580    -0.4217430
  C        1.1321160    -0.2196140    -0.0405290
  C       -0.0105280     0.5069120     0.0326710
  C        2.4766970     0.4535350     0.0627600
  C        1.2313970    -1.7075980    -0.2583110
  C       -0.0156040     2.0162910     0.1296940
  C       -1.5531164    -0.1703395    -0.0292738
  H        2.9277060     0.5711490    -0.9308000
  H        2.4285750     1.4356710     0.5340320
  H        3.1575210    -0.1728930     0.6488100
  H        0.3470430    -2.1345670    -0.7252240
  H        1.3871470    -2.2249860     0.6954000
  H        2.1022510    -1.9178450    -0.8884640
  H        0.7095660     2.4663690    -0.5519310
  H        0.2213140     2.3529670     1.1451890
  H       -1.0053580     2.3925600    -0.1303250
  H       -2.3942410    -1.6004330     0.3722060
units angstrom
no_reorient  #important for SAPT in psi4, default
symmetry c1  #important for SAPT in psi4, default
}

set PROPERTIES_ORIGIN ["COM"]
properties('MP2/aug-cc-pvtz', properties = ['dipole'])
--------------------------------------------------------------------------

    Molecular point group: c1
  Charge       = 0
  Multiplicity = 1
  Basis Set: AUG-CC-PVTZ
    Blend: AUG-CC-PVTZ
  Basis Set: (AUG-CC-PVTZ AUX)
    Blend: AUG-CC-PVTZ-JKFIT

    Orbital Energies [Eh]
    ---------------------

    Doubly Occupied:

       1A    -20.635649     2A    -20.562229     3A    -11.386016
       4A    -11.240938     5A    -11.232354     6A    -11.220108
       7A    -11.217453     8A    -11.210960     9A     -1.515698
      10A     -1.429819    11A     -1.097935    12A     -0.992702
      13A     -0.939834    14A     -0.887884    15A     -0.830817
      16A     -0.747997    17A     -0.723850    18A     -0.674847
      19A     -0.656731    20A     -0.634771    21A     -0.592671
      22A     -0.580499    23A     -0.557258    24A     -0.550069
      25A     -0.537154    26A     -0.535829    27A     -0.514521
      28A     -0.501657    29A     -0.490192    30A     -0.412365
      31A     -0.330956

  @DF-RHF Final Energy:  -382.86091713970421

   => Energetics <=

    Nuclear Repulsion Energy =            378.4349753506430147
    One-Electron Energy =               -1271.7082573181062344
    Two-Electron Energy =                 510.4123648277589496
    Total Energy =                       -382.8609171397042132
  Basis Set: (AUG-CC-PVTZ AUX)
    Blend: AUG-CC-PVTZ-RI
    Molecular point group: c1

    Geometry (in Angstrom), charge = 0, multiplicity = 1:

       Center              X                  Y                   Z               Mass
    ------------   -----------------  -----------------  -----------------  -----------------
         O           -1.343965665093    -1.341032913790     0.474605452783    15.994914619570
         O           -2.264134665093     0.512531086210    -0.419498547217    15.994914619570
         C            1.237148334907    -0.201040913790    -0.038284547217    12.000000000000
         C            0.094504334907     0.525485086210     0.034915452783    12.000000000000
         C            2.581729334907     0.472108086210     0.065004452783    12.000000000000
         C            1.336429334907    -1.689024913790    -0.256066547217    12.000000000000
         C            0.089428334907     2.034864086210     0.131938452783    12.000000000000
         C           -1.448084065093    -0.151766413790    -0.027029347217    12.000000000000
         H            3.032738334907     0.589722086210    -0.928555547217     1.007825032230
         H            2.533607334907     1.454244086210     0.536276452783     1.007825032230
         H            3.262553334907    -0.154319913790     0.651054452783     1.007825032230
         H            0.452075334907    -2.115993913790    -0.722979547217     1.007825032230
         H            1.492179334907    -2.206412913790     0.697644452783     1.007825032230
         H            2.207283334907    -1.899271913790    -0.886219547217     1.007825032230
         H            0.814598334907     2.484942086210    -0.549686547217     1.007825032230
         H            0.326346334907     2.371540086210     1.147433452783     1.007825032230
         H           -0.900325665093     2.411133086210    -0.128080547217     1.007825032230
         H           -2.289208665093    -1.581859913790     0.374450452783     1.007825032230

  Basis Set: AUG-CC-PVTZ
    Blend: AUG-CC-PVTZ
  Basis Set: (AUG-CC-PVTZ AUX)
    Blend: AUG-CC-PVTZ-JKFIT
	 Reference Energy          =    -382.8609171397042132 [Eh]
	 Singles Energy            =      -0.0000000000000000 [Eh]
	 Same-Spin Energy          =      -0.3863894363289809 [Eh]
	 Opposite-Spin Energy      =      -1.2570957389229183 [Eh]
	 Correlation Energy        =      -1.6434851752518993 [Eh]
	 Total Energy              =    -384.5044023149561099 [Eh]

	 ================> DF-SCS-MP2 Energies <==================
	-----------------------------------------------------------
	 SCS Same-Spin Scale       =       0.3333333333333333 [-]
	 SCS Opposite-Spin Scale   =       1.2000000000000000 [-]
	 SCS Same-Spin Energy      =      -0.1287964787763270 [Eh]
	 SCS Opposite-Spin Energy  =      -1.5085148867075018 [Eh]
	 SCS Correlation Energy    =      -1.6373113654838287 [Eh]
	 SCS Total Energy          =    -384.4982285051880240 [Eh]
	-----------------------------------------------------------

  Dipole Moment: [D]
     X:     0.5455      Y:    -1.2962      Z:     0.4679     Total:     1.4821

*** Psi4 exiting successfully. Buy a developer a beer!
