                               Psi4 1.4a3.dev225

  ==> Input File <==

--------------------------------------------------------------------------
#psi4
#
memory 32 gb

molecule  {
0 1
  O       -1.4959375    -1.3589433     0.4642766
  O       -2.3691670     0.4939580    -0.4217430
  C        1.1321160    -0.2196140    -0.0405290
  C       -0.0105280     0.5069120     0.0326710
  C        2.4766970     0.4535350     0.0627600
  C        1.2313970    -1.7075980    -0.2583110
  C       -0.0156040     2.0162910     0.1296940
  C       -1.3701120    -0.0899940    -0.0219250
  H        2.9277060     0.5711490    -0.9308000
  H        2.4285750     1.4356710     0.5340320
  H        3.1575210    -0.1728930     0.6488100
  H        0.3470430    -2.1345670    -0.7252240
  H        1.3871470    -2.2249860     0.6954000
  H        2.1022510    -1.9178450    -0.8884640
  H        0.7095660     2.4663690    -0.5519310
  H        0.2213140     2.3529670     1.1451890
  H       -1.0053580     2.3925600    -0.1303250
  H       -2.3942410    -1.6004330     0.3722060
units angstrom
no_reorient  #important for SAPT in psi4, default
symmetry c1  #important for SAPT in psi4, default
}

set PROPERTIES_ORIGIN ["COM"]
properties('MP2/aug-cc-pvtz', properties = ['dipole'])
--------------------------------------------------------------------------

    Molecular point group: c1
  Charge       = 0
  Multiplicity = 1
  Basis Set: AUG-CC-PVTZ
    Blend: AUG-CC-PVTZ
  Basis Set: (AUG-CC-PVTZ AUX)
    Blend: AUG-CC-PVTZ-JKFIT

    Orbital Energies [Eh]
    ---------------------

    Doubly Occupied:

       1A    -20.601973     2A    -20.538983     3A    -11.384356
       4A    -11.269855     5A    -11.244564     6A    -11.235173
       7A    -11.229375     8A    -11.220316     9A     -1.457527
      10A     -1.346260    11A     -1.124702    12A     -1.016379
      13A     -0.957885    14A     -0.911322    15A     -0.838766
      16A     -0.742005    17A     -0.698439    18A     -0.663499
      19A     -0.634239    20A     -0.608278    21A     -0.601258
      22A     -0.589870    23A     -0.563951    24A     -0.551088
      25A     -0.547689    26A     -0.543732    27A     -0.514728
      28A     -0.493506    29A     -0.474346    30A     -0.446503
      31A     -0.351403

  @DF-RHF Final Energy:  -382.90102278578934

   => Energetics <=

    Nuclear Repulsion Energy =            378.4904799071791786
    One-Electron Energy =               -1271.9790671571020084
    Two-Electron Energy =                 510.5875644641334929
    Total Energy =                       -382.9010227857893369
  Basis Set: (AUG-CC-PVTZ AUX)
    Blend: AUG-CC-PVTZ-RI
    Molecular point group: c1

    Geometry (in Angstrom), charge = 0, multiplicity = 1:

       Center              X                  Y                   Z               Mass
    ------------   -----------------  -----------------  -----------------  -----------------
         O           -1.403575313576    -1.348915512647     0.466881571588    15.994914619570
         O           -2.276804813576     0.503985787353    -0.419138028412    15.994914619570
         C            1.224478186424    -0.209586212647    -0.037924028412    12.000000000000
         C            0.081834186424     0.516939787353     0.035275971588    12.000000000000
         C            2.569059186424     0.463562787353     0.065364971588    12.000000000000
         C            1.323759186424    -1.697570212647    -0.255706028412    12.000000000000
         C            0.076758186424     2.026318787353     0.132298971588    12.000000000000
         C           -1.277749813576    -0.079966212647    -0.019320028412    12.000000000000
         H            3.020068186424     0.581176787353    -0.928195028412     1.007825032230
         H            2.520937186424     1.445698787353     0.536636971588     1.007825032230
         H            3.249883186424    -0.162865212647     0.651414971588     1.007825032230
         H            0.439405186424    -2.124539212647    -0.722619028412     1.007825032230
         H            1.479509186424    -2.214958212647     0.698004971588     1.007825032230
         H            2.194613186424    -1.907817212647    -0.885859028412     1.007825032230
         H            0.801928186424     2.476396787353    -0.549326028412     1.007825032230
         H            0.313676186424     2.362994787353     1.147793971588     1.007825032230
         H           -0.912995813576     2.402587787353    -0.127720028412     1.007825032230
         H           -2.301878813576    -1.590405212647     0.374810971588     1.007825032230

  Basis Set: AUG-CC-PVTZ
    Blend: AUG-CC-PVTZ
  Basis Set: (AUG-CC-PVTZ AUX)
    Blend: AUG-CC-PVTZ-JKFIT
	 Reference Energy          =    -382.9010227857893369 [Eh]
	 Singles Energy            =      -0.0000000000000000 [Eh]
	 Same-Spin Energy          =      -0.3870679535971024 [Eh]
	 Opposite-Spin Energy      =      -1.2584671142249033 [Eh]
	 Correlation Energy        =      -1.6455350678220058 [Eh]
	 Total Energy              =    -384.5465578536113185 [Eh]

	 ================> DF-SCS-MP2 Energies <==================
	-----------------------------------------------------------
	 SCS Same-Spin Scale       =       0.3333333333333333 [-]
	 SCS Opposite-Spin Scale   =       1.2000000000000000 [-]
	 SCS Same-Spin Energy      =      -0.1290226511990341 [Eh]
	 SCS Opposite-Spin Energy  =      -1.5101605370698838 [Eh]
	 SCS Correlation Energy    =      -1.6391831882689181 [Eh]
	 SCS Total Energy          =    -384.5402059740582672 [Eh]
	-----------------------------------------------------------

  Dipole Moment: [D]
     X:     2.2219      Y:    -0.8817      Z:     0.4620     Total:     2.4347

*** Psi4 exiting successfully. Buy a developer a beer!
