                               Psi4 1.4a3.dev225

  ==> Input File <==

--------------------------------------------------------------------------
#psi4
#
memory 32 gb

molecule  {
0 1
  O       -1.4489980    -1.3596060     0.4723610
  O       -2.3691670     0.4939580    -0.4217430
  C        1.1321160    -0.2196140    -0.0405290
  C       -0.0105280     0.5069120     0.0326710
  C        2.4766970     0.4535350     0.0627600
  C        1.2313970    -1.7075980    -0.2583110
  C       -0.0156040     2.0162910     0.1296940
  C       -1.2786098    -0.0498213    -0.0182506
  H        2.9277060     0.5711490    -0.9308000
  H        2.4285750     1.4356710     0.5340320
  H        3.1575210    -0.1728930     0.6488100
  H        0.3470430    -2.1345670    -0.7252240
  H        1.3871470    -2.2249860     0.6954000
  H        2.1022510    -1.9178450    -0.8884640
  H        0.7095660     2.4663690    -0.5519310
  H        0.2213140     2.3529670     1.1451890
  H       -1.0053580     2.3925600    -0.1303250
  H       -2.3942410    -1.6004330     0.3722060
units angstrom
no_reorient  #important for SAPT in psi4, default
symmetry c1  #important for SAPT in psi4, default
}

set PROPERTIES_ORIGIN ["COM"]
properties('MP2/aug-cc-pvtz', properties = ['dipole'])
--------------------------------------------------------------------------

    Molecular point group: c1
  Charge       = 0
  Multiplicity = 1
  Basis Set: AUG-CC-PVTZ
    Blend: AUG-CC-PVTZ
  Basis Set: (AUG-CC-PVTZ AUX)
    Blend: AUG-CC-PVTZ-JKFIT

    Orbital Energies [Eh]
    ---------------------

    Doubly Occupied:

       1A    -20.594699     2A    -20.530686     3A    -11.385232
       4A    -11.285543     5A    -11.242558     6A    -11.241396
       7A    -11.234753     8A    -11.223625     9A     -1.419576
      10A     -1.304661    11A     -1.140003    12A     -1.031368
      13A     -0.966506    14A     -0.920360    15A     -0.838348
      16A     -0.735209    17A     -0.682866    18A     -0.664340
      19A     -0.629479    20A     -0.607450    21A     -0.591573
      22A     -0.580291    23A     -0.566311    24A     -0.556384
      25A     -0.552544    26A     -0.545144    27A     -0.519936
      28A     -0.498369    29A     -0.456929    30A     -0.438465
      31A     -0.358448

  @DF-RHF Final Energy:  -382.87784764120295

   => Energetics <=

    Nuclear Repulsion Energy =            378.9270512905264354
    One-Electron Energy =               -1272.9236938738129084
    Two-Electron Energy =                 511.1187949420835821
    Total Energy =                       -382.8778476412029477
  Basis Set: (AUG-CC-PVTZ AUX)
    Blend: AUG-CC-PVTZ-RI
    Molecular point group: c1

    Geometry (in Angstrom), charge = 0, multiplicity = 1:

       Center              X                  Y                   Z               Mass
    ------------   -----------------  -----------------  -----------------  -----------------
         O           -1.372843850934    -1.353711468610     0.473445808468    15.994914619570
         O           -2.293012850934     0.499852531390    -0.420658191532    15.994914619570
         C            1.208270149066    -0.213719468610    -0.039444191532    12.000000000000
         C            0.065626149066     0.512806531390     0.033755808468    12.000000000000
         C            2.552851149066     0.459429531390     0.063844808468    12.000000000000
         C            1.307551149066    -1.701703468610    -0.257226191532    12.000000000000
         C            0.060550149066     2.022185531390     0.130778808468    12.000000000000
         C           -1.202455650934    -0.043926768610    -0.017165791532    12.000000000000
         H            3.003860149066     0.577043531390    -0.929715191532     1.007825032230
         H            2.504729149066     1.441565531390     0.535116808468     1.007825032230
         H            3.233675149066    -0.166998468610     0.649894808468     1.007825032230
         H            0.423197149066    -2.128672468610    -0.724139191532     1.007825032230
         H            1.463301149066    -2.219091468610     0.696484808468     1.007825032230
         H            2.178405149066    -1.911950468610    -0.887379191532     1.007825032230
         H            0.785720149066     2.472263531390    -0.550846191532     1.007825032230
         H            0.297468149066     2.358861531390     1.146273808468     1.007825032230
         H           -0.929203850934     2.398454531390    -0.129240191532     1.007825032230
         H           -2.318086850934    -1.594538468610     0.373290808468     1.007825032230

  Basis Set: AUG-CC-PVTZ
    Blend: AUG-CC-PVTZ
  Basis Set: (AUG-CC-PVTZ AUX)
    Blend: AUG-CC-PVTZ-JKFIT
	 Reference Energy          =    -382.8778476412029477 [Eh]
	 Singles Energy            =      -0.0000000000000000 [Eh]
	 Same-Spin Energy          =      -0.3906701086004815 [Eh]
	 Opposite-Spin Energy      =      -1.2652271617652571 [Eh]
	 Correlation Energy        =      -1.6558972703657386 [Eh]
	 Total Energy              =    -384.5337449115687036 [Eh]

	 ================> DF-SCS-MP2 Energies <==================
	-----------------------------------------------------------
	 SCS Same-Spin Scale       =       0.3333333333333333 [-]
	 SCS Opposite-Spin Scale   =       1.2000000000000000 [-]
	 SCS Same-Spin Energy      =      -0.1302233695334938 [Eh]
	 SCS Opposite-Spin Energy  =      -1.5182725941183084 [Eh]
	 SCS Correlation Energy    =      -1.6484959636518022 [Eh]
	 SCS Total Energy          =    -384.5263436048547305 [Eh]
	-----------------------------------------------------------

  Dipole Moment: [D]
     X:     2.8871      Y:    -0.7010      Z:     0.4461     Total:     3.0043

*** Psi4 exiting successfully. Buy a developer a beer!
