                               Psi4 1.4a3.dev225

  ==> Input File <==

--------------------------------------------------------------------------
#psi4
#
memory 32 gb

molecule  {
0 1
  O       -1.4489980    -1.3596060     0.4723610
  O       -2.3691670     0.4939580    -0.4217430
  C        1.1321160    -0.2196140    -0.0405290
  C       -0.0105280     0.5069120     0.0326710
  C        2.4766970     0.4535350     0.0627600
  C        1.2313970    -1.7075980    -0.2583110
  C       -0.0156040     2.0162910     0.1296940
  C       -1.3701120    -0.0899940    -0.0219250
  H        2.9277060     0.5711490    -0.9308000
  H        2.4285750     1.4356710     0.5340320
  H        3.1575210    -0.1728930     0.6488100
  H        0.3470430    -2.1345670    -0.7252240
  H        1.4538134    -2.2503218     0.6676992
  H        2.1022510    -1.9178450    -0.8884640
  H        0.7095660     2.4663690    -0.5519310
  H        0.2213140     2.3529670     1.1451890
  H       -1.0053580     2.3925600    -0.1303250
  H       -2.3942410    -1.6004330     0.3722060
units angstrom
no_reorient  #important for SAPT in psi4, default
symmetry c1  #important for SAPT in psi4, default
}

set PROPERTIES_ORIGIN ["COM"]
properties('MP2/aug-cc-pvtz', properties = ['dipole'])
--------------------------------------------------------------------------

    Molecular point group: c1
  Charge       = 0
  Multiplicity = 1
  Basis Set: AUG-CC-PVTZ
    Blend: AUG-CC-PVTZ
  Basis Set: (AUG-CC-PVTZ AUX)
    Blend: AUG-CC-PVTZ-JKFIT

    Orbital Energies [Eh]
    ---------------------

    Doubly Occupied:

       1A    -20.608335     2A    -20.541479     3A    -11.384519
       4A    -11.268930     5A    -11.243122     6A    -11.234381
       7A    -11.228351     8A    -11.219593     9A     -1.452634
      10A     -1.346177    11A     -1.123351    12A     -1.015468
      13A     -0.956386    14A     -0.909138    15A     -0.833108
      16A     -0.734138    17A     -0.699200    18A     -0.662935
      19A     -0.635701    20A     -0.608749    21A     -0.599296
      22A     -0.589912    23A     -0.562784    24A     -0.549026
      25A     -0.546830    26A     -0.542115    27A     -0.514922
      28A     -0.492693    29A     -0.475552    30A     -0.447240
      31A     -0.350610

  @DF-RHF Final Energy:  -382.89903925899841

   => Energetics <=

    Nuclear Repulsion Energy =            378.5916798279598083
    One-Electron Energy =               -1272.2280879859310971
    Two-Electron Energy =                 510.7373688989729317
    Total Energy =                       -382.8990392589984140
  Basis Set: (AUG-CC-PVTZ AUX)
    Blend: AUG-CC-PVTZ-RI
    Molecular point group: c1

    Geometry (in Angstrom), charge = 0, multiplicity = 1:

       Center              X                  Y                   Z               Mass
    ------------   -----------------  -----------------  -----------------  -----------------
         O           -1.363806806239    -1.349261437932     0.474077101288    15.994914619570
         O           -2.283975806239     0.504302562068    -0.420026898712    15.994914619570
         C            1.217307193761    -0.209269437932    -0.038812898712    12.000000000000
         C            0.074663193761     0.517256562068     0.034387101288    12.000000000000
         C            2.561888193761     0.463879562068     0.064476101288    12.000000000000
         C            1.316588193761    -1.697253437932    -0.256594898712    12.000000000000
         C            0.069587193761     2.026635562068     0.131410101288    12.000000000000
         C           -1.284920806239    -0.079649437932    -0.020208898712    12.000000000000
         H            3.012897193761     0.581493562068    -0.929083898712     1.007825032230
         H            2.513766193761     1.446015562068     0.535748101288     1.007825032230
         H            3.242712193761    -0.162548437932     0.650526101288     1.007825032230
         H            0.432234193761    -2.124222437932    -0.723507898712     1.007825032230
         H            1.539004593761    -2.239977237932     0.669415301288     1.007825032230
         H            2.187442193761    -1.907500437932    -0.886747898712     1.007825032230
         H            0.794757193761     2.476713562068    -0.550214898712     1.007825032230
         H            0.306505193761     2.363311562068     1.146905101288     1.007825032230
         H           -0.920166806239     2.402904562068    -0.128608898712     1.007825032230
         H           -2.309049806239    -1.590088437932     0.373922101288     1.007825032230

  Basis Set: AUG-CC-PVTZ
    Blend: AUG-CC-PVTZ
  Basis Set: (AUG-CC-PVTZ AUX)
    Blend: AUG-CC-PVTZ-JKFIT
	 Reference Energy          =    -382.8990392589984140 [Eh]
	 Singles Energy            =      -0.0000000000000000 [Eh]
	 Same-Spin Energy          =      -0.3880698602806928 [Eh]
	 Opposite-Spin Energy      =      -1.2605027664596236 [Eh]
	 Correlation Energy        =      -1.6485726267403165 [Eh]
	 Total Energy              =    -384.5476118857387178 [Eh]

	 ================> DF-SCS-MP2 Energies <==================
	-----------------------------------------------------------
	 SCS Same-Spin Scale       =       0.3333333333333333 [-]
	 SCS Opposite-Spin Scale   =       1.2000000000000000 [-]
	 SCS Same-Spin Energy      =      -0.1293566200935643 [Eh]
	 SCS Opposite-Spin Energy  =      -1.5126033197515483 [Eh]
	 SCS Correlation Energy    =      -1.6419599398451126 [Eh]
	 SCS Total Energy          =    -384.5409991988435081 [Eh]
	-----------------------------------------------------------

  Dipole Moment: [D]
     X:     2.1324      Y:    -0.9173      Z:     0.4641     Total:     2.3673

*** Psi4 exiting successfully. Buy a developer a beer!
