                               Psi4 1.4a3.dev225

  ==> Input File <==

--------------------------------------------------------------------------
#psi4
#
memory 32 gb

molecule  {
0 1
  O       -1.4489980    -1.3596060     0.4723610
  O       -2.3691670     0.4939580    -0.4217430
  C        1.1321160    -0.2196140    -0.0405290
  C       -0.0105280     0.5069120     0.0326710
  C        2.4766970     0.4535350     0.0627600
  C        1.2313970    -1.7075980    -0.2583110
  C       -0.0156040     2.0162910     0.1296940
  C       -1.3701120    -0.0899940    -0.0219250
  H        2.9277060     0.5711490    -0.9308000
  H        2.4285750     1.4356710     0.5340320
  H        3.1575210    -0.1728930     0.6488100
  H        0.3262642    -2.1214994    -0.6962750
  H        1.3871470    -2.2249860     0.6954000
  H        2.1022510    -1.9178450    -0.8884640
  H        0.7095660     2.4663690    -0.5519310
  H        0.2213140     2.3529670     1.1451890
  H       -1.0053580     2.3925600    -0.1303250
  H       -2.3942410    -1.6004330     0.3722060
units angstrom
no_reorient  #important for SAPT in psi4, default
symmetry c1  #important for SAPT in psi4, default
}

set PROPERTIES_ORIGIN ["COM"]
properties('MP2/aug-cc-pvtz', properties = ['dipole'])
--------------------------------------------------------------------------

    Molecular point group: c1
  Charge       = 0
  Multiplicity = 1
  Basis Set: AUG-CC-PVTZ
    Blend: AUG-CC-PVTZ
  Basis Set: (AUG-CC-PVTZ AUX)
    Blend: AUG-CC-PVTZ-JKFIT

    Orbital Energies [Eh]
    ---------------------

    Doubly Occupied:

       1A    -20.608808     2A    -20.541440     3A    -11.384522
       4A    -11.268380     5A    -11.242500     6A    -11.234271
       7A    -11.228080     8A    -11.219356     9A     -1.452997
      10A     -1.346360    11A     -1.123375    12A     -1.015282
      13A     -0.956664    14A     -0.908629    15A     -0.832726
      16A     -0.734082    17A     -0.699811    18A     -0.662332
      19A     -0.635199    20A     -0.610315    21A     -0.600045
      22A     -0.588410    23A     -0.562809    24A     -0.550332
      25A     -0.546390    26A     -0.543273    27A     -0.514628
      28A     -0.492009    29A     -0.475789    30A     -0.447198
      31A     -0.350148

  @DF-RHF Final Energy:  -382.89931117882014

   => Energetics <=

    Nuclear Repulsion Energy =            378.7562747594936923
    One-Electron Energy =               -1272.5588434484188838
    Two-Electron Energy =                 510.9032575101051066
    Total Energy =                       -382.8993111788201418
  Basis Set: (AUG-CC-PVTZ AUX)
    Blend: AUG-CC-PVTZ-RI
    Molecular point group: c1

    Geometry (in Angstrom), charge = 0, multiplicity = 1:

       Center              X                  Y                   Z               Mass
    ------------   -----------------  -----------------  -----------------  -----------------
         O           -1.363034202177    -1.349600743266     0.473576583643    15.994914619570
         O           -2.283203202177     0.503963256734    -0.420527416357    15.994914619570
         C            1.218079797823    -0.209608743266    -0.039313416357    12.000000000000
         C            0.075435797823     0.516917256734     0.033886583643    12.000000000000
         C            2.562660797823     0.463540256734     0.063975583643    12.000000000000
         C            1.317360797823    -1.697592743266    -0.257095416357    12.000000000000
         C            0.070359797823     2.026296256734     0.130909583643    12.000000000000
         C           -1.284148202177    -0.079988743266    -0.020709416357    12.000000000000
         H            3.013669797823     0.581154256734    -0.929584416357     1.007825032230
         H            2.514538797823     1.445676256734     0.535247583643     1.007825032230
         H            3.243484797823    -0.162887743266     0.650025583643     1.007825032230
         H            0.412227997823    -2.111494143266    -0.695059416357     1.007825032230
         H            1.473110797823    -2.214980743266     0.696615583643     1.007825032230
         H            2.188214797823    -1.907839743266    -0.887248416357     1.007825032230
         H            0.795529797823     2.476374256734    -0.550715416357     1.007825032230
         H            0.307277797823     2.362972256734     1.146404583643     1.007825032230
         H           -0.919394202177     2.402565256734    -0.129109416357     1.007825032230
         H           -2.308277202177    -1.590427743266     0.373421583643     1.007825032230

  Basis Set: AUG-CC-PVTZ
    Blend: AUG-CC-PVTZ
  Basis Set: (AUG-CC-PVTZ AUX)
    Blend: AUG-CC-PVTZ-JKFIT
	 Reference Energy          =    -382.8993111788201418 [Eh]
	 Singles Energy            =      -0.0000000000000000 [Eh]
	 Same-Spin Energy          =      -0.3881233268136758 [Eh]
	 Opposite-Spin Energy      =      -1.2605406996797319 [Eh]
	 Correlation Energy        =      -1.6486640264934076 [Eh]
	 Total Energy              =    -384.5479752053135485 [Eh]

	 ================> DF-SCS-MP2 Energies <==================
	-----------------------------------------------------------
	 SCS Same-Spin Scale       =       0.3333333333333333 [-]
	 SCS Opposite-Spin Scale   =       1.2000000000000000 [-]
	 SCS Same-Spin Energy      =      -0.1293744422712252 [Eh]
	 SCS Opposite-Spin Energy  =      -1.5126488396156783 [Eh]
	 SCS Correlation Energy    =      -1.6420232818869036 [Eh]
	 SCS Total Energy          =    -384.5413344607070485 [Eh]
	-----------------------------------------------------------

  Dipole Moment: [D]
     X:     2.1063      Y:    -0.9148      Z:     0.4787     Total:     2.3457

*** Psi4 exiting successfully. Buy a developer a beer!
