                               Psi4 1.4a3.dev225

  ==> Input File <==

--------------------------------------------------------------------------
#psi4
#
memory 32 gb

molecule  {
0 1
  O       -1.4489980    -1.3596060     0.4723610
  O       -2.3691670     0.4939580    -0.4217430
  C        1.1321160    -0.2196140    -0.0405290
  C       -0.0105280     0.5069120     0.0326710
  C        2.4766970     0.4535350     0.0627600
  C        1.2313970    -1.7075980    -0.2583110
  C       -0.0156040     2.0162910     0.1296940
  C       -1.2069107    -0.1853859     0.0433875
  H        2.9277060     0.5711490    -0.9308000
  H        2.4285750     1.4356710     0.5340320
  H        3.1575210    -0.1728930     0.6488100
  H        0.3470430    -2.1345670    -0.7252240
  H        1.3871470    -2.2249860     0.6954000
  H        2.1022510    -1.9178450    -0.8884640
  H        0.7095660     2.4663690    -0.5519310
  H        0.2213140     2.3529670     1.1451890
  H       -1.0053580     2.3925600    -0.1303250
  H       -2.3942410    -1.6004330     0.3722060
units angstrom
no_reorient  #important for SAPT in psi4, default
symmetry c1  #important for SAPT in psi4, default
}

set PROPERTIES_ORIGIN ["COM"]
properties('MP2/aug-cc-pvtz', properties = ['dipole'])
--------------------------------------------------------------------------

    Molecular point group: c1
  Charge       = 0
  Multiplicity = 1
  Basis Set: AUG-CC-PVTZ
    Blend: AUG-CC-PVTZ
  Basis Set: (AUG-CC-PVTZ AUX)
    Blend: AUG-CC-PVTZ-JKFIT

    Orbital Energies [Eh]
    ---------------------

    Doubly Occupied:

       1A    -20.631430     2A    -20.496434     3A    -11.387663
       4A    -11.285798     5A    -11.244562     6A    -11.243026
       7A    -11.241599     8A    -11.222929     9A     -1.483736
      10A     -1.231420    11A     -1.142679    12A     -1.029022
      13A     -0.973330    14A     -0.930697    15A     -0.856580
      16A     -0.774281    17A     -0.700260    18A     -0.671750
      19A     -0.649489    20A     -0.614941    21A     -0.601162
      22A     -0.570590    23A     -0.567435    24A     -0.558813
      25A     -0.554657    26A     -0.533937    27A     -0.509073
      28A     -0.488706    29A     -0.421836    30A     -0.408102
      31A     -0.352314

  @DF-RHF Final Energy:  -382.83629575728833

   => Energetics <=

    Nuclear Repulsion Energy =            379.3872836751411342
    One-Electron Energy =               -1273.6906586146094469
    Two-Electron Energy =                 511.4670791821799867
    Total Energy =                       -382.8362957572883261
  Basis Set: (AUG-CC-PVTZ AUX)
    Blend: AUG-CC-PVTZ-RI
    Molecular point group: c1

    Geometry (in Angstrom), charge = 0, multiplicity = 1:

       Center              X                  Y                   Z               Mass
    ------------   -----------------  -----------------  -----------------  -----------------
         O           -1.380386620158    -1.339450027493     0.466961459798    15.994914619570
         O           -2.300555620158     0.514113972507    -0.427142540202    15.994914619570
         C            1.200727379842    -0.199458027493    -0.045928540202    12.000000000000
         C            0.058083379842     0.527067972507     0.027271459798    12.000000000000
         C            2.545308379842     0.473690972507     0.057360459798    12.000000000000
         C            1.300008379842    -1.687442027493    -0.263710540202    12.000000000000
         C            0.053007379842     2.036446972507     0.124294459798    12.000000000000
         C           -1.138299320158    -0.165229927493     0.037987959798    12.000000000000
         H            2.996317379842     0.591304972507    -0.936199540202     1.007825032230
         H            2.497186379842     1.455826972507     0.528632459798     1.007825032230
         H            3.226132379842    -0.152737027493     0.643410459798     1.007825032230
         H            0.415654379842    -2.114411027493    -0.730623540202     1.007825032230
         H            1.455758379842    -2.204830027493     0.690000459798     1.007825032230
         H            2.170862379842    -1.897689027493    -0.893863540202     1.007825032230
         H            0.778177379842     2.486524972507    -0.557330540202     1.007825032230
         H            0.289925379842     2.373122972507     1.139789459798     1.007825032230
         H           -0.936746620158     2.412715972507    -0.135724540202     1.007825032230
         H           -2.325629620158    -1.580277027493     0.366806459798     1.007825032230

  Basis Set: AUG-CC-PVTZ
    Blend: AUG-CC-PVTZ
  Basis Set: (AUG-CC-PVTZ AUX)
    Blend: AUG-CC-PVTZ-JKFIT
	 Reference Energy          =    -382.8362957572883261 [Eh]
	 Singles Energy            =      -0.0000000000000000 [Eh]
	 Same-Spin Energy          =      -0.3926058112229004 [Eh]
	 Opposite-Spin Energy      =      -1.2677113334636947 [Eh]
	 Correlation Energy        =      -1.6603171446865952 [Eh]
	 Total Energy              =    -384.4966129019749133 [Eh]

	 ================> DF-SCS-MP2 Energies <==================
	-----------------------------------------------------------
	 SCS Same-Spin Scale       =       0.3333333333333333 [-]
	 SCS Opposite-Spin Scale   =       1.2000000000000000 [-]
	 SCS Same-Spin Energy      =      -0.1308686037409668 [Eh]
	 SCS Opposite-Spin Energy  =      -1.5212536001564336 [Eh]
	 SCS Correlation Energy    =      -1.6521222038974004 [Eh]
	 SCS Total Energy          =    -384.4884179611857462 [Eh]
	-----------------------------------------------------------

  Dipole Moment: [D]
     X:     3.2182      Y:    -1.6390      Z:     0.9269     Total:     3.7286

*** Psi4 exiting successfully. Buy a developer a beer!
