                               Psi4 1.4a3.dev225

  ==> Input File <==

--------------------------------------------------------------------------
#psi4
#
memory 32 gb

molecule  {
0 1
  O       -1.4489980    -1.3596060     0.4723610
  O       -2.3691670     0.4939580    -0.4217430
  C        1.1321160    -0.2196140    -0.0405290
  C       -0.0105280     0.5069120     0.0326710
  C        2.4766970     0.4535350     0.0627600
  C        1.2313970    -1.7075980    -0.2583110
  C       -0.0156040     2.0162910     0.1296940
  C       -1.3701120    -0.0899940    -0.0219250
  H        2.9194868     0.5690056    -0.9126934
  H        2.4285750     1.4356710     0.5340320
  H        3.1575210    -0.1728930     0.6488100
  H        0.3470430    -2.1345670    -0.7252240
  H        1.3871470    -2.2249860     0.6954000
  H        2.1022510    -1.9178450    -0.8884640
  H        0.7095660     2.4663690    -0.5519310
  H        0.2213140     2.3529670     1.1451890
  H       -1.0053580     2.3925600    -0.1303250
  H       -2.3942410    -1.6004330     0.3722060
units angstrom
no_reorient  #important for SAPT in psi4, default
symmetry c1  #important for SAPT in psi4, default
}

set PROPERTIES_ORIGIN ["COM"]
properties('MP2/aug-cc-pvtz', properties = ['dipole'])
--------------------------------------------------------------------------

    Molecular point group: c1
  Charge       = 0
  Multiplicity = 1
  Basis Set: AUG-CC-PVTZ
    Blend: AUG-CC-PVTZ
  Basis Set: (AUG-CC-PVTZ AUX)
    Blend: AUG-CC-PVTZ-JKFIT

    Orbital Energies [Eh]
    ---------------------

    Doubly Occupied:

       1A    -20.608409     2A    -20.541261     3A    -11.384313
       4A    -11.268411     5A    -11.242484     6A    -11.231975
       7A    -11.228332     8A    -11.219326     9A     -1.452603
      10A     -1.346070    11A     -1.123438    12A     -1.015627
      13A     -0.957725    14A     -0.908679    15A     -0.833128
      16A     -0.734080    17A     -0.699206    18A     -0.662741
      19A     -0.634837    20A     -0.610550    21A     -0.600727
      22A     -0.588532    23A     -0.563183    24A     -0.552421
      25A     -0.546903    26A     -0.542685    27A     -0.513792
      28A     -0.492528    29A     -0.475513    30A     -0.447043
      31A     -0.350384

  @DF-RHF Final Energy:  -382.89958373343381

   => Energetics <=

    Nuclear Repulsion Energy =            378.7721444892443401
    One-Electron Energy =               -1272.5896468224450473
    Two-Electron Energy =                 510.9179185997669492
    Total Energy =                       -382.8995837334338148
  Basis Set: (AUG-CC-PVTZ AUX)
    Blend: AUG-CC-PVTZ-RI
    Molecular point group: c1

    Geometry (in Angstrom), charge = 0, multiplicity = 1:

       Center              X                  Y                   Z               Mass
    ------------   -----------------  -----------------  -----------------  -----------------
         O           -1.363145169937    -1.349466349607     0.473672379436    15.994914619570
         O           -2.283314169937     0.504097650393    -0.420431620564    15.994914619570
         C            1.217968830063    -0.209474349607    -0.039217620564    12.000000000000
         C            0.075324830063     0.517051650393     0.033982379436    12.000000000000
         C            2.562549830063     0.463674650393     0.064071379436    12.000000000000
         C            1.317249830063    -1.697458349607    -0.256999620564    12.000000000000
         C            0.070248830063     2.026430650393     0.131005379436    12.000000000000
         C           -1.284259169937    -0.079854349607    -0.020613620564    12.000000000000
         H            3.005339630063     0.579145250393    -0.911382020564     1.007825032230
         H            2.514427830063     1.445810650393     0.535343379436     1.007825032230
         H            3.243373830063    -0.162753349607     0.650121379436     1.007825032230
         H            0.432895830063    -2.124427349607    -0.723912620564     1.007825032230
         H            1.472999830063    -2.214846349607     0.696711379436     1.007825032230
         H            2.188103830063    -1.907705349607    -0.887152620564     1.007825032230
         H            0.795418830063     2.476508650393    -0.550619620564     1.007825032230
         H            0.307166830063     2.363106650393     1.146500379436     1.007825032230
         H           -0.919505169937     2.402699650393    -0.129013620564     1.007825032230
         H           -2.308388169937    -1.590293349607     0.373517379436     1.007825032230

  Basis Set: AUG-CC-PVTZ
    Blend: AUG-CC-PVTZ
  Basis Set: (AUG-CC-PVTZ AUX)
    Blend: AUG-CC-PVTZ-JKFIT
	 Reference Energy          =    -382.8995837334338148 [Eh]
	 Singles Energy            =      -0.0000000000000000 [Eh]
	 Same-Spin Energy          =      -0.3880482421866016 [Eh]
	 Opposite-Spin Energy      =      -1.2603685641028384 [Eh]
	 Correlation Energy        =      -1.6484168062894400 [Eh]
	 Total Energy              =    -384.5480005397232617 [Eh]

	 ================> DF-SCS-MP2 Energies <==================
	-----------------------------------------------------------
	 SCS Same-Spin Scale       =       0.3333333333333333 [-]
	 SCS Opposite-Spin Scale   =       1.2000000000000000 [-]
	 SCS Same-Spin Energy      =      -0.1293494140622005 [Eh]
	 SCS Opposite-Spin Energy  =      -1.5124422769234060 [Eh]
	 SCS Correlation Energy    =      -1.6417916909856065 [Eh]
	 SCS Total Energy          =    -384.5413754244194138 [Eh]
	-----------------------------------------------------------

  Dipole Moment: [D]
     X:     2.1215      Y:    -0.9159      Z:     0.4604     Total:     2.3562

*** Psi4 exiting successfully. Buy a developer a beer!
