                               Psi4 1.4a3.dev225

  ==> Input File <==

--------------------------------------------------------------------------
#psi4
#
memory 32 gb

molecule  {
0 1
  O       -1.4489980    -1.3596060     0.4723610
  O       -2.3691670     0.4939580    -0.4217430
  C        1.1321160    -0.2196140    -0.0405290
  C       -0.0105280     0.5069120     0.0326710
  C        2.4766970     0.4535350     0.0627600
  C        1.2313970    -1.7075980    -0.2583110
  C       -0.0156040     2.0162910     0.1296940
  C       -1.4109123    -0.0661460    -0.0382531
  H        2.9277060     0.5711490    -0.9308000
  H        2.4285750     1.4356710     0.5340320
  H        3.1575210    -0.1728930     0.6488100
  H        0.3470430    -2.1345670    -0.7252240
  H        1.3871470    -2.2249860     0.6954000
  H        2.1022510    -1.9178450    -0.8884640
  H        0.7095660     2.4663690    -0.5519310
  H        0.2213140     2.3529670     1.1451890
  H       -1.0053580     2.3925600    -0.1303250
  H       -2.3942410    -1.6004330     0.3722060
units angstrom
no_reorient  #important for SAPT in psi4, default
symmetry c1  #important for SAPT in psi4, default
}

set PROPERTIES_ORIGIN ["COM"]
properties('MP2/aug-cc-pvtz', properties = ['dipole'])
--------------------------------------------------------------------------

    Molecular point group: c1
  Charge       = 0
  Multiplicity = 1
  Basis Set: AUG-CC-PVTZ
    Blend: AUG-CC-PVTZ
  Basis Set: (AUG-CC-PVTZ AUX)
    Blend: AUG-CC-PVTZ-JKFIT

    Orbital Energies [Eh]
    ---------------------

    Doubly Occupied:

       1A    -20.601256     2A    -20.551884     3A    -11.381742
       4A    -11.264560     5A    -11.241962     6A    -11.232317
       7A    -11.225107     8A    -11.218651     9A     -1.461410
      10A     -1.364772    11A     -1.118691    12A     -1.012169
      13A     -0.952698    14A     -0.902544    15A     -0.826526
      16A     -0.727909    17A     -0.703303    18A     -0.661815
      19A     -0.636864    20A     -0.619134    21A     -0.599012
      22A     -0.586504    23A     -0.562095    24A     -0.550778
      25A     -0.545692    26A     -0.540931    27A     -0.513399
      28A     -0.494246    29A     -0.487344    30A     -0.446781
      31A     -0.348044

  @DF-RHF Final Energy:  -382.89871336670774

   => Energetics <=

    Nuclear Repulsion Energy =            378.6439995010238135
    One-Electron Energy =               -1272.3251441208992674
    Two-Electron Energy =                 510.7824312531677151
    Total Energy =                       -382.8987133667077387
  Basis Set: (AUG-CC-PVTZ AUX)
    Blend: AUG-CC-PVTZ-RI
    Molecular point group: c1

    Geometry (in Angstrom), charge = 0, multiplicity = 1:

       Center              X                  Y                   Z               Mass
    ------------   -----------------  -----------------  -----------------  -----------------
         O           -1.358925583824    -1.351994104727     0.475550078137    15.994914619570
         O           -2.279094583824     0.501569895273    -0.418553921863    15.994914619570
         C            1.222188416176    -0.212002104727    -0.037339921863    12.000000000000
         C            0.079544416176     0.514523895273     0.035860078137    12.000000000000
         C            2.566769416176     0.461146895273     0.065949078137    12.000000000000
         C            1.321469416176    -1.699986104727    -0.255121921863    12.000000000000
         C            0.074468416176     2.023902895273     0.132883078137    12.000000000000
         C           -1.320839883824    -0.058534104727    -0.035064021863    12.000000000000
         H            3.017778416176     0.578760895273    -0.927610921863     1.007825032230
         H            2.518647416176     1.443282895273     0.537221078137     1.007825032230
         H            3.247593416176    -0.165281104727     0.651999078137     1.007825032230
         H            0.437115416176    -2.126955104727    -0.722034921863     1.007825032230
         H            1.477219416176    -2.217374104727     0.698589078137     1.007825032230
         H            2.192323416176    -1.910233104727    -0.885274921863     1.007825032230
         H            0.799638416176     2.473980895273    -0.548741921863     1.007825032230
         H            0.311386416176     2.360578895273     1.148378078137     1.007825032230
         H           -0.915285583824     2.400171895273    -0.127135921863     1.007825032230
         H           -2.304168583824    -1.592821104727     0.375395078137     1.007825032230

  Basis Set: AUG-CC-PVTZ
    Blend: AUG-CC-PVTZ
  Basis Set: (AUG-CC-PVTZ AUX)
    Blend: AUG-CC-PVTZ-JKFIT
	 Reference Energy          =    -382.8987133667077387 [Eh]
	 Singles Energy            =      -0.0000000000000000 [Eh]
	 Same-Spin Energy          =      -0.3870980335583726 [Eh]
	 Opposite-Spin Energy      =      -1.2589626927975661 [Eh]
	 Correlation Energy        =      -1.6460607263559388 [Eh]
	 Total Energy              =    -384.5447740930636655 [Eh]

	 ================> DF-SCS-MP2 Energies <==================
	-----------------------------------------------------------
	 SCS Same-Spin Scale       =       0.3333333333333333 [-]
	 SCS Opposite-Spin Scale   =       1.2000000000000000 [-]
	 SCS Same-Spin Energy      =      -0.1290326778527909 [Eh]
	 SCS Opposite-Spin Energy  =      -1.5107552313570793 [Eh]
	 SCS Correlation Energy    =      -1.6397879092098702 [Eh]
	 SCS Total Energy          =    -384.5385012759176107 [Eh]
	-----------------------------------------------------------

  Dipole Moment: [D]
     X:     1.8043      Y:    -0.6970      Z:     0.3327     Total:     1.9626

*** Psi4 exiting successfully. Buy a developer a beer!
