                               Psi4 1.4a3.dev225

  ==> Input File <==

--------------------------------------------------------------------------
#psi4
#
memory 32 gb

molecule  {
0 1
  O       -1.4489980    -1.3596060     0.4723610
  O       -2.3691670     0.4939580    -0.4217430
  C        1.1103850    -0.1777180    -0.0172868
  C       -0.0105280     0.5069120     0.0326710
  C        2.4766970     0.4535350     0.0627600
  C        1.2313970    -1.7075980    -0.2583110
  C       -0.0156040     2.0162910     0.1296940
  C       -1.3701120    -0.0899940    -0.0219250
  H        2.9277060     0.5711490    -0.9308000
  H        2.4285750     1.4356710     0.5340320
  H        3.1575210    -0.1728930     0.6488100
  H        0.3470430    -2.1345670    -0.7252240
  H        1.3871470    -2.2249860     0.6954000
  H        2.1022510    -1.9178450    -0.8884640
  H        0.7095660     2.4663690    -0.5519310
  H        0.2213140     2.3529670     1.1451890
  H       -1.0053580     2.3925600    -0.1303250
  H       -2.3942410    -1.6004330     0.3722060
units angstrom
no_reorient  #important for SAPT in psi4, default
symmetry c1  #important for SAPT in psi4, default
}

set PROPERTIES_ORIGIN ["COM"]
properties('MP2/aug-cc-pvtz', properties = ['dipole'])
--------------------------------------------------------------------------

    Molecular point group: c1
  Charge       = 0
  Multiplicity = 1
  Basis Set: AUG-CC-PVTZ
    Blend: AUG-CC-PVTZ
  Basis Set: (AUG-CC-PVTZ AUX)
    Blend: AUG-CC-PVTZ-JKFIT

    Orbital Energies [Eh]
    ---------------------

    Doubly Occupied:

       1A    -20.609591     2A    -20.543564     3A    -11.386560
       4A    -11.263304     5A    -11.238821     6A    -11.233853
       7A    -11.228704     8A    -11.219145     9A     -1.454089
      10A     -1.347801    11A     -1.126994    12A     -1.011589
      13A     -0.952910    14A     -0.909577    15A     -0.840373
      16A     -0.734947    17A     -0.700234    18A     -0.658846
      19A     -0.635394    20A     -0.610243    21A     -0.599589
      22A     -0.586999    23A     -0.562846    24A     -0.551897
      25A     -0.546423    26A     -0.542989    27A     -0.516187
      28A     -0.481717    29A     -0.477003    30A     -0.447139
      31A     -0.360776

  @DF-RHF Final Energy:  -382.89812847011416

   => Energetics <=

    Nuclear Repulsion Energy =            379.0109359511448588
    One-Electron Energy =               -1273.0579174690644777
    Two-Electron Energy =                 511.1488530478055168
    Total Energy =                       -382.8981284701141590
  Basis Set: (AUG-CC-PVTZ AUX)
    Blend: AUG-CC-PVTZ-RI
    Molecular point group: c1

    Geometry (in Angstrom), charge = 0, multiplicity = 1:

       Center              X                  Y                   Z               Mass
    ------------   -----------------  -----------------  -----------------  -----------------
         O           -1.360931680542    -1.353892760345     0.471387269384    15.994914619570
         O           -2.281100680542     0.499671239655    -0.422716730616    15.994914619570
         C            1.198451319458    -0.172004760345    -0.018260530616    12.000000000000
         C            0.077538319458     0.512625239655     0.031697269384    12.000000000000
         C            2.564763319458     0.459248239655     0.061786269384    12.000000000000
         C            1.319463319458    -1.701884760345    -0.259284730616    12.000000000000
         C            0.072462319458     2.022004239655     0.128720269384    12.000000000000
         C           -1.282045680542    -0.084280760345    -0.022898730616    12.000000000000
         H            3.015772319458     0.576862239655    -0.931773730616     1.007825032230
         H            2.516641319458     1.441384239655     0.533058269384     1.007825032230
         H            3.245587319458    -0.167179760345     0.647836269384     1.007825032230
         H            0.435109319458    -2.128853760345    -0.726197730616     1.007825032230
         H            1.475213319458    -2.219272760345     0.694426269384     1.007825032230
         H            2.190317319458    -1.912131760345    -0.889437730616     1.007825032230
         H            0.797632319458     2.472082239655    -0.552904730616     1.007825032230
         H            0.309380319458     2.358680239655     1.144215269384     1.007825032230
         H           -0.917291680542     2.398273239655    -0.131298730616     1.007825032230
         H           -2.306174680542    -1.594719760345     0.371232269384     1.007825032230

  Basis Set: AUG-CC-PVTZ
    Blend: AUG-CC-PVTZ
  Basis Set: (AUG-CC-PVTZ AUX)
    Blend: AUG-CC-PVTZ-JKFIT
	 Reference Energy          =    -382.8981284701141590 [Eh]
	 Singles Energy            =      -0.0000000000000000 [Eh]
	 Same-Spin Energy          =      -0.3873788958110382 [Eh]
	 Opposite-Spin Energy      =      -1.2596636925093225 [Eh]
	 Correlation Energy        =      -1.6470425883203608 [Eh]
	 Total Energy              =    -384.5451710584345051 [Eh]

	 ================> DF-SCS-MP2 Energies <==================
	-----------------------------------------------------------
	 SCS Same-Spin Scale       =       0.3333333333333333 [-]
	 SCS Opposite-Spin Scale   =       1.2000000000000000 [-]
	 SCS Same-Spin Energy      =      -0.1291262986036794 [Eh]
	 SCS Opposite-Spin Energy  =      -1.5115964310111869 [Eh]
	 SCS Correlation Energy    =      -1.6407227296148663 [Eh]
	 SCS Total Energy          =    -384.5388511997290379 [Eh]
	-----------------------------------------------------------

  Dipole Moment: [D]
     X:     2.0514      Y:    -0.8736      Z:     0.4575     Total:     2.2761

*** Psi4 exiting successfully. Buy a developer a beer!
