                               Psi4 1.4a3.dev225

  ==> Input File <==

--------------------------------------------------------------------------
#psi4
#
memory 32 gb

molecule  {
0 1
  O       -1.4489980    -1.3596060     0.4723610
  O       -2.3691670     0.4939580    -0.4217430
  C        1.1321160    -0.2196140    -0.0405290
  C       -0.0105280     0.5069120     0.0326710
  C        2.4766970     0.4535350     0.0627600
  C        1.2313970    -1.7075980    -0.2583110
  C       -0.0156040     2.0162910     0.1296940
  C       -1.3701120    -0.0899940    -0.0219250
  H        2.8455141     0.5497150    -0.7497335
  H        2.4285750     1.4356710     0.5340320
  H        3.1575210    -0.1728930     0.6488100
  H        0.3470430    -2.1345670    -0.7252240
  H        1.3871470    -2.2249860     0.6954000
  H        2.1022510    -1.9178450    -0.8884640
  H        0.7095660     2.4663690    -0.5519310
  H        0.2213140     2.3529670     1.1451890
  H       -1.0053580     2.3925600    -0.1303250
  H       -2.3942410    -1.6004330     0.3722060
units angstrom
no_reorient  #important for SAPT in psi4, default
symmetry c1  #important for SAPT in psi4, default
}

set PROPERTIES_ORIGIN ["COM"]
properties('MP2/aug-cc-pvtz', properties = ['dipole'])
--------------------------------------------------------------------------

    Molecular point group: c1
  Charge       = 0
  Multiplicity = 1
  Basis Set: AUG-CC-PVTZ
    Blend: AUG-CC-PVTZ
  Basis Set: (AUG-CC-PVTZ AUX)
    Blend: AUG-CC-PVTZ-JKFIT

    Orbital Energies [Eh]
    ---------------------

    Doubly Occupied:

       1A    -20.608129     2A    -20.540901     3A    -11.383890
       4A    -11.267468     5A    -11.241763     6A    -11.228459
       7A    -11.219015     8A    -11.209881     9A     -1.452292
      10A     -1.345746    11A     -1.125878    12A     -1.021255
      13A     -0.971481    14A     -0.908454    15A     -0.838006
      16A     -0.735894    17A     -0.699116    18A     -0.663554
      19A     -0.639296    20A     -0.622965    21A     -0.603622
      22A     -0.591847    23A     -0.564688    24A     -0.562277
      25A     -0.545939    26A     -0.542389    27A     -0.513537
      28A     -0.491787    29A     -0.475249    30A     -0.446658
      31A     -0.350988

  @DF-RHF Final Energy:  -382.86635480159782

   => Energetics <=

    Nuclear Repulsion Energy =            379.6918063811395427
    One-Electron Energy =               -1274.2914761410747815
    Two-Electron Energy =                 511.7333149583374734
    Total Energy =                       -382.8663548015978222
  Basis Set: (AUG-CC-PVTZ AUX)
    Blend: AUG-CC-PVTZ-RI
    Molecular point group: c1

    Geometry (in Angstrom), charge = 0, multiplicity = 1:

       Center              X                  Y                   Z               Mass
    ------------   -----------------  -----------------  -----------------  -----------------
         O           -1.362491599376    -1.349295911483     0.472232580791    15.994914619570
         O           -2.282660599376     0.504268088517    -0.421871419209    15.994914619570
         C            1.218622400624    -0.209303911483    -0.040657419209    12.000000000000
         C            0.075978400624     0.517222088517     0.032542580791    12.000000000000
         C            2.563203400624     0.463845088517     0.062631580791    12.000000000000
         C            1.317903400624    -1.697287911483    -0.258439419209    12.000000000000
         C            0.070902400624     2.026601088517     0.129565580791    12.000000000000
         C           -1.283605599376    -0.079683911483    -0.022053419209    12.000000000000
         H            2.932020500624     0.560025088517    -0.749861919209     1.007825032230
         H            2.515081400624     1.445981088517     0.533903580791     1.007825032230
         H            3.244027400624    -0.162582911483     0.648681580791     1.007825032230
         H            0.433549400624    -2.124256911483    -0.725352419209     1.007825032230
         H            1.473653400624    -2.214675911483     0.695271580791     1.007825032230
         H            2.188757400624    -1.907534911483    -0.888592419209     1.007825032230
         H            0.796072400624     2.476679088517    -0.552059419209     1.007825032230
         H            0.307820400624     2.363277088517     1.145060580791     1.007825032230
         H           -0.918851599376     2.402870088517    -0.130453419209     1.007825032230
         H           -2.307734599376    -1.590122911483     0.372077580791     1.007825032230

  Basis Set: AUG-CC-PVTZ
    Blend: AUG-CC-PVTZ
  Basis Set: (AUG-CC-PVTZ AUX)
    Blend: AUG-CC-PVTZ-JKFIT
	 Reference Energy          =    -382.8663548015978222 [Eh]
	 Singles Energy            =      -0.0000000000000000 [Eh]
	 Same-Spin Energy          =      -0.3880966874022452 [Eh]
	 Opposite-Spin Energy      =      -1.2598802337542208 [Eh]
	 Correlation Energy        =      -1.6479769211564661 [Eh]
	 Total Energy              =    -384.5143317227542639 [Eh]

	 ================> DF-SCS-MP2 Energies <==================
	-----------------------------------------------------------
	 SCS Same-Spin Scale       =       0.3333333333333333 [-]
	 SCS Opposite-Spin Scale   =       1.2000000000000000 [-]
	 SCS Same-Spin Energy      =      -0.1293655624674151 [Eh]
	 SCS Opposite-Spin Energy  =      -1.5118562805050648 [Eh]
	 SCS Correlation Energy    =      -1.6412218429724799 [Eh]
	 SCS Total Energy          =    -384.5075766445702925 [Eh]
	-----------------------------------------------------------

  Dipole Moment: [D]
     X:     2.1607      Y:    -0.9144      Z:     0.4269     Total:     2.3848

*** Psi4 exiting successfully. Buy a developer a beer!
