                               Psi4 1.4a3.dev225

  ==> Input File <==

--------------------------------------------------------------------------
#psi4
#
memory 32 gb

molecule  {
0 1
  O       -1.4489980    -1.3596060     0.4723610
  O       -2.3691670     0.4939580    -0.4217430
  C        1.1321160    -0.2196140    -0.0405290
  C       -0.0105280     0.5069120     0.0326710
  C        2.4766970     0.4535350     0.0627600
  C        1.2313970    -1.7075980    -0.2583110
  C       -0.0156040     2.0162910     0.1296940
  C       -1.3701120    -0.0899940    -0.0219250
  H        2.9277060     0.5711490    -0.9308000
  H        2.4285750     1.4356710     0.5340320
  H        3.1575210    -0.1728930     0.6488100
  H        0.3470430    -2.1345670    -0.7252240
  H        1.3871470    -2.2249860     0.6954000
  H        2.1022510    -1.9178450    -0.8884640
  H        0.7095660     2.4663690    -0.5519310
  H        0.2645563     2.4144171     1.3305373
  H       -1.0053580     2.3925600    -0.1303250
  H       -2.3942410    -1.6004330     0.3722060
units angstrom
no_reorient  #important for SAPT in psi4, default
symmetry c1  #important for SAPT in psi4, default
}

set PROPERTIES_ORIGIN ["COM"]
properties('MP2/aug-cc-pvtz', properties = ['dipole'])
--------------------------------------------------------------------------

    Molecular point group: c1
  Charge       = 0
  Multiplicity = 1
  Basis Set: AUG-CC-PVTZ
    Blend: AUG-CC-PVTZ
  Basis Set: (AUG-CC-PVTZ AUX)
    Blend: AUG-CC-PVTZ-JKFIT

    Orbital Energies [Eh]
    ---------------------

    Doubly Occupied:

       1A    -20.609468     2A    -20.542496     3A    -11.385761
       4A    -11.270539     5A    -11.244731     6A    -11.242445
       7A    -11.234654     8A    -11.229475     9A     -1.453711
      10A     -1.347241    11A     -1.124042    12A     -1.013180
      13A     -0.956787    14A     -0.900379    15A     -0.833516
      16A     -0.732602    17A     -0.700231    18A     -0.663974
      19A     -0.635978    20A     -0.609751    21A     -0.599906
      22A     -0.588866    23A     -0.553377    24A     -0.550890
      25A     -0.547503    26A     -0.522152    27A     -0.516286
      28A     -0.490628    29A     -0.476142    30A     -0.448404
      31A     -0.348904

  @DF-RHF Final Energy:  -382.88003212729859

   => Energetics <=

    Nuclear Repulsion Energy =            377.8701505969723371
    One-Electron Energy =               -1270.7523291996053558
    Two-Electron Energy =                 510.0021464753344844
    Total Energy =                       -382.8800321272985911
  Basis Set: (AUG-CC-PVTZ AUX)
    Blend: AUG-CC-PVTZ-RI
    Molecular point group: c1

    Geometry (in Angstrom), charge = 0, multiplicity = 1:

       Center              X                  Y                   Z               Mass
    ------------   -----------------  -----------------  -----------------  -----------------
         O           -1.363599847426    -1.350028216884     0.472194749828    15.994914619570
         O           -2.283768847426     0.503535783116    -0.421909250172    15.994914619570
         C            1.217514152574    -0.210036216884    -0.040695250172    12.000000000000
         C            0.074870152574     0.516489783116     0.032504749828    12.000000000000
         C            2.562095152574     0.463112783116     0.062593749828    12.000000000000
         C            1.316795152574    -1.698020216884    -0.258477250172    12.000000000000
         C            0.069794152574     2.025868783116     0.129527749828    12.000000000000
         C           -1.284713847426    -0.080416216884    -0.022091250172    12.000000000000
         H            3.013104152574     0.580726783116    -0.930966250172     1.007825032230
         H            2.513973152574     1.445248783116     0.533865749828     1.007825032230
         H            3.242919152574    -0.163315216884     0.648643749828     1.007825032230
         H            0.432441152574    -2.124989216884    -0.725390250172     1.007825032230
         H            1.472545152574    -2.215408216884     0.695233749828     1.007825032230
         H            2.187649152574    -1.908267216884    -0.888630250172     1.007825032230
         H            0.794964152574     2.475946783116    -0.552097250172     1.007825032230
         H            0.349954452574     2.423994883116     1.330371049828     1.007825032230
         H           -0.919959847426     2.402137783116    -0.130491250172     1.007825032230
         H           -2.308842847426    -1.590855216884     0.372039749828     1.007825032230

  Basis Set: AUG-CC-PVTZ
    Blend: AUG-CC-PVTZ
  Basis Set: (AUG-CC-PVTZ AUX)
    Blend: AUG-CC-PVTZ-JKFIT
	 Reference Energy          =    -382.8800321272985911 [Eh]
	 Singles Energy            =      -0.0000000000000000 [Eh]
	 Same-Spin Energy          =      -0.3880299988738497 [Eh]
	 Opposite-Spin Energy      =      -1.2618394839799223 [Eh]
	 Correlation Energy        =      -1.6498694828537719 [Eh]
	 Total Energy              =    -384.5299016101523648 [Eh]

	 ================> DF-SCS-MP2 Energies <==================
	-----------------------------------------------------------
	 SCS Same-Spin Scale       =       0.3333333333333333 [-]
	 SCS Opposite-Spin Scale   =       1.2000000000000000 [-]
	 SCS Same-Spin Energy      =      -0.1293433329579499 [Eh]
	 SCS Opposite-Spin Energy  =      -1.5142073807759067 [Eh]
	 SCS Correlation Energy    =      -1.6435507137338565 [Eh]
	 SCS Total Energy          =    -384.5235828410324643 [Eh]
	-----------------------------------------------------------

  Dipole Moment: [D]
     X:     2.0932      Y:    -1.0181      Z:     0.3600     Total:     2.3553

*** Psi4 exiting successfully. Buy a developer a beer!
