                               Psi4 1.4a3.dev225

  ==> Input File <==

--------------------------------------------------------------------------
#psi4
#
memory 32 gb

molecule  {
0 1
  O       -1.4489980    -1.3596060     0.4723610
  O       -2.3691670     0.4939580    -0.4217430
  C        1.1462386    -0.2236180    -0.1447019
  C       -0.0105280     0.5069120     0.0326710
  C        2.4766970     0.4535350     0.0627600
  C        1.2313970    -1.7075980    -0.2583110
  C       -0.0156040     2.0162910     0.1296940
  C       -1.3701120    -0.0899940    -0.0219250
  H        2.9277060     0.5711490    -0.9308000
  H        2.4285750     1.4356710     0.5340320
  H        3.1575210    -0.1728930     0.6488100
  H        0.3470430    -2.1345670    -0.7252240
  H        1.3871470    -2.2249860     0.6954000
  H        2.1022510    -1.9178450    -0.8884640
  H        0.7095660     2.4663690    -0.5519310
  H        0.2213140     2.3529670     1.1451890
  H       -1.0053580     2.3925600    -0.1303250
  H       -2.3942410    -1.6004330     0.3722060
units angstrom
no_reorient  #important for SAPT in psi4, default
symmetry c1  #important for SAPT in psi4, default
}

set PROPERTIES_ORIGIN ["COM"]
properties('MP2/aug-cc-pvtz', properties = ['dipole'])
--------------------------------------------------------------------------

    Molecular point group: c1
  Charge       = 0
  Multiplicity = 1
  Basis Set: AUG-CC-PVTZ
    Blend: AUG-CC-PVTZ
  Basis Set: (AUG-CC-PVTZ AUX)
    Blend: AUG-CC-PVTZ-JKFIT

    Orbital Energies [Eh]
    ---------------------

    Doubly Occupied:

       1A    -20.608616     2A    -20.541406     3A    -11.384369
       4A    -11.271030     5A    -11.245686     6A    -11.234498
       7A    -11.227676     8A    -11.219704     9A     -1.452685
      10A     -1.346166    11A     -1.121454    12A     -1.016843
      13A     -0.957651    14A     -0.907929    15A     -0.829270
      16A     -0.734063    17A     -0.699425    18A     -0.663896
      19A     -0.635170    20A     -0.609127    21A     -0.601628
      22A     -0.587815    23A     -0.563694    24A     -0.550989
      25A     -0.547599    26A     -0.540939    27A     -0.510822
      28A     -0.495544    29A     -0.475003    30A     -0.447429
      31A     -0.345001

  @DF-RHF Final Energy:  -382.89312345025058

   => Energetics <=

    Nuclear Repulsion Energy =            378.3817079322199675
    One-Electron Energy =               -1271.8034075085454333
    Two-Electron Energy =                 510.5285761260748245
    Total Energy =                       -382.8931234502505845
  Basis Set: (AUG-CC-PVTZ AUX)
    Blend: AUG-CC-PVTZ-RI
    Molecular point group: c1

    Geometry (in Angstrom), charge = 0, multiplicity = 1:

       Center              X                  Y                   Z               Mass
    ------------   -----------------  -----------------  -----------------  -----------------
         O           -1.364703491215    -1.349064065042     0.484791380384    15.994914619570
         O           -2.284872491215     0.504499934958    -0.409312619616    15.994914619570
         C            1.230533108785    -0.213076065042    -0.132271519616    12.000000000000
         C            0.073766508785     0.517453934958     0.045101380384    12.000000000000
         C            2.560991508785     0.464076934958     0.075190380384    12.000000000000
         C            1.315691508785    -1.697056065042    -0.245880619616    12.000000000000
         C            0.068690508785     2.026832934958     0.142124380384    12.000000000000
         C           -1.285817491215    -0.079452065042    -0.009494619616    12.000000000000
         H            3.012000508785     0.581690934958    -0.918369619616     1.007825032230
         H            2.512869508785     1.446212934958     0.546462380384     1.007825032230
         H            3.241815508785    -0.162351065042     0.661240380384     1.007825032230
         H            0.431337508785    -2.124025065042    -0.712793619616     1.007825032230
         H            1.471441508785    -2.214444065042     0.707830380384     1.007825032230
         H            2.186545508785    -1.907303065042    -0.876033619616     1.007825032230
         H            0.793860508785     2.476910934958    -0.539500619616     1.007825032230
         H            0.305608508785     2.363508934958     1.157619380384     1.007825032230
         H           -0.921063491215     2.403101934958    -0.117894619616     1.007825032230
         H           -2.309946491215    -1.589891065042     0.384636380384     1.007825032230

  Basis Set: AUG-CC-PVTZ
    Blend: AUG-CC-PVTZ
  Basis Set: (AUG-CC-PVTZ AUX)
    Blend: AUG-CC-PVTZ-JKFIT
	 Reference Energy          =    -382.8931234502505845 [Eh]
	 Singles Energy            =      -0.0000000000000000 [Eh]
	 Same-Spin Energy          =      -0.3886807278457433 [Eh]
	 Opposite-Spin Energy      =      -1.2617826470864251 [Eh]
	 Correlation Energy        =      -1.6504633749321684 [Eh]
	 Total Energy              =    -384.5435868251827287 [Eh]

	 ================> DF-SCS-MP2 Energies <==================
	-----------------------------------------------------------
	 SCS Same-Spin Scale       =       0.3333333333333333 [-]
	 SCS Opposite-Spin Scale   =       1.2000000000000000 [-]
	 SCS Same-Spin Energy      =      -0.1295602426152478 [Eh]
	 SCS Opposite-Spin Energy  =      -1.5141391765037100 [Eh]
	 SCS Correlation Energy    =      -1.6436994191189578 [Eh]
	 SCS Total Energy          =    -384.5368228693695301 [Eh]
	-----------------------------------------------------------

  Dipole Moment: [D]
     X:     2.0793      Y:    -0.9136      Z:     0.5349     Total:     2.3333

*** Psi4 exiting successfully. Buy a developer a beer!
