                               Psi4 1.4a3.dev225

  ==> Input File <==

--------------------------------------------------------------------------
#psi4
#
memory 32 gb

molecule  {
0 1
  O       -1.4489980    -1.3596060     0.4723610
  O       -2.3691670     0.4939580    -0.4217430
  C        1.1321160    -0.2196140    -0.0405290
  C       -0.0105280     0.5069120     0.0326710
  C        2.4766970     0.4535350     0.0627600
  C        1.2313970    -1.7075980    -0.2583110
  C       -0.0156040     2.0162910     0.1296940
  C       -1.4517126    -0.0422981    -0.0545813
  H        2.9277060     0.5711490    -0.9308000
  H        2.4285750     1.4356710     0.5340320
  H        3.1575210    -0.1728930     0.6488100
  H        0.3470430    -2.1345670    -0.7252240
  H        1.3871470    -2.2249860     0.6954000
  H        2.1022510    -1.9178450    -0.8884640
  H        0.7095660     2.4663690    -0.5519310
  H        0.2213140     2.3529670     1.1451890
  H       -1.0053580     2.3925600    -0.1303250
  H       -2.3942410    -1.6004330     0.3722060
units angstrom
no_reorient  #important for SAPT in psi4, default
symmetry c1  #important for SAPT in psi4, default
}

set PROPERTIES_ORIGIN ["COM"]
properties('MP2/aug-cc-pvtz', properties = ['dipole'])
--------------------------------------------------------------------------

    Molecular point group: c1
  Charge       = 0
  Multiplicity = 1
  Basis Set: AUG-CC-PVTZ
    Blend: AUG-CC-PVTZ
  Basis Set: (AUG-CC-PVTZ AUX)
    Blend: AUG-CC-PVTZ-JKFIT

    Orbital Energies [Eh]
    ---------------------

    Doubly Occupied:

       1A    -20.593293     2A    -20.562280     3A    -11.378482
       4A    -11.260711     5A    -11.241148     6A    -11.230300
       7A    -11.221920     8A    -11.218016     9A     -1.487313
      10A     -1.368695    11A     -1.114290    12A     -1.009218
      13A     -0.949040    14A     -0.896380    15A     -0.820080
      16A     -0.727381    17A     -0.708859    18A     -0.661547
      19A     -0.643479    20A     -0.626432    21A     -0.597999
      22A     -0.585329    23A     -0.561222    24A     -0.552399
      25A     -0.543819    26A     -0.539424    27A     -0.513478
      28A     -0.498985    29A     -0.491436    30A     -0.441554
      31A     -0.345441

  @DF-RHF Final Energy:  -382.88754407481770

   => Energetics <=

    Nuclear Repulsion Energy =            378.6837694656380791
    One-Electron Energy =               -1272.3627328883035261
    Two-Electron Energy =                 510.7914193478477500
    Total Energy =                       -382.8875440748176970
  Basis Set: (AUG-CC-PVTZ AUX)
    Blend: AUG-CC-PVTZ-RI
    Molecular point group: c1

    Geometry (in Angstrom), charge = 0, multiplicity = 1:

       Center              X                  Y                   Z               Mass
    ------------   -----------------  -----------------  -----------------  -----------------
         O           -1.354633378661    -1.354502911758     0.477267810220    15.994914619570
         O           -2.274802378661     0.499061088242    -0.416836189780    15.994914619570
         C            1.226480621339    -0.214510911758    -0.035622189780    12.000000000000
         C            0.083836621339     0.512015088242     0.037577810220    12.000000000000
         C            2.571061621339     0.458638088242     0.067666810220    12.000000000000
         C            1.325761621339    -1.702494911758    -0.253404189780    12.000000000000
         C            0.078760621339     2.021394088242     0.134600810220    12.000000000000
         C           -1.357347978661    -0.037195011758    -0.049674489780    12.000000000000
         H            3.022070621339     0.576252088242    -0.925893189780     1.007825032230
         H            2.522939621339     1.440774088242     0.538938810220     1.007825032230
         H            3.251885621339    -0.167789911758     0.653716810220     1.007825032230
         H            0.441407621339    -2.129463911758    -0.720317189780     1.007825032230
         H            1.481511621339    -2.219882911758     0.700306810220     1.007825032230
         H            2.196615621339    -1.912741911758    -0.883557189780     1.007825032230
         H            0.803930621339     2.471472088242    -0.547024189780     1.007825032230
         H            0.315678621339     2.358070088242     1.150095810220     1.007825032230
         H           -0.910993378661     2.397663088242    -0.125418189780     1.007825032230
         H           -2.299876378661    -1.595329911758     0.377112810220     1.007825032230

  Basis Set: AUG-CC-PVTZ
    Blend: AUG-CC-PVTZ
  Basis Set: (AUG-CC-PVTZ AUX)
    Blend: AUG-CC-PVTZ-JKFIT
	 Reference Energy          =    -382.8875440748176970 [Eh]
	 Singles Energy            =      -0.0000000000000000 [Eh]
	 Same-Spin Energy          =      -0.3862740550678600 [Eh]
	 Opposite-Spin Energy      =      -1.2576396738938540 [Eh]
	 Correlation Energy        =      -1.6439137289617141 [Eh]
	 Total Energy              =    -384.5314578037794035 [Eh]

	 ================> DF-SCS-MP2 Energies <==================
	-----------------------------------------------------------
	 SCS Same-Spin Scale       =       0.3333333333333333 [-]
	 SCS Opposite-Spin Scale   =       1.2000000000000000 [-]
	 SCS Same-Spin Energy      =      -0.1287580183559533 [Eh]
	 SCS Opposite-Spin Energy  =      -1.5091676086726247 [Eh]
	 SCS Correlation Energy    =      -1.6379256270285780 [Eh]
	 SCS Total Energy          =    -384.5254697018462480 [Eh]
	-----------------------------------------------------------

  Dipole Moment: [D]
     X:     1.4768      Y:    -0.4575      Z:     0.1893     Total:     1.5576

*** Psi4 exiting successfully. Buy a developer a beer!
