                               Psi4 1.4a3.dev225

  ==> Input File <==

--------------------------------------------------------------------------
#psi4
#
memory 32 gb

molecule  {
0 1
  O       -1.4489980    -1.3596060     0.4723610
  O       -2.3691670     0.4939580    -0.4217430
  C        1.1321160    -0.2196140    -0.0405290
  C       -0.0105280     0.5069120     0.0326710
  C        2.4766970     0.4535350     0.0627600
  C        1.2313970    -1.7075980    -0.2583110
  C       -0.0156040     2.0162910     0.1296940
  C       -1.3537919    -0.0995332    -0.0153937
  H        2.9277060     0.5711490    -0.9308000
  H        2.4285750     1.4356710     0.5340320
  H        3.1575210    -0.1728930     0.6488100
  H        0.3470430    -2.1345670    -0.7252240
  H        1.3871470    -2.2249860     0.6954000
  H        2.1022510    -1.9178450    -0.8884640
  H        0.7095660     2.4663690    -0.5519310
  H        0.2213140     2.3529670     1.1451890
  H       -1.0053580     2.3925600    -0.1303250
  H       -2.3942410    -1.6004330     0.3722060
units angstrom
no_reorient  #important for SAPT in psi4, default
symmetry c1  #important for SAPT in psi4, default
}

set PROPERTIES_ORIGIN ["COM"]
properties('MP2/aug-cc-pvtz', properties = ['dipole'])
--------------------------------------------------------------------------

    Molecular point group: c1
  Charge       = 0
  Multiplicity = 1
  Basis Set: AUG-CC-PVTZ
    Blend: AUG-CC-PVTZ
  Basis Set: (AUG-CC-PVTZ AUX)
    Blend: AUG-CC-PVTZ-JKFIT

    Orbital Energies [Eh]
    ---------------------

    Doubly Occupied:

       1A    -20.611159     2A    -20.537044     3A    -11.385261
       4A    -11.270180     5A    -11.242852     6A    -11.235217
       7A    -11.229621     8A    -11.219702     9A     -1.452986
      10A     -1.335573    11A     -1.125236    12A     -1.016629
      13A     -0.958141    14A     -0.911169    15A     -0.835124
      16A     -0.737281    17A     -0.698281    18A     -0.663341
      19A     -0.634981    20A     -0.606900    21A     -0.599324
      22A     -0.588802    23A     -0.563682    24A     -0.550943
      25A     -0.546940    26A     -0.543565    27A     -0.513975
      28A     -0.492691    29A     -0.469834    30A     -0.445719
      31A     -0.351122

  @DF-RHF Final Energy:  -382.89751275557654

   => Energetics <=

    Nuclear Repulsion Energy =            378.7173014366325106
    One-Electron Energy =               -1272.4830703923369128
    Two-Electron Energy =                 510.8682562001278598
    Total Energy =                       -382.8975127555765425
  Basis Set: (AUG-CC-PVTZ AUX)
    Blend: AUG-CC-PVTZ-RI
    Molecular point group: c1

    Geometry (in Angstrom), charge = 0, multiplicity = 1:

       Center              X                  Y                   Z               Mass
    ------------   -----------------  -----------------  -----------------  -----------------
         O           -1.364934668948    -1.348481760156     0.473145261635    15.994914619570
         O           -2.285103668948     0.505082239844    -0.420958738365    15.994914619570
         C            1.216179331052    -0.208489760156    -0.039744738365    12.000000000000
         C            0.073535331052     0.518036239844     0.033455261635    12.000000000000
         C            2.560760331052     0.464659239844     0.063544261635    12.000000000000
         C            1.315460331052    -1.696473760156    -0.257526738365    12.000000000000
         C            0.068459331052     2.027415239844     0.130478261635    12.000000000000
         C           -1.269728568948    -0.088408960156    -0.014609438365    12.000000000000
         H            3.011769331052     0.582273239844    -0.930015738365     1.007825032230
         H            2.512638331052     1.446795239844     0.534816261635     1.007825032230
         H            3.241584331052    -0.161768760156     0.649594261635     1.007825032230
         H            0.431106331052    -2.123442760156    -0.724439738365     1.007825032230
         H            1.471210331052    -2.213861760156     0.696184261635     1.007825032230
         H            2.186314331052    -1.906720760156    -0.887679738365     1.007825032230
         H            0.793629331052     2.477493239844    -0.551146738365     1.007825032230
         H            0.305377331052     2.364091239844     1.145973261635     1.007825032230
         H           -0.921294668948     2.403684239844    -0.129540738365     1.007825032230
         H           -2.310177668948    -1.589308760156     0.372990261635     1.007825032230

  Basis Set: AUG-CC-PVTZ
    Blend: AUG-CC-PVTZ
  Basis Set: (AUG-CC-PVTZ AUX)
    Blend: AUG-CC-PVTZ-JKFIT
	 Reference Energy          =    -382.8975127555765425 [Eh]
	 Singles Energy            =      -0.0000000000000000 [Eh]
	 Same-Spin Energy          =      -0.3884690282472222 [Eh]
	 Opposite-Spin Energy      =      -1.2611451108946778 [Eh]
	 Correlation Energy        =      -1.6496141391418999 [Eh]
	 Total Energy              =    -384.5471268947184171 [Eh]

	 ================> DF-SCS-MP2 Energies <==================
	-----------------------------------------------------------
	 SCS Same-Spin Scale       =       0.3333333333333333 [-]
	 SCS Opposite-Spin Scale   =       1.2000000000000000 [-]
	 SCS Same-Spin Energy      =      -0.1294896760824074 [Eh]
	 SCS Opposite-Spin Energy  =      -1.5133741330736135 [Eh]
	 SCS Correlation Energy    =      -1.6428638091560208 [Eh]
	 SCS Total Energy          =    -384.5403765647325827 [Eh]
	-----------------------------------------------------------

  Dipole Moment: [D]
     X:     2.2330      Y:    -0.9986      Z:     0.5173     Total:     2.5002

*** Psi4 exiting successfully. Buy a developer a beer!
