                               Psi4 1.4a3.dev225

  ==> Input File <==

--------------------------------------------------------------------------
#psi4
#
memory 32 gb

molecule  {
0 1
  O       -1.4489980    -1.3596060     0.4723610
  O       -2.3691670     0.4939580    -0.4217430
  C        1.1383620    -0.2220275    -0.0927102
  C       -0.0105280     0.5069120     0.0326710
  C        2.4766970     0.4535350     0.0627600
  C        1.2313970    -1.7075980    -0.2583110
  C       -0.0156040     2.0162910     0.1296940
  C       -1.3701120    -0.0899940    -0.0219250
  H        2.9277060     0.5711490    -0.9308000
  H        2.4285750     1.4356710     0.5340320
  H        3.1575210    -0.1728930     0.6488100
  H        0.3470430    -2.1345670    -0.7252240
  H        1.3871470    -2.2249860     0.6954000
  H        2.1022510    -1.9178450    -0.8884640
  H        0.7095660     2.4663690    -0.5519310
  H        0.2213140     2.3529670     1.1451890
  H       -1.0053580     2.3925600    -0.1303250
  H       -2.3942410    -1.6004330     0.3722060
units angstrom
no_reorient  #important for SAPT in psi4, default
symmetry c1  #important for SAPT in psi4, default
}

set PROPERTIES_ORIGIN ["COM"]
properties('MP2/aug-cc-pvtz', properties = ['dipole'])
--------------------------------------------------------------------------

    Molecular point group: c1
  Charge       = 0
  Multiplicity = 1
  Basis Set: AUG-CC-PVTZ
    Blend: AUG-CC-PVTZ
  Basis Set: (AUG-CC-PVTZ AUX)
    Blend: AUG-CC-PVTZ-JKFIT

    Orbital Energies [Eh]
    ---------------------

    Doubly Occupied:

       1A    -20.608475     2A    -20.541233     3A    -11.384264
       4A    -11.269601     5A    -11.243754     6A    -11.234452
       7A    -11.228007     8A    -11.219480     9A     -1.452594
      10A     -1.346049    11A     -1.122568    12A     -1.016121
      13A     -0.957230    14A     -0.908362    15A     -0.831147
      16A     -0.733923    17A     -0.699268    18A     -0.663417
      19A     -0.634950    20A     -0.609528    21A     -0.601016
      22A     -0.587853    23A     -0.563382    24A     -0.550378
      25A     -0.547437    26A     -0.542041    27A     -0.512736
      28A     -0.494532    29A     -0.475245    30A     -0.447204
      31A     -0.347841

  @DF-RHF Final Energy:  -382.89769444857620

   => Energetics <=

    Nuclear Repulsion Energy =            378.5684681838138772
    One-Electron Energy =               -1272.1841515339797297
    Two-Electron Energy =                 510.7179889015897061
    Total Energy =                       -382.8976944485762033
  Basis Set: (AUG-CC-PVTZ AUX)
    Blend: AUG-CC-PVTZ-RI
    Molecular point group: c1

    Geometry (in Angstrom), charge = 0, multiplicity = 1:

       Center              X                  Y                   Z               Mass
    ------------   -----------------  -----------------  -----------------  -----------------
         O           -1.363874870269    -1.349231386172     0.479321836210    15.994914619570
         O           -2.284043870269     0.504332613828    -0.414782163790    15.994914619570
         C            1.223485129731    -0.211652886172    -0.085749363790    12.000000000000
         C            0.074595129731     0.517286613828     0.039631836210    12.000000000000
         C            2.561820129731     0.463909613828     0.069720836210    12.000000000000
         C            1.316520129731    -1.697223386172    -0.251350163790    12.000000000000
         C            0.069519129731     2.026665613828     0.136654836210    12.000000000000
         C           -1.284988870269    -0.079619386172    -0.014964163790    12.000000000000
         H            3.012829129731     0.581523613828    -0.923839163790     1.007825032230
         H            2.513698129731     1.446045613828     0.540992836210     1.007825032230
         H            3.242644129731    -0.162518386172     0.655770836210     1.007825032230
         H            0.432166129731    -2.124192386172    -0.718263163790     1.007825032230
         H            1.472270129731    -2.214611386172     0.702360836210     1.007825032230
         H            2.187374129731    -1.907470386172    -0.881503163790     1.007825032230
         H            0.794689129731     2.476743613828    -0.544970163790     1.007825032230
         H            0.306437129731     2.363341613828     1.152149836210     1.007825032230
         H           -0.920234870269     2.402934613828    -0.123364163790     1.007825032230
         H           -2.309117870269    -1.590058386172     0.379166836210     1.007825032230

  Basis Set: AUG-CC-PVTZ
    Blend: AUG-CC-PVTZ
  Basis Set: (AUG-CC-PVTZ AUX)
    Blend: AUG-CC-PVTZ-JKFIT
	 Reference Energy          =    -382.8976944485762033 [Eh]
	 Singles Energy            =      -0.0000000000000000 [Eh]
	 Same-Spin Energy          =      -0.3882954179221997 [Eh]
	 Opposite-Spin Energy      =      -1.2609339820498884 [Eh]
	 Correlation Energy        =      -1.6492293999720880 [Eh]
	 Total Energy              =    -384.5469238485483174 [Eh]

	 ================> DF-SCS-MP2 Energies <==================
	-----------------------------------------------------------
	 SCS Same-Spin Scale       =       0.3333333333333333 [-]
	 SCS Opposite-Spin Scale   =       1.2000000000000000 [-]
	 SCS Same-Spin Energy      =      -0.1294318059740666 [Eh]
	 SCS Opposite-Spin Energy  =      -1.5131207784598659 [Eh]
	 SCS Correlation Energy    =      -1.6425525844339324 [Eh]
	 SCS Total Energy          =    -384.5402470330101323 [Eh]
	-----------------------------------------------------------

  Dipole Moment: [D]
     X:     2.1059      Y:    -0.9211      Z:     0.4994     Total:     2.3522

*** Psi4 exiting successfully. Buy a developer a beer!
