                               Psi4 1.4a3.dev225

  ==> Input File <==

--------------------------------------------------------------------------
#psi4
#
memory 32 gb

molecule  {
0 1
  O       -1.4489980    -1.3596060     0.4723610
  O       -2.3691670     0.4939580    -0.4217430
  C        1.1321160    -0.2196140    -0.0405290
  C       -0.0105280     0.5069120     0.0326710
  C        2.4766970     0.4535350     0.0627600
  C        1.2313970    -1.7075980    -0.2583110
  C       -0.0156040     2.0162910     0.1296940
  C       -1.3712681    -0.1086002    -0.0146812
  H        2.9277060     0.5711490    -0.9308000
  H        2.4285750     1.4356710     0.5340320
  H        3.1575210    -0.1728930     0.6488100
  H        0.3470430    -2.1345670    -0.7252240
  H        1.3871470    -2.2249860     0.6954000
  H        2.1022510    -1.9178450    -0.8884640
  H        0.7095660     2.4663690    -0.5519310
  H        0.2213140     2.3529670     1.1451890
  H       -1.0053580     2.3925600    -0.1303250
  H       -2.3942410    -1.6004330     0.3722060
units angstrom
no_reorient  #important for SAPT in psi4, default
symmetry c1  #important for SAPT in psi4, default
}

set PROPERTIES_ORIGIN ["COM"]
properties('MP2/aug-cc-pvtz', properties = ['dipole'])
--------------------------------------------------------------------------

    Molecular point group: c1
  Charge       = 0
  Multiplicity = 1
  Basis Set: AUG-CC-PVTZ
    Blend: AUG-CC-PVTZ
  Basis Set: (AUG-CC-PVTZ AUX)
    Blend: AUG-CC-PVTZ-JKFIT

    Orbital Energies [Eh]
    ---------------------

    Doubly Occupied:

       1A    -20.614216     2A    -20.538591     3A    -11.385071
       4A    -11.267140     5A    -11.242797     6A    -11.233738
       7A    -11.228525     8A    -11.218892     9A     -1.459768
      10A     -1.343056    11A     -1.122335    12A     -1.013864
      13A     -0.956360    14A     -0.909134    15A     -0.834981
      16A     -0.736688    17A     -0.702126    18A     -0.662672
      19A     -0.637352    20A     -0.608461    21A     -0.600364
      22A     -0.588976    23A     -0.562937    24A     -0.549899
      25A     -0.546127    26A     -0.542456    27A     -0.512709
      28A     -0.491998    29A     -0.473157    30A     -0.445853
      31A     -0.349412

  @DF-RHF Final Energy:  -382.89899047225077

   => Energetics <=

    Nuclear Repulsion Energy =            378.6804421144552180
    One-Electron Energy =               -1272.3995548144623626
    Two-Electron Energy =                 510.8201222277563716
    Total Energy =                       -382.8989904722507731
  Basis Set: (AUG-CC-PVTZ AUX)
    Blend: AUG-CC-PVTZ-RI
    Molecular point group: c1

    Geometry (in Angstrom), charge = 0, multiplicity = 1:

       Center              X                  Y                   Z               Mass
    ------------   -----------------  -----------------  -----------------  -----------------
         O           -1.363096166881    -1.347527908733     0.473070306398    15.994914619570
         O           -2.283265166881     0.506036091267    -0.421033693602    15.994914619570
         C            1.218017833119    -0.207535908733    -0.039819693602    12.000000000000
         C            0.075373833119     0.518990091267     0.033380306398    12.000000000000
         C            2.562598833119     0.465613091267     0.063469306398    12.000000000000
         C            1.317298833119    -1.695519908733    -0.257601693602    12.000000000000
         C            0.070297833119     2.028369091267     0.130403306398    12.000000000000
         C           -1.285366266881    -0.096522108733    -0.013971893602    12.000000000000
         H            3.013607833119     0.583227091267    -0.930090693602     1.007825032230
         H            2.514476833119     1.447749091267     0.534741306398     1.007825032230
         H            3.243422833119    -0.160814908733     0.649519306398     1.007825032230
         H            0.432944833119    -2.122488908733    -0.724514693602     1.007825032230
         H            1.473048833119    -2.212907908733     0.696109306398     1.007825032230
         H            2.188152833119    -1.905766908733    -0.887754693602     1.007825032230
         H            0.795467833119     2.478447091267    -0.551221693602     1.007825032230
         H            0.307215833119     2.365045091267     1.145898306398     1.007825032230
         H           -0.919456166881     2.404638091267    -0.129615693602     1.007825032230
         H           -2.308339166881    -1.588354908733     0.372915306398     1.007825032230

  Basis Set: AUG-CC-PVTZ
    Blend: AUG-CC-PVTZ
  Basis Set: (AUG-CC-PVTZ AUX)
    Blend: AUG-CC-PVTZ-JKFIT
	 Reference Energy          =    -382.8989904722507731 [Eh]
	 Singles Energy            =      -0.0000000000000000 [Eh]
	 Same-Spin Energy          =      -0.3880808653055343 [Eh]
	 Opposite-Spin Energy      =      -1.2604215625235757 [Eh]
	 Correlation Energy        =      -1.6485024278291101 [Eh]
	 Total Energy              =    -384.5474929000798738 [Eh]

	 ================> DF-SCS-MP2 Energies <==================
	-----------------------------------------------------------
	 SCS Same-Spin Scale       =       0.3333333333333333 [-]
	 SCS Opposite-Spin Scale   =       1.2000000000000000 [-]
	 SCS Same-Spin Energy      =      -0.1293602884351781 [Eh]
	 SCS Opposite-Spin Energy  =      -1.5125058750282909 [Eh]
	 SCS Correlation Energy    =      -1.6418661634634690 [Eh]
	 SCS Total Energy          =    -384.5408566357142490 [Eh]
	-----------------------------------------------------------

  Dipole Moment: [D]
     X:     2.0884      Y:    -1.0501      Z:     0.5273     Total:     2.3963

*** Psi4 exiting successfully. Buy a developer a beer!
