                               Psi4 1.4a3.dev225

  ==> Input File <==

--------------------------------------------------------------------------
#psi4
#
memory 32 gb

molecule  {
0 1
  O       -1.4489980    -1.3596060     0.4723610
  O       -2.3691670     0.4939580    -0.4217430
  C        1.0719414    -0.0916706     0.0294617
  C       -0.0105280     0.5069120     0.0326710
  C        2.4766970     0.4535350     0.0627600
  C        1.2313970    -1.7075980    -0.2583110
  C       -0.0156040     2.0162910     0.1296940
  C       -1.3701120    -0.0899940    -0.0219250
  H        2.9277060     0.5711490    -0.9308000
  H        2.4285750     1.4356710     0.5340320
  H        3.1575210    -0.1728930     0.6488100
  H        0.3470430    -2.1345670    -0.7252240
  H        1.3871470    -2.2249860     0.6954000
  H        2.1022510    -1.9178450    -0.8884640
  H        0.7095660     2.4663690    -0.5519310
  H        0.2213140     2.3529670     1.1451890
  H       -1.0053580     2.3925600    -0.1303250
  H       -2.3942410    -1.6004330     0.3722060
units angstrom
no_reorient  #important for SAPT in psi4, default
symmetry c1  #important for SAPT in psi4, default
}

set PROPERTIES_ORIGIN ["COM"]
properties('MP2/aug-cc-pvtz', properties = ['dipole'])
--------------------------------------------------------------------------

    Molecular point group: c1
  Charge       = 0
  Multiplicity = 1
  Basis Set: AUG-CC-PVTZ
    Blend: AUG-CC-PVTZ
  Basis Set: (AUG-CC-PVTZ AUX)
    Blend: AUG-CC-PVTZ-JKFIT

    Orbital Energies [Eh]
    ---------------------

    Doubly Occupied:

       1A    -20.611672     2A    -20.547788     3A    -11.390779
       4A    -11.253922     5A    -11.234054     6A    -11.230835
       7A    -11.228576     8A    -11.218664     9A     -1.456712
      10A     -1.350903    11A     -1.138728    12A     -1.005024
      13A     -0.947570    14A     -0.909304    15A     -0.854700
      16A     -0.737149    17A     -0.702331    18A     -0.650665
      19A     -0.637000    20A     -0.612680    21A     -0.598828
      22A     -0.588457    23A     -0.562312    24A     -0.558525
      25A     -0.543071    26A     -0.542350    27A     -0.518595
      28A     -0.479661    29A     -0.467502    30A     -0.433891
      31A     -0.381331

  @DF-RHF Final Energy:  -382.87369647221681

   => Energetics <=

    Nuclear Repulsion Energy =            379.6987891959818739
    One-Electron Energy =               -1274.3578175815757731
    Two-Electron Energy =                 511.7853319133771492
    Total Energy =                       -382.8736964722168068
  Basis Set: (AUG-CC-PVTZ AUX)
    Blend: AUG-CC-PVTZ-RI
    Molecular point group: c1

    Geometry (in Angstrom), charge = 0, multiplicity = 1:

       Center              X                  Y                   Z               Mass
    ------------   -----------------  -----------------  -----------------  -----------------
         O           -1.356887401005    -1.362944975513     0.466469311598    15.994914619570
         O           -2.277056401005     0.490619024487    -0.427634688402    15.994914619570
         C            1.164051998995    -0.095009575513     0.023570011598    12.000000000000
         C            0.081582598995     0.503573024487     0.026779311598    12.000000000000
         C            2.568807598995     0.450196024487     0.056868311598    12.000000000000
         C            1.323507598995    -1.710936975513    -0.264202688402    12.000000000000
         C            0.076506598995     2.012952024487     0.123802311598    12.000000000000
         C           -1.278001401005    -0.093332975513    -0.027816688402    12.000000000000
         H            3.019816598995     0.567810024487    -0.936691688402     1.007825032230
         H            2.520685598995     1.432332024487     0.528140311598     1.007825032230
         H            3.249631598995    -0.176231975513     0.642918311598     1.007825032230
         H            0.439153598995    -2.137905975513    -0.731115688402     1.007825032230
         H            1.479257598995    -2.228324975513     0.689508311598     1.007825032230
         H            2.194361598995    -1.921183975513    -0.894355688402     1.007825032230
         H            0.801676598995     2.463030024487    -0.557822688402     1.007825032230
         H            0.313424598995     2.349628024487     1.139297311598     1.007825032230
         H           -0.913247401005     2.389221024487    -0.136216688402     1.007825032230
         H           -2.302130401005    -1.603771975513     0.366314311598     1.007825032230

  Basis Set: AUG-CC-PVTZ
    Blend: AUG-CC-PVTZ
  Basis Set: (AUG-CC-PVTZ AUX)
    Blend: AUG-CC-PVTZ-JKFIT
	 Reference Energy          =    -382.8736964722168068 [Eh]
	 Singles Energy            =      -0.0000000000000000 [Eh]
	 Same-Spin Energy          =      -0.3868740962952958 [Eh]
	 Opposite-Spin Energy      =      -1.2593694285832604 [Eh]
	 Correlation Energy        =      -1.6462435248785563 [Eh]
	 Total Energy              =    -384.5199399970953777 [Eh]

	 ================> DF-SCS-MP2 Energies <==================
	-----------------------------------------------------------
	 SCS Same-Spin Scale       =       0.3333333333333333 [-]
	 SCS Opposite-Spin Scale   =       1.2000000000000000 [-]
	 SCS Same-Spin Energy      =      -0.1289580320984319 [Eh]
	 SCS Opposite-Spin Energy  =      -1.5112433142999124 [Eh]
	 SCS Correlation Energy    =      -1.6402013463983445 [Eh]
	 SCS Total Energy          =    -384.5138978186151348 [Eh]
	-----------------------------------------------------------

  Dipole Moment: [D]
     X:     1.9217      Y:    -0.7712      Z:     0.4431     Total:     2.1175

*** Psi4 exiting successfully. Buy a developer a beer!
