                               Psi4 1.4a3.dev225

  ==> Input File <==

--------------------------------------------------------------------------
#psi4
#
memory 32 gb

molecule  {
0 1
  O       -1.4489980    -1.3596060     0.4723610
  O       -2.3691670     0.4939580    -0.4217430
  C        1.1804640    -0.3008956    -0.0866077
  C       -0.0105280     0.5069120     0.0326710
  C        2.4766970     0.4535350     0.0627600
  C        1.2313970    -1.7075980    -0.2583110
  C       -0.0156040     2.0162910     0.1296940
  C       -1.3701120    -0.0899940    -0.0219250
  H        2.9277060     0.5711490    -0.9308000
  H        2.4285750     1.4356710     0.5340320
  H        3.1575210    -0.1728930     0.6488100
  H        0.3470430    -2.1345670    -0.7252240
  H        1.3871470    -2.2249860     0.6954000
  H        2.1022510    -1.9178450    -0.8884640
  H        0.7095660     2.4663690    -0.5519310
  H        0.2213140     2.3529670     1.1451890
  H       -1.0053580     2.3925600    -0.1303250
  H       -2.3942410    -1.6004330     0.3722060
units angstrom
no_reorient  #important for SAPT in psi4, default
symmetry c1  #important for SAPT in psi4, default
}

set PROPERTIES_ORIGIN ["COM"]
properties('MP2/aug-cc-pvtz', properties = ['dipole'])
--------------------------------------------------------------------------

    Molecular point group: c1
  Charge       = 0
  Multiplicity = 1
  Basis Set: AUG-CC-PVTZ
    Blend: AUG-CC-PVTZ
  Basis Set: (AUG-CC-PVTZ AUX)
    Blend: AUG-CC-PVTZ-JKFIT

    Orbital Energies [Eh]
    ---------------------

    Doubly Occupied:

       1A    -20.606003     2A    -20.536572     3A    -11.379862
       4A    -11.279435     5A    -11.248884     6A    -11.236623
       7A    -11.227325     8A    -11.219506     9A     -1.449540
      10A     -1.342507    11A     -1.122385    12A     -1.022266
      13A     -0.965066    14A     -0.905519    15A     -0.817062
      16A     -0.732481    17A     -0.697615    18A     -0.669235
      19A     -0.633922    20A     -0.612661    21A     -0.600431
      22A     -0.592932    23A     -0.563936    24A     -0.553924
      25A     -0.547425    26A     -0.540630    27A     -0.517683
      28A     -0.497575    29A     -0.472097    30A     -0.442990
      31A     -0.329581

  @DF-RHF Final Energy:  -382.88116350561455

   => Energetics <=

    Nuclear Repulsion Energy =            378.0743491253780348
    One-Electron Energy =               -1271.1836821152842276
    Two-Electron Energy =                 510.2281694842916409
    Total Energy =                       -382.8811635056145519
  Basis Set: (AUG-CC-PVTZ AUX)
    Blend: AUG-CC-PVTZ-RI
    Molecular point group: c1

    Geometry (in Angstrom), charge = 0, multiplicity = 1:

       Center              X                  Y                   Z               Mass
    ------------   -----------------  -----------------  -----------------  -----------------
         O           -1.368304014706    -1.340934435757     0.478679851175    15.994914619570
         O           -2.288473014706     0.512629564243    -0.415424148825    15.994914619570
         C            1.261157985294    -0.282224035757    -0.080288848825    12.000000000000
         C            0.070165985294     0.525583564243     0.038989851175    12.000000000000
         C            2.557390985294     0.472206564243     0.069078851175    12.000000000000
         C            1.312090985294    -1.688926435757    -0.251992148825    12.000000000000
         C            0.065089985294     2.034962564243     0.136012851175    12.000000000000
         C           -1.289418014706    -0.071322435757    -0.015606148825    12.000000000000
         H            3.008399985294     0.589820564243    -0.924481148825     1.007825032230
         H            2.509268985294     1.454342564243     0.540350851175     1.007825032230
         H            3.238214985294    -0.154221435757     0.655128851175     1.007825032230
         H            0.427736985294    -2.115895435757    -0.718905148825     1.007825032230
         H            1.467840985294    -2.206314435757     0.701718851175     1.007825032230
         H            2.182944985294    -1.899173435757    -0.882145148825     1.007825032230
         H            0.790259985294     2.485040564243    -0.545612148825     1.007825032230
         H            0.302007985294     2.371638564243     1.151507851175     1.007825032230
         H           -0.924664014706     2.411231564243    -0.124006148825     1.007825032230
         H           -2.313547014706    -1.581761435757     0.378524851175     1.007825032230

  Basis Set: AUG-CC-PVTZ
    Blend: AUG-CC-PVTZ
  Basis Set: (AUG-CC-PVTZ AUX)
    Blend: AUG-CC-PVTZ-JKFIT
	 Reference Energy          =    -382.8811635056145519 [Eh]
	 Singles Energy            =      -0.0000000000000000 [Eh]
	 Same-Spin Energy          =      -0.3902376023306490 [Eh]
	 Opposite-Spin Energy      =      -1.2635158242869187 [Eh]
	 Correlation Energy        =      -1.6537534266175675 [Eh]
	 Total Energy              =    -384.5349169322321359 [Eh]

	 ================> DF-SCS-MP2 Energies <==================
	-----------------------------------------------------------
	 SCS Same-Spin Scale       =       0.3333333333333333 [-]
	 SCS Opposite-Spin Scale   =       1.2000000000000000 [-]
	 SCS Same-Spin Energy      =      -0.1300792007768830 [Eh]
	 SCS Opposite-Spin Energy  =      -1.5162189891443023 [Eh]
	 SCS Correlation Energy    =      -1.6462981899211853 [Eh]
	 SCS Total Energy          =    -384.5274616955357487 [Eh]
	-----------------------------------------------------------

  Dipole Moment: [D]
     X:     2.2283      Y:    -0.9944      Z:     0.4859     Total:     2.4880

*** Psi4 exiting successfully. Buy a developer a beer!
