                               Psi4 1.4a3.dev225

  ==> Input File <==

--------------------------------------------------------------------------
#psi4
#
memory 32 gb

molecule  {
0 1
  O       -1.4489980    -1.3596060     0.4723610
  O       -2.3691670     0.4939580    -0.4217430
  C        1.1321160    -0.2196140    -0.0405290
  C       -0.0105280     0.5069120     0.0326710
  C        2.4766970     0.4535350     0.0627600
  C        1.2313970    -1.7075980    -0.2583110
  C       -0.0156040     2.0162910     0.1296940
  C       -1.3672218    -0.0434785    -0.0400345
  H        2.9277060     0.5711490    -0.9308000
  H        2.4285750     1.4356710     0.5340320
  H        3.1575210    -0.1728930     0.6488100
  H        0.3470430    -2.1345670    -0.7252240
  H        1.3871470    -2.2249860     0.6954000
  H        2.1022510    -1.9178450    -0.8884640
  H        0.7095660     2.4663690    -0.5519310
  H        0.2213140     2.3529670     1.1451890
  H       -1.0053580     2.3925600    -0.1303250
  H       -2.3942410    -1.6004330     0.3722060
units angstrom
no_reorient  #important for SAPT in psi4, default
symmetry c1  #important for SAPT in psi4, default
}

set PROPERTIES_ORIGIN ["COM"]
properties('MP2/aug-cc-pvtz', properties = ['dipole'])
--------------------------------------------------------------------------

    Molecular point group: c1
  Charge       = 0
  Multiplicity = 1
  Basis Set: AUG-CC-PVTZ
    Blend: AUG-CC-PVTZ
  Basis Set: (AUG-CC-PVTZ AUX)
    Blend: AUG-CC-PVTZ-JKFIT

    Orbital Energies [Eh]
    ---------------------

    Doubly Occupied:

       1A    -20.593815     2A    -20.548062     3A    -11.382908
       4A    -11.272167     5A    -11.242454     6A    -11.236043
       7A    -11.227871     8A    -11.220737     9A     -1.443899
      10A     -1.346348    11A     -1.125941    12A     -1.019224
      13A     -0.957124    14A     -0.908337    15A     -0.829433
      16A     -0.726303    17A     -0.694169    18A     -0.663471
      19A     -0.630897    20A     -0.612837    21A     -0.599409
      22A     -0.585675    23A     -0.563668    24A     -0.552424
      25A     -0.548210    26A     -0.543010    27A     -0.516634
      28A     -0.494125    29A     -0.479203    30A     -0.448330
      31A     -0.352668

  @DF-RHF Final Energy:  -382.89693910372489

   => Energetics <=

    Nuclear Repulsion Energy =            378.7121207165411647
    One-Electron Energy =               -1272.4873271187830142
    Two-Electron Energy =                 510.8782672985169029
    Total Energy =                       -382.8969391037248897
  Basis Set: (AUG-CC-PVTZ AUX)
    Blend: AUG-CC-PVTZ-RI
    Molecular point group: c1

    Geometry (in Angstrom), charge = 0, multiplicity = 1:

       Center              X                  Y                   Z               Mass
    ------------   -----------------  -----------------  -----------------  -----------------
         O           -1.363521838990    -1.354378733285     0.475737482011    15.994914619570
         O           -2.283690838990     0.499185266715    -0.418366517989    15.994914619570
         C            1.217592161010    -0.214386733285    -0.037152517989    12.000000000000
         C            0.074948161010     0.512139266715     0.036047482011    12.000000000000
         C            2.562173161010     0.458762266715     0.066136482011    12.000000000000
         C            1.316873161010    -1.702370733285    -0.254934517989    12.000000000000
         C            0.069872161010     2.021518266715     0.133070482011    12.000000000000
         C           -1.281745638990    -0.038251233285    -0.036658017989    12.000000000000
         H            3.013182161010     0.576376266715    -0.927423517989     1.007825032230
         H            2.514051161010     1.440898266715     0.537408482011     1.007825032230
         H            3.242997161010    -0.167665733285     0.652186482011     1.007825032230
         H            0.432519161010    -2.129339733285    -0.721847517989     1.007825032230
         H            1.472623161010    -2.219758733285     0.698776482011     1.007825032230
         H            2.187727161010    -1.912617733285    -0.885087517989     1.007825032230
         H            0.795042161010     2.471596266715    -0.548554517989     1.007825032230
         H            0.306790161010     2.358194266715     1.148565482011     1.007825032230
         H           -0.919881838990     2.397787266715    -0.126948517989     1.007825032230
         H           -2.308764838990    -1.595205733285     0.375582482011     1.007825032230

  Basis Set: AUG-CC-PVTZ
    Blend: AUG-CC-PVTZ
  Basis Set: (AUG-CC-PVTZ AUX)
    Blend: AUG-CC-PVTZ-JKFIT
	 Reference Energy          =    -382.8969391037248897 [Eh]
	 Singles Energy            =      -0.0000000000000000 [Eh]
	 Same-Spin Energy          =      -0.3880907441856712 [Eh]
	 Opposite-Spin Energy      =      -1.2608251743086634 [Eh]
	 Correlation Energy        =      -1.6489159184943345 [Eh]
	 Total Energy              =    -384.5458550222192002 [Eh]

	 ================> DF-SCS-MP2 Energies <==================
	-----------------------------------------------------------
	 SCS Same-Spin Scale       =       0.3333333333333333 [-]
	 SCS Opposite-Spin Scale   =       1.2000000000000000 [-]
	 SCS Same-Spin Energy      =      -0.1293635813952237 [Eh]
	 SCS Opposite-Spin Energy  =      -1.5129902091703959 [Eh]
	 SCS Correlation Energy    =      -1.6423537905656196 [Eh]
	 SCS Total Energy          =    -384.5392928942904973 [Eh]
	-----------------------------------------------------------

  Dipole Moment: [D]
     X:     2.1871      Y:    -0.5747      Z:     0.3130     Total:     2.2829

*** Psi4 exiting successfully. Buy a developer a beer!
