                               Psi4 1.4a3.dev225

  ==> Input File <==

--------------------------------------------------------------------------
#psi4
#
memory 32 gb

molecule  {
0 1
  O       -1.4489980    -1.3596060     0.4723610
  O       -2.3691670     0.4939580    -0.4217430
  C        1.1321160    -0.2196140    -0.0405290
  C       -0.0105280     0.5069120     0.0326710
  C        2.4766970     0.4535350     0.0627600
  C        1.2313970    -1.7075980    -0.2583110
  C       -0.0156040     2.0162910     0.1296940
  C       -1.3701120    -0.0899940    -0.0219250
  H        3.0098979     0.5925830    -1.1118665
  H        2.4285750     1.4356710     0.5340320
  H        3.1575210    -0.1728930     0.6488100
  H        0.3470430    -2.1345670    -0.7252240
  H        1.3871470    -2.2249860     0.6954000
  H        2.1022510    -1.9178450    -0.8884640
  H        0.7095660     2.4663690    -0.5519310
  H        0.2213140     2.3529670     1.1451890
  H       -1.0053580     2.3925600    -0.1303250
  H       -2.3942410    -1.6004330     0.3722060
units angstrom
no_reorient  #important for SAPT in psi4, default
symmetry c1  #important for SAPT in psi4, default
}

set PROPERTIES_ORIGIN ["COM"]
properties('MP2/aug-cc-pvtz', properties = ['dipole'])
--------------------------------------------------------------------------

    Molecular point group: c1
  Charge       = 0
  Multiplicity = 1
  Basis Set: AUG-CC-PVTZ
    Blend: AUG-CC-PVTZ
  Basis Set: (AUG-CC-PVTZ AUX)
    Blend: AUG-CC-PVTZ-JKFIT

    Orbital Energies [Eh]
    ---------------------

    Doubly Occupied:

       1A    -20.609349     2A    -20.542499     3A    -11.385606
       4A    -11.270207     5A    -11.256623     6A    -11.244770
       7A    -11.228344     8A    -11.220293     9A     -1.453632
      10A     -1.347153    11A     -1.123354    12A     -1.014043
      13A     -0.948712    14A     -0.909583    15A     -0.830247
      16A     -0.733878    17A     -0.700124    18A     -0.663935
      19A     -0.634657    20A     -0.608294    21A     -0.598162
      22A     -0.583100    23A     -0.563800    24A     -0.550167
      25A     -0.543747    26A     -0.520721    27A     -0.514228
      28A     -0.494270    29A     -0.476353    30A     -0.448217
      31A     -0.349814

  @DF-RHF Final Energy:  -382.87990824489697

   => Energetics <=

    Nuclear Repulsion Energy =            377.8883110092638162
    One-Electron Energy =               -1270.8006681591252800
    Two-Electron Energy =                 510.0324489049644967
    Total Energy =                       -382.8799082448969671
  Basis Set: (AUG-CC-PVTZ AUX)
    Blend: AUG-CC-PVTZ-RI
    Molecular point group: c1

    Geometry (in Angstrom), charge = 0, multiplicity = 1:

       Center              X                  Y                   Z               Mass
    ------------   -----------------  -----------------  -----------------  -----------------
         O           -1.363943978597    -1.349674662871     0.475432132355    15.994914619570
         O           -2.284112978597     0.503889337129    -0.418671867645    15.994914619570
         C            1.217170021403    -0.209682662871    -0.037457867645    12.000000000000
         C            0.074526021403     0.516843337129     0.035742132355    12.000000000000
         C            2.561751021403     0.463466337129     0.065831132355    12.000000000000
         C            1.316451021403    -1.697666662871    -0.255239867645    12.000000000000
         C            0.069450021403     2.026222337129     0.132765132355    12.000000000000
         C           -1.285057978597    -0.080062662871    -0.018853867645    12.000000000000
         H            3.094951921403     0.602514337129    -1.108795367645     1.007825032230
         H            2.513629021403     1.445602337129     0.537103132355     1.007825032230
         H            3.242575021403    -0.162961662871     0.651881132355     1.007825032230
         H            0.432097021403    -2.124635662871    -0.722152867645     1.007825032230
         H            1.472201021403    -2.215054662871     0.698471132355     1.007825032230
         H            2.187305021403    -1.907913662871    -0.885392867645     1.007825032230
         H            0.794620021403     2.476300337129    -0.548859867645     1.007825032230
         H            0.306368021403     2.362898337129     1.148260132355     1.007825032230
         H           -0.920303978597     2.402491337129    -0.127253867645     1.007825032230
         H           -2.309186978597    -1.590501662871     0.375277132355     1.007825032230

  Basis Set: AUG-CC-PVTZ
    Blend: AUG-CC-PVTZ
  Basis Set: (AUG-CC-PVTZ AUX)
    Blend: AUG-CC-PVTZ-JKFIT
	 Reference Energy          =    -382.8799082448969671 [Eh]
	 Singles Energy            =      -0.0000000000000000 [Eh]
	 Same-Spin Energy          =      -0.3881346913026051 [Eh]
	 Opposite-Spin Energy      =      -1.2620648500414973 [Eh]
	 Correlation Energy        =      -1.6501995413441024 [Eh]
	 Total Energy              =    -384.5301077862410466 [Eh]

	 ================> DF-SCS-MP2 Energies <==================
	-----------------------------------------------------------
	 SCS Same-Spin Scale       =       0.3333333333333333 [-]
	 SCS Opposite-Spin Scale   =       1.2000000000000000 [-]
	 SCS Same-Spin Energy      =      -0.1293782304342017 [Eh]
	 SCS Opposite-Spin Energy  =      -1.5144778200497966 [Eh]
	 SCS Correlation Energy    =      -1.6438560504839983 [Eh]
	 SCS Total Energy          =    -384.5237642953809427 [Eh]
	-----------------------------------------------------------

  Dipole Moment: [D]
     X:     2.0066      Y:    -0.9255      Z:     0.5522     Total:     2.2777

*** Psi4 exiting successfully. Buy a developer a beer!
