                               Psi4 1.4a3.dev225

  ==> Input File <==

--------------------------------------------------------------------------
#psi4
#
memory 32 gb

molecule  {
0 1
  O       -1.4489980    -1.3596060     0.4723610
  O       -2.3691670     0.4939580    -0.4217430
  C        1.1321160    -0.2196140    -0.0405290
  C       -0.0105280     0.5069120     0.0326710
  C        2.4766970     0.4535350     0.0627600
  C        1.2313970    -1.7075980    -0.2583110
  C       -0.0156040     2.0162910     0.1296940
  C       -1.3701120    -0.0899940    -0.0219250
  H        2.9071580     0.5657905    -0.8855334
  H        2.4285750     1.4356710     0.5340320
  H        3.1575210    -0.1728930     0.6488100
  H        0.3470430    -2.1345670    -0.7252240
  H        1.3871470    -2.2249860     0.6954000
  H        2.1022510    -1.9178450    -0.8884640
  H        0.7095660     2.4663690    -0.5519310
  H        0.2213140     2.3529670     1.1451890
  H       -1.0053580     2.3925600    -0.1303250
  H       -2.3942410    -1.6004330     0.3722060
units angstrom
no_reorient  #important for SAPT in psi4, default
symmetry c1  #important for SAPT in psi4, default
}

set PROPERTIES_ORIGIN ["COM"]
properties('MP2/aug-cc-pvtz', properties = ['dipole'])
--------------------------------------------------------------------------

    Molecular point group: c1
  Charge       = 0
  Multiplicity = 1
  Basis Set: AUG-CC-PVTZ
    Blend: AUG-CC-PVTZ
  Basis Set: (AUG-CC-PVTZ AUX)
    Blend: AUG-CC-PVTZ-JKFIT

    Orbital Energies [Eh]
    ---------------------

    Doubly Occupied:

       1A    -20.608334     2A    -20.541163     3A    -11.384206
       4A    -11.268221     5A    -11.242297     6A    -11.228351
       7A    -11.228320     8A    -11.219247     9A     -1.452520
      10A     -1.345983    11A     -1.123659    12A     -1.016174
      13A     -0.959634    14A     -0.908612    15A     -0.833792
      16A     -0.734270    17A     -0.699150    18A     -0.662723
      19A     -0.635104    20A     -0.611888    21A     -0.601426
      22A     -0.589348    23A     -0.563167    24A     -0.555144
      25A     -0.546732    26A     -0.542625    27A     -0.513727
      28A     -0.492357    29A     -0.475443    30A     -0.446943
      31A     -0.350472

  @DF-RHF Final Energy:  -382.89860909808993

   => Energetics <=

    Nuclear Repulsion Energy =            378.9104809705095818
    One-Electron Energy =               -1272.8561139308478687
    Two-Electron Energy =                 511.0470238622484089
    Total Energy =                       -382.8986090980899348
  Basis Set: (AUG-CC-PVTZ AUX)
    Blend: AUG-CC-PVTZ-RI
    Molecular point group: c1

    Geometry (in Angstrom), charge = 0, multiplicity = 1:

       Center              X                  Y                   Z               Mass
    ------------   -----------------  -----------------  -----------------  -----------------
         O           -1.363036241363    -1.349437943253     0.473432412848    15.994914619570
         O           -2.283205241363     0.504126056747    -0.420671587152    15.994914619570
         C            1.218077758637    -0.209445943253    -0.039457587152    12.000000000000
         C            0.075433758637     0.517080056747     0.033742412848    12.000000000000
         C            2.562658758637     0.463703056747     0.063831412848    12.000000000000
         C            1.317358758637    -1.697429943253    -0.257239587152    12.000000000000
         C            0.070357758637     2.026459056747     0.130765412848    12.000000000000
         C           -1.284150241363    -0.079825943253    -0.020853587152    12.000000000000
         H            2.993119758637     0.575958556747    -0.884461987152     1.007825032230
         H            2.514536758637     1.445839056747     0.535103412848     1.007825032230
         H            3.243482758637    -0.162724943253     0.649881412848     1.007825032230
         H            0.433004758637    -2.124398943253    -0.724152587152     1.007825032230
         H            1.473108758637    -2.214817943253     0.696471412848     1.007825032230
         H            2.188212758637    -1.907676943253    -0.887392587152     1.007825032230
         H            0.795527758637     2.476537056747    -0.550859587152     1.007825032230
         H            0.307275758637     2.363135056747     1.146260412848     1.007825032230
         H           -0.919396241363     2.402728056747    -0.129253587152     1.007825032230
         H           -2.308279241363    -1.590264943253     0.373277412848     1.007825032230

  Basis Set: AUG-CC-PVTZ
    Blend: AUG-CC-PVTZ
  Basis Set: (AUG-CC-PVTZ AUX)
    Blend: AUG-CC-PVTZ-JKFIT
	 Reference Energy          =    -382.8986090980899348 [Eh]
	 Singles Energy            =      -0.0000000000000000 [Eh]
	 Same-Spin Energy          =      -0.3880430976963024 [Eh]
	 Opposite-Spin Energy      =      -1.2602120805751069 [Eh]
	 Correlation Energy        =      -1.6482551782714094 [Eh]
	 Total Energy              =    -384.5468642763613616 [Eh]

	 ================> DF-SCS-MP2 Energies <==================
	-----------------------------------------------------------
	 SCS Same-Spin Scale       =       0.3333333333333333 [-]
	 SCS Opposite-Spin Scale   =       1.2000000000000000 [-]
	 SCS Same-Spin Energy      =      -0.1293476992321008 [Eh]
	 SCS Opposite-Spin Energy  =      -1.5122544966901283 [Eh]
	 SCS Correlation Energy    =      -1.6416021959222291 [Eh]
	 SCS Total Energy          =    -384.5402112940121810 [Eh]
	-----------------------------------------------------------

  Dipole Moment: [D]
     X:     2.1313      Y:    -0.9153      Z:     0.4522     Total:     2.3632

*** Psi4 exiting successfully. Buy a developer a beer!
