                               Psi4 1.4a3.dev225

  ==> Input File <==

--------------------------------------------------------------------------
#psi4
#
memory 32 gb

molecule  {
0 1
  O       -1.4489980    -1.3596060     0.4723610
  O       -2.3691670     0.4939580    -0.4217430
  C        1.1321160    -0.2196140    -0.0405290
  C       -0.0105280     0.5069120     0.0326710
  C        2.4766970     0.4535350     0.0627600
  C        1.2313970    -1.7075980    -0.2583110
  C       -0.0156040     2.0162910     0.1296940
  C       -1.3701120    -0.0899940    -0.0219250
  H        2.9277060     0.5711490    -0.9308000
  H        2.4285750     1.4356710     0.5340320
  H        3.1575210    -0.1728930     0.6488100
  H        0.3688993    -2.1471144    -0.7536041
  H        1.3871470    -2.2249860     0.6954000
  H        2.1022510    -1.9178450    -0.8884640
  H        0.7095660     2.4663690    -0.5519310
  H        0.2213140     2.3529670     1.1451890
  H       -1.0053580     2.3925600    -0.1303250
  H       -2.3942410    -1.6004330     0.3722060
units angstrom
no_reorient  #important for SAPT in psi4, default
symmetry c1  #important for SAPT in psi4, default
}

set PROPERTIES_ORIGIN ["COM"]
properties('MP2/aug-cc-pvtz', properties = ['dipole'])
--------------------------------------------------------------------------

    Molecular point group: c1
  Charge       = 0
  Multiplicity = 1
  Basis Set: AUG-CC-PVTZ
    Blend: AUG-CC-PVTZ
  Basis Set: (AUG-CC-PVTZ AUX)
    Blend: AUG-CC-PVTZ-JKFIT

    Orbital Energies [Eh]
    ---------------------

    Doubly Occupied:

       1A    -20.608149     2A    -20.541243     3A    -11.384279
       4A    -11.268713     5A    -11.242754     6A    -11.234472
       7A    -11.228538     8A    -11.219418     9A     -1.452359
      10A     -1.345929    11A     -1.123279    12A     -1.015366
      13A     -0.956450    14A     -0.908846    15A     -0.832731
      16A     -0.733888    17A     -0.698748    18A     -0.663249
      19A     -0.634248    20A     -0.609536    21A     -0.600544
      22A     -0.587455    23A     -0.563670    24A     -0.551011
      25A     -0.547279    26A     -0.541834    27A     -0.512962
      28A     -0.493136    29A     -0.475337    30A     -0.447047
      31A     -0.350511

  @DF-RHF Final Energy:  -382.89949735594678

   => Energetics <=

    Nuclear Repulsion Energy =            378.6110002732348789
    One-Electron Energy =               -1272.2750359291842415
    Two-Electron Energy =                 510.7645383000026413
    Total Energy =                       -382.8994973559467780
  Basis Set: (AUG-CC-PVTZ AUX)
    Blend: AUG-CC-PVTZ-RI
    Molecular point group: c1

    Geometry (in Angstrom), charge = 0, multiplicity = 1:

       Center              X                  Y                   Z               Mass
    ------------   -----------------  -----------------  -----------------  -----------------
         O           -1.363410895826    -1.349374427207     0.474083103103    15.994914619570
         O           -2.283579895826     0.504189572793    -0.420020896897    15.994914619570
         C            1.217703104174    -0.209382427207    -0.038806896897    12.000000000000
         C            0.075059104174     0.517143572793     0.034393103103    12.000000000000
         C            2.562284104174     0.463766572793     0.064482103103    12.000000000000
         C            1.316984104174    -1.697366427207    -0.256588896897    12.000000000000
         C            0.069983104174     2.026522572793     0.131416103103    12.000000000000
         C           -1.284524895826    -0.079762427207    -0.020202896897    12.000000000000
         H            3.013293104174     0.581380572793    -0.929077896897     1.007825032230
         H            2.514162104174     1.445902572793     0.535754103103     1.007825032230
         H            3.243108104174    -0.162661427207     0.650532103103     1.007825032230
         H            0.454486404174    -2.136882827207    -0.751881996897     1.007825032230
         H            1.472734104174    -2.214754427207     0.697122103103     1.007825032230
         H            2.187838104174    -1.907613427207    -0.886741896897     1.007825032230
         H            0.795153104174     2.476600572793    -0.550208896897     1.007825032230
         H            0.306901104174     2.363198572793     1.146911103103     1.007825032230
         H           -0.919770895826     2.402791572793    -0.128602896897     1.007825032230
         H           -2.308653895826    -1.590201427207     0.373928103103     1.007825032230

  Basis Set: AUG-CC-PVTZ
    Blend: AUG-CC-PVTZ
  Basis Set: (AUG-CC-PVTZ AUX)
    Blend: AUG-CC-PVTZ-JKFIT
	 Reference Energy          =    -382.8994973559467780 [Eh]
	 Singles Energy            =      -0.0000000000000000 [Eh]
	 Same-Spin Energy          =      -0.3880003560939781 [Eh]
	 Opposite-Spin Energy      =      -1.2604519459489820 [Eh]
	 Correlation Energy        =      -1.6484523020429602 [Eh]
	 Total Energy              =    -384.5479496579897614 [Eh]

	 ================> DF-SCS-MP2 Energies <==================
	-----------------------------------------------------------
	 SCS Same-Spin Scale       =       0.3333333333333333 [-]
	 SCS Opposite-Spin Scale   =       1.2000000000000000 [-]
	 SCS Same-Spin Energy      =      -0.1293334520313260 [Eh]
	 SCS Opposite-Spin Energy  =      -1.5125423351387783 [Eh]
	 SCS Correlation Energy    =      -1.6418757871701044 [Eh]
	 SCS Total Energy          =    -384.5413731431168571 [Eh]
	-----------------------------------------------------------

  Dipole Moment: [D]
     X:     2.1218      Y:    -0.9176      Z:     0.4542     Total:     2.3559

*** Psi4 exiting successfully. Buy a developer a beer!
