                               Psi4 1.4a3.dev225

  ==> Input File <==

--------------------------------------------------------------------------
#psi4
#
memory 32 gb

molecule  {
0 1
  O       -1.4489980    -1.3596060     0.4723610
  O       -2.3691670     0.4939580    -0.4217430
  C        1.1321160    -0.2196140    -0.0405290
  C       -0.0105280     0.5069120     0.0326710
  C        2.4766970     0.4535350     0.0627600
  C        1.2313970    -1.7075980    -0.2583110
  C       -0.0156040     2.0162910     0.1296940
  C       -1.3730022    -0.1365095    -0.0038155
  H        2.9277060     0.5711490    -0.9308000
  H        2.4285750     1.4356710     0.5340320
  H        3.1575210    -0.1728930     0.6488100
  H        0.3470430    -2.1345670    -0.7252240
  H        1.3871470    -2.2249860     0.6954000
  H        2.1022510    -1.9178450    -0.8884640
  H        0.7095660     2.4663690    -0.5519310
  H        0.2213140     2.3529670     1.1451890
  H       -1.0053580     2.3925600    -0.1303250
  H       -2.3942410    -1.6004330     0.3722060
units angstrom
no_reorient  #important for SAPT in psi4, default
symmetry c1  #important for SAPT in psi4, default
}

set PROPERTIES_ORIGIN ["COM"]
properties('MP2/aug-cc-pvtz', properties = ['dipole'])
--------------------------------------------------------------------------

    Molecular point group: c1
  Charge       = 0
  Multiplicity = 1
  Basis Set: AUG-CC-PVTZ
    Blend: AUG-CC-PVTZ
  Basis Set: (AUG-CC-PVTZ AUX)
    Blend: AUG-CC-PVTZ-JKFIT

    Orbital Energies [Eh]
    ---------------------

    Doubly Occupied:

       1A    -20.622774     2A    -20.534381     3A    -11.386126
       4A    -11.265074     5A    -11.243148     6A    -11.232799
       7A    -11.228851     8A    -11.218190     9A     -1.473491
      10A     -1.336103    11A     -1.120912    12A     -1.011791
      13A     -0.956133    14A     -0.910116    15A     -0.839356
      16A     -0.740202    17A     -0.707301    18A     -0.662857
      19A     -0.642500    20A     -0.606448    21A     -0.600022
      22A     -0.590219    23A     -0.562469    24A     -0.549234
      25A     -0.544667    26A     -0.541886    27A     -0.510980
      28A     -0.490878    29A     -0.468761    30A     -0.443199
      31A     -0.348054

  @DF-RHF Final Energy:  -382.89624913024045

   => Energetics <=

    Nuclear Repulsion Energy =            378.6893838881897523
    One-Electron Energy =               -1272.3934162296552586
    Two-Electron Energy =                 510.8077832112251144
    Total Energy =                       -382.8962491302404487
  Basis Set: (AUG-CC-PVTZ AUX)
    Blend: AUG-CC-PVTZ-RI
    Molecular point group: c1

    Geometry (in Angstrom), charge = 0, multiplicity = 1:

       Center              X                  Y                   Z               Mass
    ------------   -----------------  -----------------  -----------------  -----------------
         O           -1.362913738983    -1.344591841068     0.471927231135    15.994914619570
         O           -2.283082738983     0.508972158932    -0.422176768865    15.994914619570
         C            1.218200261017    -0.204599841068    -0.040962768865    12.000000000000
         C            0.075556261017     0.521926158932     0.032237231135    12.000000000000
         C            2.562781261017     0.468549158932     0.062326231135    12.000000000000
         C            1.317481261017    -1.692583841068    -0.258744768865    12.000000000000
         C            0.070480261017     2.031305158932     0.129260231135    12.000000000000
         C           -1.286917938983    -0.121495341068    -0.004249268865    12.000000000000
         H            3.013790261017     0.586163158932    -0.931233768865     1.007825032230
         H            2.514659261017     1.450685158932     0.533598231135     1.007825032230
         H            3.243605261017    -0.157878841068     0.648376231135     1.007825032230
         H            0.433127261017    -2.119552841068    -0.725657768865     1.007825032230
         H            1.473231261017    -2.209971841068     0.694966231135     1.007825032230
         H            2.188335261017    -1.902830841068    -0.888897768865     1.007825032230
         H            0.795650261017     2.481383158932    -0.552364768865     1.007825032230
         H            0.307398261017     2.367981158932     1.144755231135     1.007825032230
         H           -0.919273738983     2.407574158932    -0.130758768865     1.007825032230
         H           -2.308156738983    -1.585418841068     0.371772231135     1.007825032230

  Basis Set: AUG-CC-PVTZ
    Blend: AUG-CC-PVTZ
  Basis Set: (AUG-CC-PVTZ AUX)
    Blend: AUG-CC-PVTZ-JKFIT
	 Reference Energy          =    -382.8962491302404487 [Eh]
	 Singles Energy            =      -0.0000000000000000 [Eh]
	 Same-Spin Energy          =      -0.3881619079244044 [Eh]
	 Opposite-Spin Energy      =      -1.2603956017721183 [Eh]
	 Correlation Energy        =      -1.6485575096965226 [Eh]
	 Total Energy              =    -384.5448066399369509 [Eh]

	 ================> DF-SCS-MP2 Energies <==================
	-----------------------------------------------------------
	 SCS Same-Spin Scale       =       0.3333333333333333 [-]
	 SCS Opposite-Spin Scale   =       1.2000000000000000 [-]
	 SCS Same-Spin Energy      =      -0.1293873026414681 [Eh]
	 SCS Opposite-Spin Energy  =      -1.5124747221265420 [Eh]
	 SCS Correlation Energy    =      -1.6418620247680100 [Eh]
	 SCS Total Energy          =    -384.5381111550084370 [Eh]
	-----------------------------------------------------------

  Dipole Moment: [D]
     X:     2.0537      Y:    -1.2485      Z:     0.6182     Total:     2.4816

*** Psi4 exiting successfully. Buy a developer a beer!
