                               Psi4 1.4a3.dev225

  ==> Input File <==

--------------------------------------------------------------------------
#psi4
#
memory 32 gb

molecule  {
0 1
  O       -1.4489980    -1.3596060     0.4723610
  O       -2.3691670     0.4939580    -0.4217430
  C        1.1321160    -0.2196140    -0.0405290
  C       -0.0105280     0.5069120     0.0326710
  C        2.4766970     0.4535350     0.0627600
  C        1.2313970    -1.7075980    -0.2583110
  C       -0.0156040     2.0162910     0.1296940
  C       -1.3701120    -0.0899940    -0.0219250
  H        2.9277060     0.5711490    -0.9308000
  H        2.4285750     1.4356710     0.5340320
  H        3.1575210    -0.1728930     0.6488100
  H        0.3470430    -2.1345670    -0.7252240
  H        1.3871470    -2.2249860     0.6954000
  H        2.1022510    -1.9178450    -0.8884640
  H        0.7178878     2.4750017    -0.5371108
  H        0.2213140     2.3529670     1.1451890
  H       -1.0053580     2.3925600    -0.1303250
  H       -2.3942410    -1.6004330     0.3722060
units angstrom
no_reorient  #important for SAPT in psi4, default
symmetry c1  #important for SAPT in psi4, default
}

set PROPERTIES_ORIGIN ["COM"]
properties('MP2/aug-cc-pvtz', properties = ['dipole'])
--------------------------------------------------------------------------

    Molecular point group: c1
  Charge       = 0
  Multiplicity = 1
  Basis Set: AUG-CC-PVTZ
    Blend: AUG-CC-PVTZ
  Basis Set: (AUG-CC-PVTZ AUX)
    Blend: AUG-CC-PVTZ-JKFIT

    Orbital Energies [Eh]
    ---------------------

    Doubly Occupied:

       1A    -20.608530     2A    -20.541398     3A    -11.384496
       4A    -11.268607     5A    -11.242770     6A    -11.234433
       7A    -11.228351     8A    -11.219400     9A     -1.452729
      10A     -1.346198    11A     -1.123340    12A     -1.015297
      13A     -0.956609    14A     -0.908839    15A     -0.832780
      16A     -0.734222    17A     -0.699319    18A     -0.662837
      19A     -0.634730    20A     -0.610010    21A     -0.600180
      22A     -0.588046    23A     -0.561775    24A     -0.550572
      25A     -0.546771    26A     -0.543742    27A     -0.513945
      28A     -0.492993    29A     -0.475634    30A     -0.447186
      31A     -0.350235

  @DF-RHF Final Energy:  -382.89951968769606

   => Energetics <=

    Nuclear Repulsion Energy =            378.6697382991654877
    One-Electron Energy =               -1272.3865693950731384
    Two-Electron Energy =                 510.8173114082115944
    Total Energy =                       -382.8995196876960563
  Basis Set: (AUG-CC-PVTZ AUX)
    Blend: AUG-CC-PVTZ-RI
    Molecular point group: c1

    Geometry (in Angstrom), charge = 0, multiplicity = 1:

       Center              X                  Y                   Z               Mass
    ------------   -----------------  -----------------  -----------------  -----------------
         O           -1.363291314537    -1.349561559620     0.473701415747    15.994914619570
         O           -2.283460314537     0.504002440380    -0.420402584253    15.994914619570
         C            1.217822685463    -0.209569559620    -0.039188584253    12.000000000000
         C            0.075178685463     0.516956440380     0.034011415747    12.000000000000
         C            2.562403685463     0.463579440380     0.064100415747    12.000000000000
         C            1.317103685463    -1.697553559620    -0.256970584253    12.000000000000
         C            0.070102685463     2.026335440380     0.131034415747    12.000000000000
         C           -1.284405314537    -0.079949559620    -0.020584584253    12.000000000000
         H            3.013412685463     0.581193440380    -0.929459584253     1.007825032230
         H            2.514281685463     1.445715440380     0.535372415747     1.007825032230
         H            3.243227685463    -0.162848559620     0.650150415747     1.007825032230
         H            0.432749685463    -2.124522559620    -0.723883584253     1.007825032230
         H            1.472853685463    -2.214941559620     0.696740415747     1.007825032230
         H            2.187957685463    -1.907800559620    -0.887123584253     1.007825032230
         H            0.803594485463     2.485046140380    -0.535770384253     1.007825032230
         H            0.307020685463     2.363011440380     1.146529415747     1.007825032230
         H           -0.919651314537     2.402604440380    -0.128984584253     1.007825032230
         H           -2.308534314537    -1.590388559620     0.373546415747     1.007825032230

  Basis Set: AUG-CC-PVTZ
    Blend: AUG-CC-PVTZ
  Basis Set: (AUG-CC-PVTZ AUX)
    Blend: AUG-CC-PVTZ-JKFIT
	 Reference Energy          =    -382.8995196876960563 [Eh]
	 Singles Energy            =      -0.0000000000000000 [Eh]
	 Same-Spin Energy          =      -0.3880552781303061 [Eh]
	 Opposite-Spin Energy      =      -1.2604759244038044 [Eh]
	 Correlation Energy        =      -1.6485312025341106 [Eh]
	 Total Energy              =    -384.5480508902301722 [Eh]

	 ================> DF-SCS-MP2 Energies <==================
	-----------------------------------------------------------
	 SCS Same-Spin Scale       =       0.3333333333333333 [-]
	 SCS Opposite-Spin Scale   =       1.2000000000000000 [-]
	 SCS Same-Spin Energy      =      -0.1293517593767687 [Eh]
	 SCS Opposite-Spin Energy  =      -1.5125711092845653 [Eh]
	 SCS Correlation Energy    =      -1.6419228686613341 [Eh]
	 SCS Total Energy          =    -384.5414425563573673 [Eh]
	-----------------------------------------------------------

  Dipole Moment: [D]
     X:     2.1178      Y:    -0.9167      Z:     0.4698     Total:     2.3550

*** Psi4 exiting successfully. Buy a developer a beer!
