                               Psi4 1.4a3.dev225

  ==> Input File <==

--------------------------------------------------------------------------
#psi4
#
memory 32 gb

molecule  {
0 1
  O       -1.3078320    -1.3523195     0.4929652
  O       -2.3691670     0.4939580    -0.4217430
  C        1.1321160    -0.2196140    -0.0405290
  C       -0.0105280     0.5069120     0.0326710
  C        2.4766970     0.4535350     0.0627600
  C        1.2313970    -1.7075980    -0.2583110
  C       -0.0156040     2.0162910     0.1296940
  C       -1.3701120    -0.0899940    -0.0219250
  H        2.9277060     0.5711490    -0.9308000
  H        2.4285750     1.4356710     0.5340320
  H        3.1575210    -0.1728930     0.6488100
  H        0.3470430    -2.1345670    -0.7252240
  H        1.3871470    -2.2249860     0.6954000
  H        2.1022510    -1.9178450    -0.8884640
  H        0.7095660     2.4663690    -0.5519310
  H        0.2213140     2.3529670     1.1451890
  H       -1.0053580     2.3925600    -0.1303250
  H       -2.3942410    -1.6004330     0.3722060
units angstrom
no_reorient  #important for SAPT in psi4, default
symmetry c1  #important for SAPT in psi4, default
}

set PROPERTIES_ORIGIN ["COM"]
properties('MP2/aug-cc-pvtz', properties = ['dipole'])
--------------------------------------------------------------------------

    Molecular point group: c1
  Charge       = 0
  Multiplicity = 1
  Basis Set: AUG-CC-PVTZ
    Blend: AUG-CC-PVTZ
  Basis Set: (AUG-CC-PVTZ AUX)
    Blend: AUG-CC-PVTZ-JKFIT

    Orbital Energies [Eh]
    ---------------------

    Doubly Occupied:

       1A    -20.624335     2A    -20.548663     3A    -11.385878
       4A    -11.264734     5A    -11.237260     6A    -11.232129
       7A    -11.225317     8A    -11.216745     9A     -1.442682
      10A     -1.347870    11A     -1.119235    12A     -1.012498
      13A     -0.953003    14A     -0.903204    15A     -0.820263
      16A     -0.721827    17A     -0.690256    18A     -0.660913
      19A     -0.636999    20A     -0.613935    21A     -0.595877
      22A     -0.580144    23A     -0.560984    24A     -0.548790
      25A     -0.544332    26A     -0.539256    27A     -0.511327
      28A     -0.490494    29A     -0.478746    30A     -0.447152
      31A     -0.347080

  @DF-RHF Final Energy:  -382.87017734679472

   => Energetics <=

    Nuclear Repulsion Energy =            379.5306451340303511
    One-Electron Energy =               -1274.1977864171678902
    Two-Electron Energy =                 511.7969639363428200
    Total Energy =                       -382.8701773467947191
  Basis Set: (AUG-CC-PVTZ AUX)
    Blend: AUG-CC-PVTZ-RI
    Molecular point group: c1

    Geometry (in Angstrom), charge = 0, multiplicity = 1:

       Center              X                  Y                   Z               Mass
    ------------   -----------------  -----------------  -----------------  -----------------
         O           -1.241846442547    -1.343220518636     0.491547383536    15.994914619570
         O           -2.303181442547     0.503056981364    -0.423160816464    15.994914619570
         C            1.198101557453    -0.210515018636    -0.041946816464    12.000000000000
         C            0.055457557453     0.516010981364     0.031253183536    12.000000000000
         C            2.542682557453     0.462633981364     0.061342183536    12.000000000000
         C            1.297382557453    -1.698499018636    -0.259728816464    12.000000000000
         C            0.050381557453     2.025389981364     0.128276183536    12.000000000000
         C           -1.304126442547    -0.080895018636    -0.023342816464    12.000000000000
         H            2.993691557453     0.580247981364    -0.932217816464     1.007825032230
         H            2.494560557453     1.444769981364     0.532614183536     1.007825032230
         H            3.223506557453    -0.163794018636     0.647392183536     1.007825032230
         H            0.413028557453    -2.125468018636    -0.726641816464     1.007825032230
         H            1.453132557453    -2.215887018636     0.693982183536     1.007825032230
         H            2.168236557453    -1.908746018636    -0.889881816464     1.007825032230
         H            0.775551557453     2.475467981364    -0.553348816464     1.007825032230
         H            0.287299557453     2.362065981364     1.143771183536     1.007825032230
         H           -0.939372442547     2.401658981364    -0.131742816464     1.007825032230
         H           -2.328255442547    -1.591334018636     0.370788183536     1.007825032230

  Basis Set: AUG-CC-PVTZ
    Blend: AUG-CC-PVTZ
  Basis Set: (AUG-CC-PVTZ AUX)
    Blend: AUG-CC-PVTZ-JKFIT
	 Reference Energy          =    -382.8701773467947191 [Eh]
	 Singles Energy            =      -0.0000000000000000 [Eh]
	 Same-Spin Energy          =      -0.3915031364707238 [Eh]
	 Opposite-Spin Energy      =      -1.2678032689171228 [Eh]
	 Correlation Energy        =      -1.6593064053878466 [Eh]
	 Total Energy              =    -384.5294837521825571 [Eh]

	 ================> DF-SCS-MP2 Energies <==================
	-----------------------------------------------------------
	 SCS Same-Spin Scale       =       0.3333333333333333 [-]
	 SCS Opposite-Spin Scale   =       1.2000000000000000 [-]
	 SCS Same-Spin Energy      =      -0.1305010454902413 [Eh]
	 SCS Opposite-Spin Energy  =      -1.5213639227005473 [Eh]
	 SCS Correlation Energy    =      -1.6518649681907887 [Eh]
	 SCS Total Energy          =    -384.5220423149855264 [Eh]
	-----------------------------------------------------------

  Dipole Moment: [D]
     X:     1.8262      Y:    -0.9933      Z:     0.4756     Total:     2.1326

*** Psi4 exiting successfully. Buy a developer a beer!
