                               Psi4 1.4a3.dev225

  ==> Input File <==

--------------------------------------------------------------------------
#psi4
#
memory 32 gb

molecule  {
0 1
  O       -1.4489980    -1.3596060     0.4723610
  O       -2.3691670     0.4939580    -0.4217430
  C        1.1321160    -0.2196140    -0.0405290
  C       -0.0105280     0.5069120     0.0326710
  C        2.4766970     0.4535350     0.0627600
  C        1.2313970    -1.7075980    -0.2583110
  C       -0.0156040     2.0162910     0.1296940
  C       -1.3701120    -0.0899940    -0.0219250
  H        2.9277060     0.5711490    -0.9308000
  H        2.4285750     1.4356710     0.5340320
  H        3.1575210    -0.1728930     0.6488100
  H        0.3470430    -2.1345670    -0.7252240
  H        1.3871470    -2.2249860     0.6954000
  H        2.2612674    -1.9562357    -1.0035289
  H        0.7095660     2.4663690    -0.5519310
  H        0.2213140     2.3529670     1.1451890
  H       -1.0053580     2.3925600    -0.1303250
  H       -2.3942410    -1.6004330     0.3722060
units angstrom
no_reorient  #important for SAPT in psi4, default
symmetry c1  #important for SAPT in psi4, default
}

set PROPERTIES_ORIGIN ["COM"]
properties('MP2/aug-cc-pvtz', properties = ['dipole'])
--------------------------------------------------------------------------

    Molecular point group: c1
  Charge       = 0
  Multiplicity = 1
  Basis Set: AUG-CC-PVTZ
    Blend: AUG-CC-PVTZ
  Basis Set: (AUG-CC-PVTZ AUX)
    Blend: AUG-CC-PVTZ-JKFIT

    Orbital Energies [Eh]
    ---------------------

    Doubly Occupied:

       1A    -20.610402     2A    -20.542815     3A    -11.385975
       4A    -11.270859     5A    -11.251335     6A    -11.244877
       7A    -11.234097     8A    -11.220598     9A     -1.454411
      10A     -1.347714    11A     -1.123721    12A     -1.012960
      13A     -0.952660    14A     -0.905496    15A     -0.831878
      16A     -0.735102    17A     -0.700321    18A     -0.664240
      19A     -0.635754    20A     -0.608128    21A     -0.597684
      22A     -0.585291    23A     -0.563454    24A     -0.548384
      25A     -0.547689    26A     -0.534827    27A     -0.501008
      28A     -0.491413    29A     -0.475003    30A     -0.448593
      31A     -0.351392

  @DF-RHF Final Energy:  -382.87963314668275

   => Energetics <=

    Nuclear Repulsion Energy =            377.8617183856268866
    One-Electron Energy =               -1270.7265397853279865
    Two-Electron Energy =                 509.9851882530183502
    Total Energy =                       -382.8796331466827496
  Basis Set: (AUG-CC-PVTZ AUX)
    Blend: AUG-CC-PVTZ-RI
    Molecular point group: c1

    Geometry (in Angstrom), charge = 0, multiplicity = 1:

       Center              X                  Y                   Z               Mass
    ------------   -----------------  -----------------  -----------------  -----------------
         O           -1.364622745650    -1.349146094051     0.474848988807    15.994914619570
         O           -2.284791745650     0.504417905949    -0.419255011193    15.994914619570
         C            1.216491254350    -0.209154094051    -0.038041011193    12.000000000000
         C            0.073847254350     0.517371905949     0.035158988807    12.000000000000
         C            2.561072254350     0.463994905949     0.065247988807    12.000000000000
         C            1.315772254350    -1.697138094051    -0.255823011193    12.000000000000
         C            0.068771254350     2.026750905949     0.132181988807    12.000000000000
         C           -1.285736745650    -0.079534094051    -0.019437011193    12.000000000000
         H            3.012081254350     0.581608905949    -0.928312011193     1.007825032230
         H            2.512950254350     1.446130905949     0.536519988807     1.007825032230
         H            3.241896254350    -0.162433094051     0.651297988807     1.007825032230
         H            0.431418254350    -2.124107094051    -0.722736011193     1.007825032230
         H            1.471522254350    -2.214526094051     0.697887988807     1.007825032230
         H            2.345642654350    -1.945775794051    -1.001040911193     1.007825032230
         H            0.793941254350     2.476828905949    -0.549443011193     1.007825032230
         H            0.305689254350     2.363426905949     1.147676988807     1.007825032230
         H           -0.920982745650     2.403019905949    -0.127837011193     1.007825032230
         H           -2.309865745650    -1.589973094051     0.374693988807     1.007825032230

  Basis Set: AUG-CC-PVTZ
    Blend: AUG-CC-PVTZ
  Basis Set: (AUG-CC-PVTZ AUX)
    Blend: AUG-CC-PVTZ-JKFIT
	 Reference Energy          =    -382.8796331466827496 [Eh]
	 Singles Energy            =      -0.0000000000000000 [Eh]
	 Same-Spin Energy          =      -0.3880916822511560 [Eh]
	 Opposite-Spin Energy      =      -1.2621695214505497 [Eh]
	 Correlation Energy        =      -1.6502612037017057 [Eh]
	 Total Energy              =    -384.5298943503844384 [Eh]

	 ================> DF-SCS-MP2 Energies <==================
	-----------------------------------------------------------
	 SCS Same-Spin Scale       =       0.3333333333333333 [-]
	 SCS Opposite-Spin Scale   =       1.2000000000000000 [-]
	 SCS Same-Spin Energy      =      -0.1293638940837187 [Eh]
	 SCS Opposite-Spin Energy  =      -1.5146034257406595 [Eh]
	 SCS Correlation Energy    =      -1.6439673198243783 [Eh]
	 SCS Total Energy          =    -384.5236004665071050 [Eh]
	-----------------------------------------------------------

  Dipole Moment: [D]
     X:     1.9766      Y:    -0.8419      Z:     0.5428     Total:     2.2159

*** Psi4 exiting successfully. Buy a developer a beer!
