                               Psi4 1.4a3.dev225

  ==> Input File <==

--------------------------------------------------------------------------
#psi4
#
memory 32 gb

molecule  {
0 1
  O       -1.4489980    -1.3596060     0.4723610
  O       -2.3691670     0.4939580    -0.4217430
  C        1.1321160    -0.2196140    -0.0405290
  C       -0.0105280     0.5069120     0.0326710
  C        2.4766970     0.4535350     0.0627600
  C        1.2313970    -1.7075980    -0.2583110
  C       -0.0156040     2.0162910     0.1296940
  C       -1.3701120    -0.0899940    -0.0219250
  H        2.9277060     0.5711490    -0.9308000
  H        2.4285750     1.4356710     0.5340320
  H        3.1575210    -0.1728930     0.6488100
  H        0.3470430    -2.1345670    -0.7252240
  H        1.3871470    -2.2249860     0.6954000
  H        2.1817592    -1.9370404    -0.9459964
  H        0.7095660     2.4663690    -0.5519310
  H        0.2213140     2.3529670     1.1451890
  H       -1.0053580     2.3925600    -0.1303250
  H       -2.3942410    -1.6004330     0.3722060
units angstrom
no_reorient  #important for SAPT in psi4, default
symmetry c1  #important for SAPT in psi4, default
}

set PROPERTIES_ORIGIN ["COM"]
properties('MP2/aug-cc-pvtz', properties = ['dipole'])
--------------------------------------------------------------------------

    Molecular point group: c1
  Charge       = 0
  Multiplicity = 1
  Basis Set: AUG-CC-PVTZ
    Blend: AUG-CC-PVTZ
  Basis Set: (AUG-CC-PVTZ AUX)
    Blend: AUG-CC-PVTZ-JKFIT

    Orbital Energies [Eh]
    ---------------------

    Doubly Occupied:

       1A    -20.609346     2A    -20.541993     3A    -11.385099
       4A    -11.269601     5A    -11.243613     6A    -11.240228
       7A    -11.234214     8A    -11.219919     9A     -1.453454
      10A     -1.346844    11A     -1.123301    12A     -1.013703
      13A     -0.953994    14A     -0.906744    15A     -0.832094
      16A     -0.734415    17A     -0.699653    18A     -0.663338
      19A     -0.635000    20A     -0.608223    21A     -0.598471
      22A     -0.586351    23A     -0.563107    24A     -0.548534
      25A     -0.547052    26A     -0.538702    27A     -0.508270
      28A     -0.492928    29A     -0.475674    30A     -0.447779
      31A     -0.350803

  @DF-RHF Final Energy:  -382.89305886540194

   => Energetics <=

    Nuclear Repulsion Energy =            378.2508315795705585
    One-Electron Energy =               -1271.5428872864740697
    Two-Electron Energy =                 510.3989968415015710
    Total Energy =                       -382.8930588654019402
  Basis Set: (AUG-CC-PVTZ AUX)
    Blend: AUG-CC-PVTZ-RI
    Molecular point group: c1

    Geometry (in Angstrom), charge = 0, multiplicity = 1:

       Center              X                  Y                   Z               Mass
    ------------   -----------------  -----------------  -----------------  -----------------
         O           -1.363920267318    -1.349315690172     0.474340672248    15.994914619570
         O           -2.284089267318     0.504248309828    -0.419763327752    15.994914619570
         C            1.217193732682    -0.209323690172    -0.038549327752    12.000000000000
         C            0.074549732682     0.517202309828     0.034650672248    12.000000000000
         C            2.561774732682     0.463825309828     0.064739672248    12.000000000000
         C            1.316474732682    -1.697307690172    -0.256331327752    12.000000000000
         C            0.069473732682     2.026581309828     0.131673672248    12.000000000000
         C           -1.285034267318    -0.079703690172    -0.019945327752    12.000000000000
         H            3.012783732682     0.581439309828    -0.928820327752     1.007825032230
         H            2.513652732682     1.445961309828     0.536011672248     1.007825032230
         H            3.242598732682    -0.162602690172     0.650789672248     1.007825032230
         H            0.432120732682    -2.124276690172    -0.723244327752     1.007825032230
         H            1.472224732682    -2.214695690172     0.697379672248     1.007825032230
         H            2.266836932682    -1.926750090172    -0.944016727752     1.007825032230
         H            0.794643732682     2.476659309828    -0.549951327752     1.007825032230
         H            0.306391732682     2.363257309828     1.147168672248     1.007825032230
         H           -0.920280267318     2.402850309828    -0.128345327752     1.007825032230
         H           -2.309163267318    -1.590142690172     0.374185672248     1.007825032230

  Basis Set: AUG-CC-PVTZ
    Blend: AUG-CC-PVTZ
  Basis Set: (AUG-CC-PVTZ AUX)
    Blend: AUG-CC-PVTZ-JKFIT
	 Reference Energy          =    -382.8930588654019402 [Eh]
	 Singles Energy            =      -0.0000000000000000 [Eh]
	 Same-Spin Energy          =      -0.3880712333444721 [Eh]
	 Opposite-Spin Energy      =      -1.2612520630960486 [Eh]
	 Correlation Energy        =      -1.6493232964405209 [Eh]
	 Total Energy              =    -384.5423821618424540 [Eh]

	 ================> DF-SCS-MP2 Energies <==================
	-----------------------------------------------------------
	 SCS Same-Spin Scale       =       0.3333333333333333 [-]
	 SCS Opposite-Spin Scale   =       1.2000000000000000 [-]
	 SCS Same-Spin Energy      =      -0.1293570777814907 [Eh]
	 SCS Opposite-Spin Energy  =      -1.5135024757152584 [Eh]
	 SCS Correlation Energy    =      -1.6428595534967492 [Eh]
	 SCS Total Energy          =    -384.5359184188986887 [Eh]
	-----------------------------------------------------------

  Dipole Moment: [D]
     X:     2.0519      Y:    -0.8835      Z:     0.5005     Total:     2.2894

*** Psi4 exiting successfully. Buy a developer a beer!
