                               Psi4 1.4a3.dev225

  ==> Input File <==

--------------------------------------------------------------------------
#psi4
#
memory 32 gb

molecule  {
0 1
  O       -1.3548879    -1.3562921     0.4867140
  O       -2.3691670     0.4939580    -0.4217430
  C        1.1321160    -0.2196140    -0.0405290
  C       -0.0105280     0.5069120     0.0326710
  C        2.4766970     0.4535350     0.0627600
  C        1.2313970    -1.7075980    -0.2583110
  C       -0.0156040     2.0162910     0.1296940
  C       -1.3701120    -0.0899940    -0.0219250
  H        2.9277060     0.5711490    -0.9308000
  H        2.4285750     1.4356710     0.5340320
  H        3.1575210    -0.1728930     0.6488100
  H        0.3470430    -2.1345670    -0.7252240
  H        1.3871470    -2.2249860     0.6954000
  H        2.1022510    -1.9178450    -0.8884640
  H        0.7095660     2.4663690    -0.5519310
  H        0.2213140     2.3529670     1.1451890
  H       -1.0053580     2.3925600    -0.1303250
  H       -2.3942410    -1.6004330     0.3722060
units angstrom
no_reorient  #important for SAPT in psi4, default
symmetry c1  #important for SAPT in psi4, default
}

set PROPERTIES_ORIGIN ["COM"]
properties('MP2/aug-cc-pvtz', properties = ['dipole'])
--------------------------------------------------------------------------

    Molecular point group: c1
  Charge       = 0
  Multiplicity = 1
  Basis Set: AUG-CC-PVTZ
    Blend: AUG-CC-PVTZ
  Basis Set: (AUG-CC-PVTZ AUX)
    Blend: AUG-CC-PVTZ-JKFIT

    Orbital Energies [Eh]
    ---------------------

    Doubly Occupied:

       1A    -20.619622     2A    -20.546175     3A    -11.385177
       4A    -11.265984     5A    -11.238966     6A    -11.232857
       7A    -11.226290     8A    -11.217599     9A     -1.445323
      10A     -1.346958    11A     -1.120587    12A     -1.013376
      13A     -0.954120    14A     -0.904749    15A     -0.823565
      16A     -0.723422    17A     -0.695155    18A     -0.661470
      19A     -0.636098    20A     -0.612898    21A     -0.597405
      22A     -0.583130    23A     -0.561733    24A     -0.549360
      25A     -0.545224    26A     -0.540502    27A     -0.512137
      28A     -0.491131    29A     -0.477783    30A     -0.447444
      31A     -0.348170

  @DF-RHF Final Energy:  -382.88322667737646

   => Energetics <=

    Nuclear Repulsion Energy =            379.2039314457077808
    One-Electron Energy =               -1273.5254943223121700
    Two-Electron Energy =                 511.4383361992279333
    Total Energy =                       -382.8832266773764559
  Basis Set: (AUG-CC-PVTZ AUX)
    Blend: AUG-CC-PVTZ-RI
    Molecular point group: c1

    Geometry (in Angstrom), charge = 0, multiplicity = 1:

       Center              X                  Y                   Z               Mass
    ------------   -----------------  -----------------  -----------------  -----------------
         O           -1.282304045234    -1.346636070616     0.486172742611    15.994914619570
         O           -2.296583145234     0.503614029384    -0.422284257389    15.994914619570
         C            1.204699854766    -0.209957970616    -0.041070257389    12.000000000000
         C            0.062055854766     0.516568029384     0.032129742611    12.000000000000
         C            2.549280854766     0.463191029384     0.062218742611    12.000000000000
         C            1.303980854766    -1.697941970616    -0.258852257389    12.000000000000
         C            0.056979854766     2.025947029384     0.129152742611    12.000000000000
         C           -1.297528145234    -0.080337970616    -0.022466257389    12.000000000000
         H            3.000289854766     0.580805029384    -0.931341257389     1.007825032230
         H            2.501158854766     1.445327029384     0.533490742611     1.007825032230
         H            3.230104854766    -0.163236970616     0.648268742611     1.007825032230
         H            0.419626854766    -2.124910970616    -0.725765257389     1.007825032230
         H            1.459730854766    -2.215329970616     0.694858742611     1.007825032230
         H            2.174834854766    -1.908188970616    -0.889005257389     1.007825032230
         H            0.782149854766     2.476025029384    -0.552472257389     1.007825032230
         H            0.293897854766     2.362623029384     1.144647742611     1.007825032230
         H           -0.932774145234     2.402216029384    -0.130866257389     1.007825032230
         H           -2.321657145234    -1.590776970616     0.371664742611     1.007825032230

  Basis Set: AUG-CC-PVTZ
    Blend: AUG-CC-PVTZ
  Basis Set: (AUG-CC-PVTZ AUX)
    Blend: AUG-CC-PVTZ-JKFIT
	 Reference Energy          =    -382.8832266773764559 [Eh]
	 Singles Energy            =      -0.0000000000000000 [Eh]
	 Same-Spin Energy          =      -0.3902749836469289 [Eh]
	 Opposite-Spin Energy      =      -1.2651607276759465 [Eh]
	 Correlation Energy        =      -1.6554357113228755 [Eh]
	 Total Energy              =    -384.5386623886993220 [Eh]

	 ================> DF-SCS-MP2 Energies <==================
	-----------------------------------------------------------
	 SCS Same-Spin Scale       =       0.3333333333333333 [-]
	 SCS Opposite-Spin Scale   =       1.2000000000000000 [-]
	 SCS Same-Spin Energy      =      -0.1300916612156430 [Eh]
	 SCS Opposite-Spin Energy  =      -1.5181928732111356 [Eh]
	 SCS Correlation Energy    =      -1.6482845344267785 [Eh]
	 SCS Total Energy          =    -384.5315112118032062 [Eh]
	-----------------------------------------------------------

  Dipole Moment: [D]
     X:     1.9160      Y:    -0.9726      Z:     0.4733     Total:     2.2002

*** Psi4 exiting successfully. Buy a developer a beer!
