                               Psi4 1.4a3.dev225

  ==> Input File <==

--------------------------------------------------------------------------
#psi4
#
memory 32 gb

molecule  {
0 1
  O       -1.4489980    -1.3596060     0.4723610
  O       -2.3691670     0.4939580    -0.4217430
  C        1.1232274    -0.2074694     0.1165146
  C       -0.0105280     0.5069120     0.0326710
  C        2.4766970     0.4535350     0.0627600
  C        1.2313970    -1.7075980    -0.2583110
  C       -0.0156040     2.0162910     0.1296940
  C       -1.3701120    -0.0899940    -0.0219250
  H        2.9277060     0.5711490    -0.9308000
  H        2.4285750     1.4356710     0.5340320
  H        3.1575210    -0.1728930     0.6488100
  H        0.3470430    -2.1345670    -0.7252240
  H        1.3871470    -2.2249860     0.6954000
  H        2.1022510    -1.9178450    -0.8884640
  H        0.7095660     2.4663690    -0.5519310
  H        0.2213140     2.3529670     1.1451890
  H       -1.0053580     2.3925600    -0.1303250
  H       -2.3942410    -1.6004330     0.3722060
units angstrom
no_reorient  #important for SAPT in psi4, default
symmetry c1  #important for SAPT in psi4, default
}

set PROPERTIES_ORIGIN ["COM"]
properties('MP2/aug-cc-pvtz', properties = ['dipole'])
--------------------------------------------------------------------------

    Molecular point group: c1
  Charge       = 0
  Multiplicity = 1
  Basis Set: AUG-CC-PVTZ
    Blend: AUG-CC-PVTZ
  Basis Set: (AUG-CC-PVTZ AUX)
    Blend: AUG-CC-PVTZ-JKFIT

    Orbital Energies [Eh]
    ---------------------

    Doubly Occupied:

       1A    -20.609093     2A    -20.543135     3A    -11.386055
       4A    -11.267940     5A    -11.244247     6A    -11.234139
       7A    -11.229157     8A    -11.219822     9A     -1.453716
      10A     -1.347464    11A     -1.123424    12A     -1.012626
      13A     -0.953078    14A     -0.909092    15A     -0.835649
      16A     -0.735257    17A     -0.699978    18A     -0.660100
      19A     -0.633957    20A     -0.610896    21A     -0.597182
      22A     -0.588289    23A     -0.563578    24A     -0.552821
      25A     -0.545108    26A     -0.542097    27A     -0.513669
      28A     -0.481506    29A     -0.477012    30A     -0.447199
      31A     -0.355211

  @DF-RHF Final Energy:  -382.88941273087346

   => Energetics <=

    Nuclear Repulsion Energy =            378.5790972833327714
    One-Electron Energy =               -1272.1920276099190232
    Two-Electron Energy =                 510.7235175957127922
    Total Energy =                       -382.8894127308734596
  Basis Set: (AUG-CC-PVTZ AUX)
    Blend: AUG-CC-PVTZ-RI
    Molecular point group: c1

    Geometry (in Angstrom), charge = 0, multiplicity = 1:

       Center              X                  Y                   Z               Mass
    ------------   -----------------  -----------------  -----------------  -----------------
         O           -1.362282705303    -1.350762903146     0.457311317495    15.994914619570
         O           -2.282451705303     0.502801096854    -0.436792682505    15.994914619570
         C            1.209942694697    -0.198626303146     0.101464917495    12.000000000000
         C            0.076187294697     0.515755096854     0.017621317495    12.000000000000
         C            2.563412294697     0.462378096854     0.047710317495    12.000000000000
         C            1.318112294697    -1.698754903146    -0.273360682505    12.000000000000
         C            0.071111294697     2.025134096854     0.114644317495    12.000000000000
         C           -1.283396705303    -0.081150903146    -0.036974682505    12.000000000000
         H            3.014421294697     0.579992096854    -0.945849682505     1.007825032230
         H            2.515290294697     1.444514096854     0.518982317495     1.007825032230
         H            3.244236294697    -0.164049903146     0.633760317495     1.007825032230
         H            0.433758294697    -2.125723903146    -0.740273682505     1.007825032230
         H            1.473862294697    -2.216142903146     0.680350317495     1.007825032230
         H            2.188966294697    -1.909001903146    -0.903513682505     1.007825032230
         H            0.796281294697     2.475212096854    -0.566980682505     1.007825032230
         H            0.308029294697     2.361810096854     1.130139317495     1.007825032230
         H           -0.918642705303     2.401403096854    -0.145374682505     1.007825032230
         H           -2.307525705303    -1.591589903146     0.357156317495     1.007825032230

  Basis Set: AUG-CC-PVTZ
    Blend: AUG-CC-PVTZ
  Basis Set: (AUG-CC-PVTZ AUX)
    Blend: AUG-CC-PVTZ-JKFIT
	 Reference Energy          =    -382.8894127308734596 [Eh]
	 Singles Energy            =      -0.0000000000000000 [Eh]
	 Same-Spin Energy          =      -0.3881924499888520 [Eh]
	 Opposite-Spin Energy      =      -1.2615219091848713 [Eh]
	 Correlation Energy        =      -1.6497143591737233 [Eh]
	 Total Energy              =    -384.5391270900472023 [Eh]

	 ================> DF-SCS-MP2 Energies <==================
	-----------------------------------------------------------
	 SCS Same-Spin Scale       =       0.3333333333333333 [-]
	 SCS Opposite-Spin Scale   =       1.2000000000000000 [-]
	 SCS Same-Spin Energy      =      -0.1293974833296173 [Eh]
	 SCS Opposite-Spin Energy  =      -1.5138262910218454 [Eh]
	 SCS Correlation Energy    =      -1.6432237743514628 [Eh]
	 SCS Total Energy          =    -384.5326365052249002 [Eh]
	-----------------------------------------------------------

  Dipole Moment: [D]
     X:     2.0377      Y:    -0.8319      Z:     0.3759     Total:     2.2328

*** Psi4 exiting successfully. Buy a developer a beer!
