                               Psi4 1.4a3.dev225

  ==> Input File <==

--------------------------------------------------------------------------
#psi4
#
memory 32 gb

molecule  {
0 1
  O       -1.4489980    -1.3596060     0.4723610
  O       -2.3691670     0.4939580    -0.4217430
  C        1.1321160    -0.2196140    -0.0405290
  C       -0.0105280     0.5069120     0.0326710
  C        2.4766970     0.4535350     0.0627600
  C        1.2313970    -1.7075980    -0.2583110
  C       -0.0156040     2.0162910     0.1296940
  C       -1.3701120    -0.0899940    -0.0219250
  H        2.9482540     0.5765075    -0.9760666
  H        2.4285750     1.4356710     0.5340320
  H        3.1575210    -0.1728930     0.6488100
  H        0.3470430    -2.1345670    -0.7252240
  H        1.3871470    -2.2249860     0.6954000
  H        2.1022510    -1.9178450    -0.8884640
  H        0.7095660     2.4663690    -0.5519310
  H        0.2213140     2.3529670     1.1451890
  H       -1.0053580     2.3925600    -0.1303250
  H       -2.3942410    -1.6004330     0.3722060
units angstrom
no_reorient  #important for SAPT in psi4, default
symmetry c1  #important for SAPT in psi4, default
}

set PROPERTIES_ORIGIN ["COM"]
properties('MP2/aug-cc-pvtz', properties = ['dipole'])
--------------------------------------------------------------------------

    Molecular point group: c1
  Charge       = 0
  Multiplicity = 1
  Basis Set: AUG-CC-PVTZ
    Blend: AUG-CC-PVTZ
  Basis Set: (AUG-CC-PVTZ AUX)
    Blend: AUG-CC-PVTZ-JKFIT

    Orbital Energies [Eh]
    ---------------------

    Doubly Occupied:

       1A    -20.608631     2A    -20.541553     3A    -11.384626
       4A    -11.268906     5A    -11.243032     6A    -11.240261
       7A    -11.228308     8A    -11.219557     9A     -1.452847
      10A     -1.346327    11A     -1.123141    12A     -1.014728
      13A     -0.953943    14A     -0.908884    15A     -0.831834
      16A     -0.733796    17A     -0.699402    18A     -0.662939
      19A     -0.634517    20A     -0.608843    21A     -0.599282
      22A     -0.586437    23A     -0.563298    24A     -0.548293
      25A     -0.544093    26A     -0.542296    27A     -0.513979
      28A     -0.492996    29A     -0.475719    30A     -0.447335
      31A     -0.350196

  @DF-RHF Final Energy:  -382.89747769342279

   => Energetics <=

    Nuclear Repulsion Energy =            378.4679271860255767
    One-Electron Energy =               -1271.9908082687973092
    Two-Electron Energy =                 510.6254033893489463
    Total Energy =                       -382.8974776934227862
  Basis Set: (AUG-CC-PVTZ AUX)
    Blend: AUG-CC-PVTZ-RI
    Molecular point group: c1

    Geometry (in Angstrom), charge = 0, multiplicity = 1:

       Center              X                  Y                   Z               Mass
    ------------   -----------------  -----------------  -----------------  -----------------
         O           -1.363399336610    -1.349532631100     0.474232300298    15.994914619570
         O           -2.283568336610     0.504031368900    -0.419871699702    15.994914619570
         C            1.217714663390    -0.209540631100    -0.038657699702    12.000000000000
         C            0.075070663390     0.516985368900     0.034542300298    12.000000000000
         C            2.562295663390     0.463608368900     0.064631300298    12.000000000000
         C            1.316995663390    -1.697524631100    -0.256439699702    12.000000000000
         C            0.069994663390     2.026364368900     0.131565300298    12.000000000000
         C           -1.284513336610    -0.079920631100    -0.020053699702    12.000000000000
         H            3.033852663390     0.586580868900    -0.974195299702     1.007825032230
         H            2.514173663390     1.445744368900     0.535903300298     1.007825032230
         H            3.243119663390    -0.162819631100     0.650681300298     1.007825032230
         H            0.432641663390    -2.124493631100    -0.723352699702     1.007825032230
         H            1.472745663390    -2.214912631100     0.697271300298     1.007825032230
         H            2.187849663390    -1.907771631100    -0.886592699702     1.007825032230
         H            0.795164663390     2.476442368900    -0.550059699702     1.007825032230
         H            0.306912663390     2.363040368900     1.147060300298     1.007825032230
         H           -0.919759336610     2.402633368900    -0.128453699702     1.007825032230
         H           -2.308642336610    -1.590359631100     0.374077300298     1.007825032230

  Basis Set: AUG-CC-PVTZ
    Blend: AUG-CC-PVTZ
  Basis Set: (AUG-CC-PVTZ AUX)
    Blend: AUG-CC-PVTZ-JKFIT
	 Reference Energy          =    -382.8974776934227862 [Eh]
	 Singles Energy            =      -0.0000000000000000 [Eh]
	 Same-Spin Energy          =      -0.3880710295816374 [Eh]
	 Opposite-Spin Energy      =      -1.2608183327728288 [Eh]
	 Correlation Energy        =      -1.6488893623544663 [Eh]
	 Total Energy              =    -384.5463670557772389 [Eh]

	 ================> DF-SCS-MP2 Energies <==================
	-----------------------------------------------------------
	 SCS Same-Spin Scale       =       0.3333333333333333 [-]
	 SCS Opposite-Spin Scale   =       1.2000000000000000 [-]
	 SCS Same-Spin Energy      =      -0.1293570098605458 [Eh]
	 SCS Opposite-Spin Energy  =      -1.5129819993273945 [Eh]
	 SCS Correlation Energy    =      -1.6423390091879404 [Eh]
	 SCS Total Energy          =    -384.5398167026107217 [Eh]
	-----------------------------------------------------------

  Dipole Moment: [D]
     X:     2.0933      Y:    -0.9179      Z:     0.4836     Total:     2.3362

*** Psi4 exiting successfully. Buy a developer a beer!
