                               Psi4 1.4a3.dev225

  ==> Input File <==

--------------------------------------------------------------------------
#psi4
#
memory 32 gb

molecule  {
0 1
  O       -1.4489980    -1.3596060     0.4723610
  O       -2.3691670     0.4939580    -0.4217430
  C        1.1321160    -0.2196140    -0.0405290
  C       -0.0105280     0.5069120     0.0326710
  C        2.4766970     0.4535350     0.0627600
  C        1.2313970    -1.7075980    -0.2583110
  C       -0.0156040     2.0162910     0.1296940
  C       -1.3701120    -0.0899940    -0.0219250
  H        2.9277060     0.5711490    -0.9308000
  H        2.4285750     1.4356710     0.5340320
  H        3.1575210    -0.1728930     0.6488100
  H        0.3470430    -2.1345670    -0.7252240
  H        1.4867604    -2.2620054     0.6521477
  H        2.1022510    -1.9178450    -0.8884640
  H        0.7095660     2.4663690    -0.5519310
  H        0.2213140     2.3529670     1.1451890
  H       -1.0053580     2.3925600    -0.1303250
  H       -2.3942410    -1.6004330     0.3722060
units angstrom
no_reorient  #important for SAPT in psi4, default
symmetry c1  #important for SAPT in psi4, default
}

set PROPERTIES_ORIGIN ["COM"]
properties('MP2/aug-cc-pvtz', properties = ['dipole'])
--------------------------------------------------------------------------

    Molecular point group: c1
  Charge       = 0
  Multiplicity = 1
  Basis Set: AUG-CC-PVTZ
    Blend: AUG-CC-PVTZ
  Basis Set: (AUG-CC-PVTZ AUX)
    Blend: AUG-CC-PVTZ-JKFIT

    Orbital Energies [Eh]
    ---------------------

    Doubly Occupied:

       1A    -20.608273     2A    -20.541539     3A    -11.384572
       4A    -11.269152     5A    -11.243337     6A    -11.234392
       7A    -11.228388     8A    -11.219685     9A     -1.452617
      10A     -1.346192    11A     -1.123379    12A     -1.015560
      13A     -0.956353    14A     -0.909356    15A     -0.833311
      16A     -0.734220    17A     -0.699187    18A     -0.663043
      19A     -0.636245    20A     -0.608352    21A     -0.598803
      22A     -0.590972    23A     -0.562611    24A     -0.548688
      25A     -0.547109    26A     -0.540866    27A     -0.515258
      28A     -0.492695    29A     -0.475535    30A     -0.447292
      31A     -0.350686

  @DF-RHF Final Energy:  -382.89838459956820

   => Energetics <=

    Nuclear Repulsion Energy =            378.5496127722684037
    One-Electron Energy =               -1272.1406598398721144
    Two-Electron Energy =                 510.6926624680355644
    Total Energy =                       -382.8983845995682032
  Basis Set: (AUG-CC-PVTZ AUX)
    Blend: AUG-CC-PVTZ-RI
    Molecular point group: c1

    Geometry (in Angstrom), charge = 0, multiplicity = 1:

       Center              X                  Y                   Z               Mass
    ------------   -----------------  -----------------  -----------------  -----------------
         O           -1.364097902674    -1.349158209890     0.474214503365    15.994914619570
         O           -2.284266902674     0.504405790110    -0.419889496635    15.994914619570
         C            1.217016097326    -0.209166209890    -0.038675496635    12.000000000000
         C            0.074372097326     0.517359790110     0.034524503365    12.000000000000
         C            2.561597097326     0.463982790110     0.064613503365    12.000000000000
         C            1.316297097326    -1.697150209890    -0.256457496635    12.000000000000
         C            0.069296097326     2.026738790110     0.131547503365    12.000000000000
         C           -1.285211902674    -0.079546209890    -0.020071496635    12.000000000000
         H            3.012606097326     0.581596790110    -0.928946496635     1.007825032230
         H            2.513475097326     1.446118790110     0.535885503365     1.007825032230
         H            3.242421097326    -0.162445209890     0.650663503365     1.007825032230
         H            0.431943097326    -2.124119209890    -0.723370496635     1.007825032230
         H            1.571660497326    -2.251557609890     0.654001203365     1.007825032230
         H            2.187151097326    -1.907397209890    -0.886610496635     1.007825032230
         H            0.794466097326     2.476816790110    -0.550077496635     1.007825032230
         H            0.306214097326     2.363414790110     1.147042503365     1.007825032230
         H           -0.920457902674     2.403007790110    -0.128471496635     1.007825032230
         H           -2.309340902674    -1.589985209890     0.374059503365     1.007825032230

  Basis Set: AUG-CC-PVTZ
    Blend: AUG-CC-PVTZ
  Basis Set: (AUG-CC-PVTZ AUX)
    Blend: AUG-CC-PVTZ-JKFIT
	 Reference Energy          =    -382.8983845995682032 [Eh]
	 Singles Energy            =      -0.0000000000000000 [Eh]
	 Same-Spin Energy          =      -0.3881003022828637 [Eh]
	 Opposite-Spin Energy      =      -1.2605378421870539 [Eh]
	 Correlation Energy        =      -1.6486381444699176 [Eh]
	 Total Energy              =    -384.5470227440381450 [Eh]

	 ================> DF-SCS-MP2 Energies <==================
	-----------------------------------------------------------
	 SCS Same-Spin Scale       =       0.3333333333333333 [-]
	 SCS Opposite-Spin Scale   =       1.2000000000000000 [-]
	 SCS Same-Spin Energy      =      -0.1293667674276212 [Eh]
	 SCS Opposite-Spin Energy  =      -1.5126454106244647 [Eh]
	 SCS Correlation Energy    =      -1.6420121780520860 [Eh]
	 SCS Total Energy          =    -384.5403967776202876 [Eh]
	-----------------------------------------------------------

  Dipole Moment: [D]
     X:     2.1428      Y:    -0.9186      Z:     0.4617     Total:     2.3767

*** Psi4 exiting successfully. Buy a developer a beer!
