                               Psi4 1.4a3.dev225

  ==> Input File <==

--------------------------------------------------------------------------
#psi4
#
memory 32 gb

molecule  {
0 1
  O       -1.4489980    -1.3596060     0.4723610
  O       -2.3691670     0.4939580    -0.4217430
  C        1.1321160    -0.2196140    -0.0405290
  C       -0.0105280     0.5069120     0.0326710
  C        2.4766970     0.4535350     0.0627600
  C        1.2313970    -1.7075980    -0.2583110
  C       -0.0156040     2.0162910     0.1296940
  C       -1.3884124    -0.0980285    -0.0226599
  H        2.9277060     0.5711490    -0.9308000
  H        2.4285750     1.4356710     0.5340320
  H        3.1575210    -0.1728930     0.6488100
  H        0.3470430    -2.1345670    -0.7252240
  H        1.3871470    -2.2249860     0.6954000
  H        2.1022510    -1.9178450    -0.8884640
  H        0.7095660     2.4663690    -0.5519310
  H        0.2213140     2.3529670     1.1451890
  H       -1.0053580     2.3925600    -0.1303250
  H       -2.3942410    -1.6004330     0.3722060
units angstrom
no_reorient  #important for SAPT in psi4, default
symmetry c1  #important for SAPT in psi4, default
}

set PROPERTIES_ORIGIN ["COM"]
properties('MP2/aug-cc-pvtz', properties = ['dipole'])
--------------------------------------------------------------------------

    Molecular point group: c1
  Charge       = 0
  Multiplicity = 1
  Basis Set: AUG-CC-PVTZ
    Blend: AUG-CC-PVTZ
  Basis Set: (AUG-CC-PVTZ AUX)
    Blend: AUG-CC-PVTZ-JKFIT

    Orbital Energies [Eh]
    ---------------------

    Doubly Occupied:

       1A    -20.611080     2A    -20.543224     3A    -11.384042
       4A    -11.265510     5A    -11.242435     6A    -11.232889
       7A    -11.227160     8A    -11.218581     9A     -1.459109
      10A     -1.354429    11A     -1.120411    12A     -1.012581
      13A     -0.954710    14A     -0.906453    15A     -0.832117
      16A     -0.733413    17A     -0.702973    18A     -0.662103
      19A     -0.637123    20A     -0.612745    21A     -0.600228
      22A     -0.587941    23A     -0.562465    24A     -0.549634
      25A     -0.546086    26A     -0.541608    27A     -0.512593
      28A     -0.492337    29A     -0.479381    30A     -0.446719
      31A     -0.348548

  @DF-RHF Final Energy:  -382.90041017394577

   => Energetics <=

    Nuclear Repulsion Energy =            378.6486550399779958
    One-Electron Energy =               -1272.3368762783375132
    Two-Electron Energy =                 510.7878110644138019
    Total Energy =                       -382.9004101739457724
  Basis Set: (AUG-CC-PVTZ AUX)
    Blend: AUG-CC-PVTZ-RI
    Molecular point group: c1

    Geometry (in Angstrom), charge = 0, multiplicity = 1:

       Center              X                  Y                   Z               Mass
    ------------   -----------------  -----------------  -----------------  -----------------
         O           -1.361292580805    -1.348640055098     0.473909668298    15.994914619570
         O           -2.281461580805     0.504923944902    -0.420194331702    15.994914619570
         C            1.219821419195    -0.208648055098    -0.038980331702    12.000000000000
         C            0.077177419195     0.517877944902     0.034219668298    12.000000000000
         C            2.564402419195     0.464500944902     0.064308668298    12.000000000000
         C            1.319102419195    -1.696632055098    -0.256762331702    12.000000000000
         C            0.072101419195     2.027256944902     0.131242668298    12.000000000000
         C           -1.300706980805    -0.087062555098    -0.021111231702    12.000000000000
         H            3.015411419195     0.582114944902    -0.929251331702     1.007825032230
         H            2.516280419195     1.446636944902     0.535580668298     1.007825032230
         H            3.245226419195    -0.161927055098     0.650358668298     1.007825032230
         H            0.434748419195    -2.123601055098    -0.723675331702     1.007825032230
         H            1.474852419195    -2.214020055098     0.696948668298     1.007825032230
         H            2.189956419195    -1.906879055098    -0.886915331702     1.007825032230
         H            0.797271419195     2.477334944902    -0.550382331702     1.007825032230
         H            0.309019419195     2.363932944902     1.146737668298     1.007825032230
         H           -0.917652580805     2.403525944902    -0.128776331702     1.007825032230
         H           -2.306535580805    -1.589467055098     0.373754668298     1.007825032230

  Basis Set: AUG-CC-PVTZ
    Blend: AUG-CC-PVTZ
  Basis Set: (AUG-CC-PVTZ AUX)
    Blend: AUG-CC-PVTZ-JKFIT
	 Reference Energy          =    -382.9004101739457724 [Eh]
	 Singles Energy            =      -0.0000000000000000 [Eh]
	 Same-Spin Energy          =      -0.3876611962719025 [Eh]
	 Opposite-Spin Energy      =      -1.2597599798604691 [Eh]
	 Correlation Energy        =      -1.6474211761323716 [Eh]
	 Total Energy              =    -384.5478313500781269 [Eh]

	 ================> DF-SCS-MP2 Energies <==================
	-----------------------------------------------------------
	 SCS Same-Spin Scale       =       0.3333333333333333 [-]
	 SCS Opposite-Spin Scale   =       1.2000000000000000 [-]
	 SCS Same-Spin Energy      =      -0.1292203987573008 [Eh]
	 SCS Opposite-Spin Energy  =      -1.5117119758325628 [Eh]
	 SCS Correlation Energy    =      -1.6409323745898636 [Eh]
	 SCS Total Energy          =    -384.5413425485356242 [Eh]
	-----------------------------------------------------------

  Dipole Moment: [D]
     X:     1.9613      Y:    -0.9562      Z:     0.4690     Total:     2.2318

*** Psi4 exiting successfully. Buy a developer a beer!
