                               Psi4 1.4a3.dev225

  ==> Input File <==

--------------------------------------------------------------------------
#psi4
#
memory 32 gb

molecule  {
0 1
  O       -1.4489980    -1.3596060     0.4723610
  O       -2.3691670     0.4939580    -0.4217430
  C        1.1321160    -0.2196140    -0.0405290
  C       -0.0105280     0.5069120     0.0326710
  C        2.4766970     0.4535350     0.0627600
  C        1.2313970    -1.7075980    -0.2583110
  C       -0.0156040     2.0162910     0.1296940
  C       -1.3701120    -0.0899940    -0.0219250
  H        2.9277060     0.5711490    -0.9308000
  H        2.4285750     1.4356710     0.5340320
  H        3.1575210    -0.1728930     0.6488100
  H        0.3065882    -2.1079276    -0.6667925
  H        1.3871470    -2.2249860     0.6954000
  H        2.1022510    -1.9178450    -0.8884640
  H        0.7095660     2.4663690    -0.5519310
  H        0.2213140     2.3529670     1.1451890
  H       -1.0053580     2.3925600    -0.1303250
  H       -2.3942410    -1.6004330     0.3722060
units angstrom
no_reorient  #important for SAPT in psi4, default
symmetry c1  #important for SAPT in psi4, default
}

set PROPERTIES_ORIGIN ["COM"]
properties('MP2/aug-cc-pvtz', properties = ['dipole'])
--------------------------------------------------------------------------

    Molecular point group: c1
  Charge       = 0
  Multiplicity = 1
  Basis Set: AUG-CC-PVTZ
    Blend: AUG-CC-PVTZ
  Basis Set: (AUG-CC-PVTZ AUX)
    Blend: AUG-CC-PVTZ-JKFIT

    Orbital Energies [Eh]
    ---------------------

    Doubly Occupied:

       1A    -20.609181     2A    -20.541558     3A    -11.384666
       4A    -11.268217     5A    -11.242383     6A    -11.234148
       7A    -11.227809     8A    -11.219332     9A     -1.453358
      10A     -1.346605    11A     -1.123437    12A     -1.015251
      13A     -0.956796    14A     -0.908542    15A     -0.832747
      16A     -0.734207    17A     -0.700426    18A     -0.661914
      19A     -0.635719    20A     -0.610816    21A     -0.599890
      22A     -0.588839    23A     -0.562473    24A     -0.550518
      25A     -0.546067    26A     -0.543149    27A     -0.515324
      28A     -0.491218    29A     -0.476005    30A     -0.447287
      31A     -0.349971

  @DF-RHF Final Energy:  -382.89878220211040

   => Energetics <=

    Nuclear Repulsion Energy =            378.8316808684028274
    One-Electron Energy =               -1272.7052235723438116
    Two-Electron Energy =                 510.9747605018305876
    Total Energy =                       -382.8987822021103966
  Basis Set: (AUG-CC-PVTZ AUX)
    Blend: AUG-CC-PVTZ-RI
    Molecular point group: c1

    Geometry (in Angstrom), charge = 0, multiplicity = 1:

       Center              X                  Y                   Z               Mass
    ------------   -----------------  -----------------  -----------------  -----------------
         O           -1.362860358930    -1.349720654111     0.473316097085    15.994914619570
         O           -2.283029358930     0.503843345889    -0.420787902915    15.994914619570
         C            1.218253641070    -0.209728654111    -0.039573902915    12.000000000000
         C            0.075609641070     0.516797345889     0.033626097085    12.000000000000
         C            2.562834641070     0.463420345889     0.063715097085    12.000000000000
         C            1.317534641070    -1.697712654111    -0.257355902915    12.000000000000
         C            0.070533641070     2.026176345889     0.130649097085    12.000000000000
         C           -1.283974358930    -0.080108654111    -0.020969902915    12.000000000000
         H            3.013843641070     0.581034345889    -0.929844902915     1.007825032230
         H            2.514712641070     1.445556345889     0.534987097085     1.007825032230
         H            3.243658641070    -0.163007654111     0.649765097085     1.007825032230
         H            0.392725841070    -2.098042254111    -0.665837402915     1.007825032230
         H            1.473284641070    -2.215100654111     0.696355097085     1.007825032230
         H            2.188388641070    -1.907959654111    -0.887508902915     1.007825032230
         H            0.795703641070     2.476254345889    -0.550975902915     1.007825032230
         H            0.307451641070     2.362852345889     1.146144097085     1.007825032230
         H           -0.919220358930     2.402445345889    -0.129369902915     1.007825032230
         H           -2.308103358930    -1.590547654111     0.373161097085     1.007825032230

  Basis Set: AUG-CC-PVTZ
    Blend: AUG-CC-PVTZ
  Basis Set: (AUG-CC-PVTZ AUX)
    Blend: AUG-CC-PVTZ-JKFIT
	 Reference Energy          =    -382.8987822021103966 [Eh]
	 Singles Energy            =      -0.0000000000000000 [Eh]
	 Same-Spin Energy          =      -0.3882097993278595 [Eh]
	 Opposite-Spin Energy      =      -1.2606161051513194 [Eh]
	 Correlation Energy        =      -1.6488259044791789 [Eh]
	 Total Energy              =    -384.5476081065895642 [Eh]

	 ================> DF-SCS-MP2 Energies <==================
	-----------------------------------------------------------
	 SCS Same-Spin Scale       =       0.3333333333333333 [-]
	 SCS Opposite-Spin Scale   =       1.2000000000000000 [-]
	 SCS Same-Spin Energy      =      -0.1294032664426198 [Eh]
	 SCS Opposite-Spin Energy  =      -1.5127393261815831 [Eh]
	 SCS Correlation Energy    =      -1.6421425926242030 [Eh]
	 SCS Total Energy          =    -384.5409247947346216 [Eh]
	-----------------------------------------------------------

  Dipole Moment: [D]
     X:     2.0977      Y:    -0.9129      Z:     0.4910     Total:     2.3398

*** Psi4 exiting successfully. Buy a developer a beer!
