                               Psi4 1.4a3.dev225

  ==> Input File <==

--------------------------------------------------------------------------
#psi4
#
memory 32 gb

molecule  {
0 1
  O       -1.4489980    -1.3596060     0.4723610
  O       -2.3691670     0.4939580    -0.4217430
  C        1.1321160    -0.2196140    -0.0405290
  C       -0.0105280     0.5069120     0.0326710
  C        2.4766970     0.4535350     0.0627600
  C        1.2313970    -1.7075980    -0.2583110
  C       -0.0156040     2.0162910     0.1296940
  C       -1.3701120    -0.0899940    -0.0219250
  H        2.9277060     0.5711490    -0.9308000
  H        2.4285750     1.4356710     0.5340320
  H        3.1575210    -0.1728930     0.6488100
  H        0.3470430    -2.1345670    -0.7252240
  H        1.3197218    -2.1971296     0.7184544
  H        2.1022510    -1.9178450    -0.8884640
  H        0.7095660     2.4663690    -0.5519310
  H        0.2213140     2.3529670     1.1451890
  H       -1.0053580     2.3925600    -0.1303250
  H       -2.3942410    -1.6004330     0.3722060
units angstrom
no_reorient  #important for SAPT in psi4, default
symmetry c1  #important for SAPT in psi4, default
}

set PROPERTIES_ORIGIN ["COM"]
properties('MP2/aug-cc-pvtz', properties = ['dipole'])
--------------------------------------------------------------------------

    Molecular point group: c1
  Charge       = 0
  Multiplicity = 1
  Basis Set: AUG-CC-PVTZ
    Blend: AUG-CC-PVTZ
  Basis Set: (AUG-CC-PVTZ AUX)
    Blend: AUG-CC-PVTZ-JKFIT

    Orbital Energies [Eh]
    ---------------------

    Doubly Occupied:

       1A    -20.608612     2A    -20.541167     3A    -11.384249
       4A    -11.268248     5A    -11.242046     6A    -11.234406
       7A    -11.228350     8A    -11.219153     9A     -1.452703
      10A     -1.346086    11A     -1.123339    12A     -1.015217
      13A     -0.956836    14A     -0.908357    15A     -0.832365
      16A     -0.733822    17A     -0.699354    18A     -0.662693
      19A     -0.633833    20A     -0.611587    21A     -0.601135
      22A     -0.586275    23A     -0.563707    24A     -0.552564
      25A     -0.547144    26A     -0.541796    27A     -0.512306
      28A     -0.492561    29A     -0.475562    30A     -0.446981
      31A     -0.349881

  @DF-RHF Final Energy:  -382.89899500265642

   => Energetics <=

    Nuclear Repulsion Energy =            378.7830030674440991
    One-Electron Energy =               -1272.6193256962194482
    Two-Electron Energy =                 510.9373276261189858
    Total Energy =                       -382.8989950026564202
  Basis Set: (AUG-CC-PVTZ AUX)
    Blend: AUG-CC-PVTZ-RI
    Molecular point group: c1

    Geometry (in Angstrom), charge = 0, multiplicity = 1:

       Center              X                  Y                   Z               Mass
    ------------   -----------------  -----------------  -----------------  -----------------
         O           -1.362622067514    -1.349731406664     0.473628664168    15.994914619570
         O           -2.282791067514     0.503832593336    -0.420475335832    15.994914619570
         C            1.218491932486    -0.209739406664    -0.039261335832    12.000000000000
         C            0.075847932486     0.516786593336     0.033938664168    12.000000000000
         C            2.563072932486     0.463409593336     0.064027664168    12.000000000000
         C            1.317772932486    -1.697723406664    -0.257043335832    12.000000000000
         C            0.070771932486     2.026165593336     0.130961664168    12.000000000000
         C           -1.283736067514    -0.080119406664    -0.020657335832    12.000000000000
         H            3.014081932486     0.581023593336    -0.929532335832     1.007825032230
         H            2.514950932486     1.445545593336     0.535299664168     1.007825032230
         H            3.243896932486    -0.163018406664     0.650077664168     1.007825032230
         H            0.433418932486    -2.124692406664    -0.723956335832     1.007825032230
         H            1.406097732486    -2.187255006664     0.719722064168     1.007825032230
         H            2.188626932486    -1.907970406664    -0.887196335832     1.007825032230
         H            0.795941932486     2.476243593336    -0.550663335832     1.007825032230
         H            0.307689932486     2.362841593336     1.146456664168     1.007825032230
         H           -0.918982067514     2.402434593336    -0.129057335832     1.007825032230
         H           -2.307865067514    -1.590558406664     0.373473664168     1.007825032230

  Basis Set: AUG-CC-PVTZ
    Blend: AUG-CC-PVTZ
  Basis Set: (AUG-CC-PVTZ AUX)
    Blend: AUG-CC-PVTZ-JKFIT
	 Reference Energy          =    -382.8989950026564202 [Eh]
	 Singles Energy            =      -0.0000000000000000 [Eh]
	 Same-Spin Energy          =      -0.3880960684572395 [Eh]
	 Opposite-Spin Energy      =      -1.2605375449110363 [Eh]
	 Correlation Energy        =      -1.6486336133682760 [Eh]
	 Total Energy              =    -384.5476286160247241 [Eh]

	 ================> DF-SCS-MP2 Energies <==================
	-----------------------------------------------------------
	 SCS Same-Spin Scale       =       0.3333333333333333 [-]
	 SCS Opposite-Spin Scale   =       1.2000000000000000 [-]
	 SCS Same-Spin Energy      =      -0.1293653561524132 [Eh]
	 SCS Opposite-Spin Energy  =      -1.5126450538932434 [Eh]
	 SCS Correlation Energy    =      -1.6420104100456565 [Eh]
	 SCS Total Energy          =    -384.5410054127020771 [Eh]
	-----------------------------------------------------------

  Dipole Moment: [D]
     X:     2.0991      Y:    -0.9169      Z:     0.4655     Total:     2.3374

*** Psi4 exiting successfully. Buy a developer a beer!
