                               Psi4 1.4a3.dev225

  ==> Input File <==

--------------------------------------------------------------------------
#psi4
#
memory 32 gb

molecule  {
0 1
  O       -1.4489980    -1.3596060     0.4723610
  O       -2.3691670     0.4939580    -0.4217430
  C        1.1554852    -0.2606899    -0.0636453
  C       -0.0105280     0.5069120     0.0326710
  C        2.4766970     0.4535350     0.0627600
  C        1.2313970    -1.7075980    -0.2583110
  C       -0.0156040     2.0162910     0.1296940
  C       -1.3701120    -0.0899940    -0.0219250
  H        2.9277060     0.5711490    -0.9308000
  H        2.4285750     1.4356710     0.5340320
  H        3.1575210    -0.1728930     0.6488100
  H        0.3470430    -2.1345670    -0.7252240
  H        1.3871470    -2.2249860     0.6954000
  H        2.1022510    -1.9178450    -0.8884640
  H        0.7095660     2.4663690    -0.5519310
  H        0.2213140     2.3529670     1.1451890
  H       -1.0053580     2.3925600    -0.1303250
  H       -2.3942410    -1.6004330     0.3722060
units angstrom
no_reorient  #important for SAPT in psi4, default
symmetry c1  #important for SAPT in psi4, default
}

set PROPERTIES_ORIGIN ["COM"]
properties('MP2/aug-cc-pvtz', properties = ['dipole'])
--------------------------------------------------------------------------

    Molecular point group: c1
  Charge       = 0
  Multiplicity = 1
  Basis Set: AUG-CC-PVTZ
    Blend: AUG-CC-PVTZ
  Basis Set: (AUG-CC-PVTZ AUX)
    Blend: AUG-CC-PVTZ-JKFIT

    Orbital Energies [Eh]
    ---------------------

    Doubly Occupied:

       1A    -20.607271     2A    -20.539009     3A    -11.382166
       4A    -11.273960     5A    -11.246037     6A    -11.235306
       7A    -11.227821     8A    -11.219526     9A     -1.451151
      10A     -1.344374    11A     -1.121651    12A     -1.018999
      13A     -0.960658    14A     -0.907344    15A     -0.824898
      16A     -0.733134    17A     -0.698364    18A     -0.666306
      19A     -0.634182    20A     -0.610597    21A     -0.600638
      22A     -0.589957    23A     -0.563561    24A     -0.551792
      25A     -0.546667    26A     -0.541618    27A     -0.512954
      28A     -0.499888    29A     -0.473949    30A     -0.445509
      31A     -0.339905

  @DF-RHF Final Energy:  -382.89384305596286

   => Energetics <=

    Nuclear Repulsion Energy =            378.3697935532410952
    One-Electron Energy =               -1271.7888890489032292
    Two-Electron Energy =                 510.5252524396992158
    Total Energy =                       -382.8938430559628614
  Basis Set: (AUG-CC-PVTZ AUX)
    Blend: AUG-CC-PVTZ-RI
    Molecular point group: c1

    Geometry (in Angstrom), charge = 0, multiplicity = 1:

       Center              X                  Y                   Z               Mass
    ------------   -----------------  -----------------  -----------------  -----------------
         O           -1.365676236618    -1.345164088802     0.476264199040    15.994914619570
         O           -2.285845236618     0.508399911198    -0.417839800960    15.994914619570
         C            1.238806963382    -0.246247988802    -0.059742100960    12.000000000000
         C            0.072793763382     0.521353911198     0.036574199040    12.000000000000
         C            2.560018763382     0.467976911198     0.066663199040    12.000000000000
         C            1.314718763382    -1.693156088802    -0.254407800960    12.000000000000
         C            0.067717763382     2.030732911198     0.133597199040    12.000000000000
         C           -1.286790236618    -0.075552088802    -0.018021800960    12.000000000000
         H            3.011027763382     0.585590911198    -0.926896800960     1.007825032230
         H            2.511896763382     1.450112911198     0.537935199040     1.007825032230
         H            3.240842763382    -0.158451088802     0.652713199040     1.007825032230
         H            0.430364763382    -2.120125088802    -0.721320800960     1.007825032230
         H            1.470468763382    -2.210544088802     0.699303199040     1.007825032230
         H            2.185572763382    -1.903403088802    -0.884560800960     1.007825032230
         H            0.792887763382     2.480810911198    -0.548027800960     1.007825032230
         H            0.304635763382     2.367408911198     1.149092199040     1.007825032230
         H           -0.922036236618     2.407001911198    -0.126421800960     1.007825032230
         H           -2.310919236618    -1.585991088802     0.376109199040     1.007825032230

  Basis Set: AUG-CC-PVTZ
    Blend: AUG-CC-PVTZ
  Basis Set: (AUG-CC-PVTZ AUX)
    Blend: AUG-CC-PVTZ-JKFIT
	 Reference Energy          =    -382.8938430559628614 [Eh]
	 Singles Energy            =      -0.0000000000000000 [Eh]
	 Same-Spin Energy          =      -0.3890082375057798 [Eh]
	 Opposite-Spin Energy      =      -1.2617690840938287 [Eh]
	 Correlation Energy        =      -1.6507773215996084 [Eh]
	 Total Energy              =    -384.5446203775624667 [Eh]

	 ================> DF-SCS-MP2 Energies <==================
	-----------------------------------------------------------
	 SCS Same-Spin Scale       =       0.3333333333333333 [-]
	 SCS Opposite-Spin Scale   =       1.2000000000000000 [-]
	 SCS Same-Spin Energy      =      -0.1296694125019266 [Eh]
	 SCS Opposite-Spin Energy  =      -1.5141229009125945 [Eh]
	 SCS Correlation Energy    =      -1.6437923134145211 [Eh]
	 SCS Total Energy          =    -384.5376353693773694 [Eh]
	-----------------------------------------------------------

  Dipole Moment: [D]
     X:     2.1740      Y:    -0.9564      Z:     0.4760     Total:     2.4223

*** Psi4 exiting successfully. Buy a developer a beer!
