                               Psi4 1.4a3.dev225

  ==> Input File <==

--------------------------------------------------------------------------
#psi4
#
memory 32 gb

molecule  {
0 1
  O       -1.4489980    -1.3596060     0.4723610
  O       -2.3691670     0.4939580    -0.4217430
  C        1.1321160    -0.2196140    -0.0405290
  C       -0.0105280     0.5069120     0.0326710
  C        2.4766970     0.4535350     0.0627600
  C        1.2313970    -1.7075980    -0.2583110
  C       -0.0156040     2.0162910     0.1296940
  C       -1.3293117    -0.1138420    -0.0055969
  H        2.9277060     0.5711490    -0.9308000
  H        2.4285750     1.4356710     0.5340320
  H        3.1575210    -0.1728930     0.6488100
  H        0.3470430    -2.1345670    -0.7252240
  H        1.3871470    -2.2249860     0.6954000
  H        2.1022510    -1.9178450    -0.8884640
  H        0.7095660     2.4663690    -0.5519310
  H        0.2213140     2.3529670     1.1451890
  H       -1.0053580     2.3925600    -0.1303250
  H       -2.3942410    -1.6004330     0.3722060
units angstrom
no_reorient  #important for SAPT in psi4, default
symmetry c1  #important for SAPT in psi4, default
}

set PROPERTIES_ORIGIN ["COM"]
properties('MP2/aug-cc-pvtz', properties = ['dipole'])
--------------------------------------------------------------------------

    Molecular point group: c1
  Charge       = 0
  Multiplicity = 1
  Basis Set: AUG-CC-PVTZ
    Blend: AUG-CC-PVTZ
  Basis Set: (AUG-CC-PVTZ AUX)
    Blend: AUG-CC-PVTZ-JKFIT

    Orbital Energies [Eh]
    ---------------------

    Doubly Occupied:

       1A    -20.615016     2A    -20.530516     3A    -11.386343
       4A    -11.272673     5A    -11.243161     6A    -11.236488
       7A    -11.231581     8A    -11.220199     9A     -1.455834
      10A     -1.318136    11A     -1.128161    12A     -1.018638
      13A     -0.960582    14A     -0.914758    15A     -0.838668
      16A     -0.742833    17A     -0.697457    18A     -0.664360
      19A     -0.636235    20A     -0.606318    21A     -0.593658
      22A     -0.590369    23A     -0.564408    24A     -0.552026
      25A     -0.546755    26A     -0.544690    27A     -0.513985
      28A     -0.493274    29A     -0.460899    30A     -0.442093
      31A     -0.352148

  @DF-RHF Final Energy:  -382.89228525560918

   => Energetics <=

    Nuclear Repulsion Energy =            378.7873920322530807
    One-Electron Energy =               -1272.6148264193404884
    Two-Electron Energy =                 510.9351491314781697
    Total Energy =                       -382.8922852556091811
  Basis Set: (AUG-CC-PVTZ AUX)
    Blend: AUG-CC-PVTZ-RI
    Molecular point group: c1

    Geometry (in Angstrom), charge = 0, multiplicity = 1:

       Center              X                  Y                   Z               Mass
    ------------   -----------------  -----------------  -----------------  -----------------
         O           -1.367509994150    -1.346976469626     0.472114635009    15.994914619570
         O           -2.287678994150     0.506587530374    -0.421989364991    15.994914619570
         C            1.213604005850    -0.206984469626    -0.040775364991    12.000000000000
         C            0.070960005850     0.519541530374     0.032424635009    12.000000000000
         C            2.558185005850     0.466164530374     0.062513635009    12.000000000000
         C            1.312885005850    -1.694968469626    -0.258557364991    12.000000000000
         C            0.065884005850     2.028920530374     0.129447635009    12.000000000000
         C           -1.247823694150    -0.101212469626    -0.005843264991    12.000000000000
         H            3.009194005850     0.583778530374    -0.931046364991     1.007825032230
         H            2.510063005850     1.448300530374     0.533785635009     1.007825032230
         H            3.239009005850    -0.160263469626     0.648563635009     1.007825032230
         H            0.428531005850    -2.121937469626    -0.725470364991     1.007825032230
         H            1.468635005850    -2.212356469626     0.695153635009     1.007825032230
         H            2.183739005850    -1.905215469626    -0.888710364991     1.007825032230
         H            0.791054005850     2.478998530374    -0.552177364991     1.007825032230
         H            0.302802005850     2.365596530374     1.144942635009     1.007825032230
         H           -0.923869994150     2.405189530374    -0.130571364991     1.007825032230
         H           -2.312752994150    -1.587803469626     0.371959635009     1.007825032230

  Basis Set: AUG-CC-PVTZ
    Blend: AUG-CC-PVTZ
  Basis Set: (AUG-CC-PVTZ AUX)
    Blend: AUG-CC-PVTZ-JKFIT
	 Reference Energy          =    -382.8922852556091811 [Eh]
	 Singles Energy            =      -0.0000000000000000 [Eh]
	 Same-Spin Energy          =      -0.3891220338374728 [Eh]
	 Opposite-Spin Energy      =      -1.2621777398052643 [Eh]
	 Correlation Energy        =      -1.6512997736427371 [Eh]
	 Total Energy              =    -384.5435850292519149 [Eh]

	 ================> DF-SCS-MP2 Energies <==================
	-----------------------------------------------------------
	 SCS Same-Spin Scale       =       0.3333333333333333 [-]
	 SCS Opposite-Spin Scale   =       1.2000000000000000 [-]
	 SCS Same-Spin Energy      =      -0.1297073446124909 [Eh]
	 SCS Opposite-Spin Energy  =      -1.5146132877663170 [Eh]
	 SCS Correlation Energy    =      -1.6443206323788080 [Eh]
	 SCS Total Energy          =    -384.5366058879880029 [Eh]
	-----------------------------------------------------------

  Dipole Moment: [D]
     X:     2.4056      Y:    -1.1166      Z:     0.5909     Total:     2.7172

*** Psi4 exiting successfully. Buy a developer a beer!
