                               Psi4 1.4a3.dev225

  ==> Input File <==

--------------------------------------------------------------------------
#psi4
#
memory 32 gb

molecule  {
0 1
  O       -1.4489980    -1.3596060     0.4723610
  O       -2.3691670     0.4939580    -0.4217430
  C        1.1321160    -0.2196140    -0.0405290
  C       -0.0105280     0.5069120     0.0326710
  C        2.4766970     0.4535350     0.0627600
  C        1.2313970    -1.7075980    -0.2583110
  C       -0.0156040     2.0162910     0.1296940
  C       -1.3701120    -0.0899940    -0.0219250
  H        2.9277060     0.5711490    -0.9308000
  H        2.4285750     1.4356710     0.5340320
  H        3.1575210    -0.1728930     0.6488100
  H        0.3470430    -2.1345670    -0.7252240
  H        1.3871470    -2.2249860     0.6954000
  H        2.1022510    -1.9178450    -0.8884640
  H        0.7095660     2.4663690    -0.5519310
  H        0.2429352     2.3836921     1.2378631
  H       -1.0053580     2.3925600    -0.1303250
  H       -2.3942410    -1.6004330     0.3722060
units angstrom
no_reorient  #important for SAPT in psi4, default
symmetry c1  #important for SAPT in psi4, default
}

set PROPERTIES_ORIGIN ["COM"]
properties('MP2/aug-cc-pvtz', properties = ['dipole'])
--------------------------------------------------------------------------

    Molecular point group: c1
  Charge       = 0
  Multiplicity = 1
  Basis Set: AUG-CC-PVTZ
    Blend: AUG-CC-PVTZ
  Basis Set: (AUG-CC-PVTZ AUX)
    Blend: AUG-CC-PVTZ-JKFIT

    Orbital Energies [Eh]
    ---------------------

    Doubly Occupied:

       1A    -20.608909     2A    -20.541854     3A    -11.385004
       4A    -11.269363     5A    -11.243552     6A    -11.234455
       7A    -11.231333     8A    -11.228804     9A     -1.453128
      10A     -1.346627    11A     -1.123483    12A     -1.013737
      13A     -0.956519    14A     -0.903666    15A     -0.833001
      16A     -0.732986    17A     -0.699675    18A     -0.663258
      19A     -0.635259    20A     -0.609536    21A     -0.599821
      22A     -0.588158    23A     -0.554840    24A     -0.550538
      25A     -0.546751    26A     -0.535657    27A     -0.514949
      28A     -0.492136    29A     -0.475896    30A     -0.447689
      31A     -0.349655

  @DF-RHF Final Energy:  -382.89320486395803

   => Energetics <=

    Nuclear Repulsion Energy =            378.2556951544738126
    One-Electron Energy =               -1271.5573207442216699
    Two-Electron Energy =                 510.4084207257897674
    Total Energy =                       -382.8932048639580330
  Basis Set: (AUG-CC-PVTZ AUX)
    Blend: AUG-CC-PVTZ-RI
    Molecular point group: c1

    Geometry (in Angstrom), charge = 0, multiplicity = 1:

       Center              X                  Y                   Z               Mass
    ------------   -----------------  -----------------  -----------------  -----------------
         O           -1.363408818648    -1.349756752472     0.473013553642    15.994914619570
         O           -2.283577818648     0.503807247528    -0.421090446358    15.994914619570
         C            1.217705181352    -0.209764752472    -0.039876446358    12.000000000000
         C            0.075061181352     0.516761247528     0.033323553642    12.000000000000
         C            2.562286181352     0.463384247528     0.063412553642    12.000000000000
         C            1.316986181352    -1.697748752472    -0.257658446358    12.000000000000
         C            0.069985181352     2.026140247528     0.130346553642    12.000000000000
         C           -1.284522818648    -0.080144752472    -0.021272446358    12.000000000000
         H            3.013295181352     0.580998247528    -0.930147446358     1.007825032230
         H            2.514164181352     1.445520247528     0.534684553642     1.007825032230
         H            3.243110181352    -0.163043752472     0.649462553642     1.007825032230
         H            0.432632181352    -2.124717752472    -0.724571446358     1.007825032230
         H            1.472736181352    -2.215136752472     0.696052553642     1.007825032230
         H            2.187840181352    -1.907995752472    -0.887811446358     1.007825032230
         H            0.795155181352     2.476218247528    -0.551278446358     1.007825032230
         H            0.328524381352     2.393541347528     1.238515653642     1.007825032230
         H           -0.919768818648     2.402409247528    -0.129672446358     1.007825032230
         H           -2.308651818648    -1.590583752472     0.372858553642     1.007825032230

  Basis Set: AUG-CC-PVTZ
    Blend: AUG-CC-PVTZ
  Basis Set: (AUG-CC-PVTZ AUX)
    Blend: AUG-CC-PVTZ-JKFIT
	 Reference Energy          =    -382.8932048639580330 [Eh]
	 Singles Energy            =      -0.0000000000000000 [Eh]
	 Same-Spin Energy          =      -0.3880466880609164 [Eh]
	 Opposite-Spin Energy      =      -1.2611014934936104 [Eh]
	 Correlation Energy        =      -1.6491481815545268 [Eh]
	 Total Energy              =    -384.5423530455125842 [Eh]

	 ================> DF-SCS-MP2 Energies <==================
	-----------------------------------------------------------
	 SCS Same-Spin Scale       =       0.3333333333333333 [-]
	 SCS Opposite-Spin Scale   =       1.2000000000000000 [-]
	 SCS Same-Spin Energy      =      -0.1293488960203055 [Eh]
	 SCS Opposite-Spin Energy  =      -1.5133217921923325 [Eh]
	 SCS Correlation Energy    =      -1.6426706882126381 [Eh]
	 SCS Total Energy          =    -384.5358755521706939 [Eh]
	-----------------------------------------------------------

  Dipole Moment: [D]
     X:     2.1038      Y:    -0.9603      Z:     0.4202     Total:     2.3505

*** Psi4 exiting successfully. Buy a developer a beer!
