                               Psi4 1.4a3.dev225

  ==> Input File <==

--------------------------------------------------------------------------
#psi4
#
memory 32 gb

molecule  {
0 1
  O       -1.4489980    -1.3596060     0.4723610
  O       -2.3691670     0.4939580    -0.4217430
  C        1.1321160    -0.2196140    -0.0405290
  C       -0.0105280     0.5069120     0.0326710
  C        2.4766970     0.4535350     0.0627600
  C        1.2313970    -1.7075980    -0.2583110
  C       -0.0156040     2.0162910     0.1296940
  C       -1.2885114    -0.1376899     0.0107313
  H        2.9277060     0.5711490    -0.9308000
  H        2.4285750     1.4356710     0.5340320
  H        3.1575210    -0.1728930     0.6488100
  H        0.3470430    -2.1345670    -0.7252240
  H        1.3871470    -2.2249860     0.6954000
  H        2.1022510    -1.9178450    -0.8884640
  H        0.7095660     2.4663690    -0.5519310
  H        0.2213140     2.3529670     1.1451890
  H       -1.0053580     2.3925600    -0.1303250
  H       -2.3942410    -1.6004330     0.3722060
units angstrom
no_reorient  #important for SAPT in psi4, default
symmetry c1  #important for SAPT in psi4, default
}

set PROPERTIES_ORIGIN ["COM"]
properties('MP2/aug-cc-pvtz', properties = ['dipole'])
--------------------------------------------------------------------------

    Molecular point group: c1
  Charge       = 0
  Multiplicity = 1
  Basis Set: AUG-CC-PVTZ
    Blend: AUG-CC-PVTZ
  Basis Set: (AUG-CC-PVTZ AUX)
    Blend: AUG-CC-PVTZ-JKFIT

    Orbital Energies [Eh]
    ---------------------

    Doubly Occupied:

       1A    -20.620990     2A    -20.519378     3A    -11.387540
       4A    -11.276942     5A    -11.243620     6A    -11.238641
       7A    -11.234886     8A    -11.221074     9A     -1.463916
      10A     -1.287794    11A     -1.133138    12A     -1.022076
      13A     -0.964765    14A     -0.920485    15A     -0.844497
      16A     -0.753073    17A     -0.697420    18A     -0.666459
      19A     -0.639791    20A     -0.608761    21A     -0.593681
      22A     -0.581567    23A     -0.565622    24A     -0.554245
      25A     -0.548667    26A     -0.543129    27A     -0.513056
      28A     -0.494958    29A     -0.446261    30A     -0.432814
      31A     -0.353292

  @DF-RHF Final Energy:  -382.87855984196563

   => Energetics <=

    Nuclear Repulsion Energy =            378.9467202144934390
    One-Electron Energy =               -1272.9054821638389967
    Two-Electron Energy =                 511.0802021073799324
    Total Energy =                       -382.8785598419656253
  Basis Set: (AUG-CC-PVTZ AUX)
    Blend: AUG-CC-PVTZ-RI
    Molecular point group: c1

    Geometry (in Angstrom), charge = 0, multiplicity = 1:

       Center              X                  Y                   Z               Mass
    ------------   -----------------  -----------------  -----------------  -----------------
         O           -1.371802199312    -1.344467662595     0.470396902925    15.994914619570
         O           -2.291971199312     0.509096337405    -0.423707097075    15.994914619570
         C            1.209311800688    -0.204475662595    -0.042493097075    12.000000000000
         C            0.066667800688     0.522050337405     0.030706902925    12.000000000000
         C            2.553892800688     0.468673337405     0.060795902925    12.000000000000
         C            1.308592800688    -1.692459662595    -0.260275097075    12.000000000000
         C            0.061591800688     2.031429337405     0.127729902925    12.000000000000
         C           -1.211315599312    -0.122551562595     0.008767202925    12.000000000000
         H            3.004901800688     0.586287337405    -0.932764097075     1.007825032230
         H            2.505770800688     1.450809337405     0.532067902925     1.007825032230
         H            3.234716800688    -0.157754662595     0.646845902925     1.007825032230
         H            0.424238800688    -2.119428662595    -0.727188097075     1.007825032230
         H            1.464342800688    -2.209847662595     0.693435902925     1.007825032230
         H            2.179446800688    -1.902706662595    -0.890428097075     1.007825032230
         H            0.786761800688     2.481507337405    -0.553895097075     1.007825032230
         H            0.298509800688     2.368105337405     1.143224902925     1.007825032230
         H           -0.928162199312     2.407698337405    -0.132289097075     1.007825032230
         H           -2.317045199312    -1.585294662595     0.370241902925     1.007825032230

  Basis Set: AUG-CC-PVTZ
    Blend: AUG-CC-PVTZ
  Basis Set: (AUG-CC-PVTZ AUX)
    Blend: AUG-CC-PVTZ-JKFIT
	 Reference Energy          =    -382.8785598419656253 [Eh]
	 Singles Energy            =      -0.0000000000000000 [Eh]
	 Same-Spin Energy          =      -0.3902676064943861 [Eh]
	 Opposite-Spin Energy      =      -1.2639838005094739 [Eh]
	 Correlation Energy        =      -1.6542514070038599 [Eh]
	 Total Energy              =    -384.5328112489694945 [Eh]

	 ================> DF-SCS-MP2 Energies <==================
	-----------------------------------------------------------
	 SCS Same-Spin Scale       =       0.3333333333333333 [-]
	 SCS Opposite-Spin Scale   =       1.2000000000000000 [-]
	 SCS Same-Spin Energy      =      -0.1300892021647954 [Eh]
	 SCS Opposite-Spin Energy  =      -1.5167805606113687 [Eh]
	 SCS Correlation Energy    =      -1.6468697627761639 [Eh]
	 SCS Total Energy          =    -384.5254296047418165 [Eh]
	-----------------------------------------------------------

  Dipole Moment: [D]
     X:     2.6811      Y:    -1.3004      Z:     0.7073     Total:     3.0626

*** Psi4 exiting successfully. Buy a developer a beer!
