                               Psi4 1.4a3.dev225

  ==> Input File <==

--------------------------------------------------------------------------
#psi4
#
memory 32 gb

molecule  {
0 1
  O       -1.4489980    -1.3596060     0.4723610
  O       -2.3691670     0.4939580    -0.4217430
  C        1.1321160    -0.2196140    -0.0405290
  C       -0.0105280     0.5069120     0.0326710
  C        2.4766970     0.4535350     0.0627600
  C        1.2313970    -1.7075980    -0.2583110
  C       -0.0156040     2.0162910     0.1296940
  C       -1.1871076    -0.0096485    -0.0145762
  H        2.9277060     0.5711490    -0.9308000
  H        2.4285750     1.4356710     0.5340320
  H        3.1575210    -0.1728930     0.6488100
  H        0.3470430    -2.1345670    -0.7252240
  H        1.3871470    -2.2249860     0.6954000
  H        2.1022510    -1.9178450    -0.8884640
  H        0.7095660     2.4663690    -0.5519310
  H        0.2213140     2.3529670     1.1451890
  H       -1.0053580     2.3925600    -0.1303250
  H       -2.3942410    -1.6004330     0.3722060
units angstrom
no_reorient  #important for SAPT in psi4, default
symmetry c1  #important for SAPT in psi4, default
}

set PROPERTIES_ORIGIN ["COM"]
properties('MP2/aug-cc-pvtz', properties = ['dipole'])
--------------------------------------------------------------------------

    Molecular point group: c1
  Charge       = 0
  Multiplicity = 1
  Basis Set: AUG-CC-PVTZ
    Blend: AUG-CC-PVTZ
  Basis Set: (AUG-CC-PVTZ AUX)
    Blend: AUG-CC-PVTZ-JKFIT

    Orbital Energies [Eh]
    ---------------------

    Doubly Occupied:

       1A    -20.578854     2A    -20.516280     3A    -11.381508
       4A    -11.306368     5A    -11.252431     6A    -11.242554
       7A    -11.237247     8A    -11.228588     9A     -1.385217
      10A     -1.263403    11A     -1.160374    12A     -1.051222
      13A     -0.977651    14A     -0.931986    15A     -0.848875
      16A     -0.729766    17A     -0.684145    18A     -0.650750
      19A     -0.634057    20A     -0.610833    21A     -0.586311
      22A     -0.574089    23A     -0.568260    24A     -0.564157
      25A     -0.552500    26A     -0.538812    27A     -0.520782
      28A     -0.507255    29A     -0.441179    30A     -0.418532
      31A     -0.363297

  @DF-RHF Final Energy:  -382.82462935315232

   => Energetics <=

    Nuclear Repulsion Energy =            379.3457574436460504
    One-Electron Energy =               -1273.7262061185329003
    Two-Electron Energy =                 511.5558193217344751
    Total Energy =                       -382.8246293531523179
  Basis Set: (AUG-CC-PVTZ AUX)
    Blend: AUG-CC-PVTZ-RI
    Molecular point group: c1

    Geometry (in Angstrom), charge = 0, multiplicity = 1:

       Center              X                  Y                   Z               Mass
    ------------   -----------------  -----------------  -----------------  -----------------
         O           -1.382469912880    -1.357937660564     0.473059260363    15.994914619570
         O           -2.302638912880     0.495626339436    -0.421044739637    15.994914619570
         C            1.198644087120    -0.217945660564    -0.039830739637    12.000000000000
         C            0.056000087120     0.508580339436     0.033369260363    12.000000000000
         C            2.543225087120     0.455203339436     0.063458260363    12.000000000000
         C            1.297925087120    -1.705929660564    -0.257612739637    12.000000000000
         C            0.050924087120     2.017959339436     0.130392260363    12.000000000000
         C           -1.120579512880    -0.007980160564    -0.013877939637    12.000000000000
         H            2.994234087120     0.572817339436    -0.930101739637     1.007825032230
         H            2.495103087120     1.437339339436     0.534730260363     1.007825032230
         H            3.224049087120    -0.171224660564     0.649508260363     1.007825032230
         H            0.413571087120    -2.132898660564    -0.724525739637     1.007825032230
         H            1.453675087120    -2.223317660564     0.696098260363     1.007825032230
         H            2.168779087120    -1.916176660564    -0.887765739637     1.007825032230
         H            0.776094087120     2.468037339436    -0.551232739637     1.007825032230
         H            0.287842087120     2.354635339436     1.145887260363     1.007825032230
         H           -0.938829912880     2.394228339436    -0.129626739637     1.007825032230
         H           -2.327712912880    -1.598764660564     0.372904260363     1.007825032230

  Basis Set: AUG-CC-PVTZ
    Blend: AUG-CC-PVTZ
  Basis Set: (AUG-CC-PVTZ AUX)
    Blend: AUG-CC-PVTZ-JKFIT
	 Reference Energy          =    -382.8246293531523179 [Eh]
	 Singles Energy            =      -0.0000000000000000 [Eh]
	 Same-Spin Energy          =      -0.3940437655848112 [Eh]
	 Opposite-Spin Energy      =      -1.2712298890094147 [Eh]
	 Correlation Energy        =      -1.6652736545942259 [Eh]
	 Total Energy              =    -384.4899030077465341 [Eh]

	 ================> DF-SCS-MP2 Energies <==================
	-----------------------------------------------------------
	 SCS Same-Spin Scale       =       0.3333333333333333 [-]
	 SCS Opposite-Spin Scale   =       1.2000000000000000 [-]
	 SCS Same-Spin Energy      =      -0.1313479218616037 [Eh]
	 SCS Opposite-Spin Energy  =      -1.5254758668112975 [Eh]
	 SCS Correlation Energy    =      -1.6568237886729014 [Eh]
	 SCS Total Energy          =    -384.4814531418252272 [Eh]
	-----------------------------------------------------------

  Dipole Moment: [D]
     X:     3.6707      Y:    -0.4518      Z:     0.4155     Total:     3.7217

*** Psi4 exiting successfully. Buy a developer a beer!
