                               Psi4 1.4a3.dev225

  ==> Input File <==

--------------------------------------------------------------------------
#psi4
#
memory 32 gb

molecule  {
0 1
  O       -1.5892997    -1.3529824     0.4463413
  O       -2.3691670     0.4939580    -0.4217430
  C        1.1321160    -0.2196140    -0.0405290
  C       -0.0105280     0.5069120     0.0326710
  C        2.4766970     0.4535350     0.0627600
  C        1.2313970    -1.7075980    -0.2583110
  C       -0.0156040     2.0162910     0.1296940
  C       -1.3701120    -0.0899940    -0.0219250
  H        2.9277060     0.5711490    -0.9308000
  H        2.4285750     1.4356710     0.5340320
  H        3.1575210    -0.1728930     0.6488100
  H        0.3470430    -2.1345670    -0.7252240
  H        1.3871470    -2.2249860     0.6954000
  H        2.1022510    -1.9178450    -0.8884640
  H        0.7095660     2.4663690    -0.5519310
  H        0.2213140     2.3529670     1.1451890
  H       -1.0053580     2.3925600    -0.1303250
  H       -2.3942410    -1.6004330     0.3722060
units angstrom
no_reorient  #important for SAPT in psi4, default
symmetry c1  #important for SAPT in psi4, default
}

set PROPERTIES_ORIGIN ["COM"]
properties('MP2/aug-cc-pvtz', properties = ['dipole'])
--------------------------------------------------------------------------

    Molecular point group: c1
  Charge       = 0
  Multiplicity = 1
  Basis Set: AUG-CC-PVTZ
    Blend: AUG-CC-PVTZ
  Basis Set: (AUG-CC-PVTZ AUX)
    Blend: AUG-CC-PVTZ-JKFIT

    Orbital Energies [Eh]
    ---------------------

    Doubly Occupied:

       1A    -20.587194     2A    -20.534394     3A    -11.385108
       4A    -11.272526     5A    -11.248639     6A    -11.236822
       7A    -11.231537     8A    -11.222249     9A     -1.469985
      10A     -1.347629    11A     -1.127465    12A     -1.018649
      13A     -0.960929    14A     -0.918323    15A     -0.853537
      16A     -0.758483    17A     -0.694016    18A     -0.665011
      19A     -0.633704    20A     -0.607483    21A     -0.599967
      22A     -0.593050    23A     -0.565477    24A     -0.552383
      25A     -0.549098    26A     -0.545506    27A     -0.516552
      28A     -0.495334    29A     -0.471716    30A     -0.444328
      31A     -0.353544

  @DF-RHF Final Energy:  -382.88445329853550

   => Energetics <=

    Nuclear Repulsion Energy =            378.2489496714879920
    One-Electron Energy =               -1271.3455281008000384
    Two-Electron Energy =                 510.2121251307765988
    Total Energy =                       -382.8844532985355045
  Basis Set: (AUG-CC-PVTZ AUX)
    Blend: AUG-CC-PVTZ-RI
    Molecular point group: c1

    Geometry (in Angstrom), charge = 0, multiplicity = 1:

       Center              X                  Y                   Z               Mass
    ------------   -----------------  -----------------  -----------------  -----------------
         O           -1.483846029759    -1.343790465121     0.451461204716    15.994914619570
         O           -2.263713329759     0.503149934879    -0.416623095284    15.994914619570
         C            1.237569670241    -0.210422065121    -0.035409095284    12.000000000000
         C            0.094925670241     0.516103934879     0.037790904716    12.000000000000
         C            2.582150670241     0.462726934879     0.067879904716    12.000000000000
         C            1.336850670241    -1.698406065121    -0.253191095284    12.000000000000
         C            0.089849670241     2.025482934879     0.134813904716    12.000000000000
         C           -1.264658329759    -0.080802065121    -0.016805095284    12.000000000000
         H            3.033159670241     0.580340934879    -0.925680095284     1.007825032230
         H            2.534028670241     1.444862934879     0.539151904716     1.007825032230
         H            3.262974670241    -0.163701065121     0.653929904716     1.007825032230
         H            0.452496670241    -2.125375065121    -0.720104095284     1.007825032230
         H            1.492600670241    -2.215794065121     0.700519904716     1.007825032230
         H            2.207704670241    -1.908653065121    -0.883344095284     1.007825032230
         H            0.815019670241     2.475560934879    -0.546811095284     1.007825032230
         H            0.326767670241     2.362158934879     1.150308904716     1.007825032230
         H           -0.899904329759     2.401751934879    -0.125205095284     1.007825032230
         H           -2.288787329759    -1.591241065121     0.377325904716     1.007825032230

  Basis Set: AUG-CC-PVTZ
    Blend: AUG-CC-PVTZ
  Basis Set: (AUG-CC-PVTZ AUX)
    Blend: AUG-CC-PVTZ-JKFIT
	 Reference Energy          =    -382.8844532985355045 [Eh]
	 Singles Energy            =      -0.0000000000000000 [Eh]
	 Same-Spin Energy          =      -0.3853924262677883 [Eh]
	 Opposite-Spin Energy      =      -1.2551215589327263 [Eh]
	 Correlation Energy        =      -1.6405139852005146 [Eh]
	 Total Energy              =    -384.5249672837360322 [Eh]

	 ================> DF-SCS-MP2 Energies <==================
	-----------------------------------------------------------
	 SCS Same-Spin Scale       =       0.3333333333333333 [-]
	 SCS Opposite-Spin Scale   =       1.2000000000000000 [-]
	 SCS Same-Spin Energy      =      -0.1284641420892628 [Eh]
	 SCS Opposite-Spin Energy  =      -1.5061458707192714 [Eh]
	 SCS Correlation Energy    =      -1.6346100128085341 [Eh]
	 SCS Total Energy          =    -384.5190633113440413 [Eh]
	-----------------------------------------------------------

  Dipole Moment: [D]
     X:     2.4532      Y:    -0.8021      Z:     0.4518     Total:     2.6203

*** Psi4 exiting successfully. Buy a developer a beer!
