                               Psi4 1.4a3.dev225

  ==> Input File <==

--------------------------------------------------------------------------
#psi4
#
memory 32 gb

molecule  {
0 1
  O       -1.4489980    -1.3596060     0.4723610
  O       -2.3691670     0.4939580    -0.4217430
  C        1.2070221    -0.3401822    -0.1093880
  C       -0.0105280     0.5069120     0.0326710
  C        2.4766970     0.4535350     0.0627600
  C        1.2313970    -1.7075980    -0.2583110
  C       -0.0156040     2.0162910     0.1296940
  C       -1.3701120    -0.0899940    -0.0219250
  H        2.9277060     0.5711490    -0.9308000
  H        2.4285750     1.4356710     0.5340320
  H        3.1575210    -0.1728930     0.6488100
  H        0.3470430    -2.1345670    -0.7252240
  H        1.3871470    -2.2249860     0.6954000
  H        2.1022510    -1.9178450    -0.8884640
  H        0.7095660     2.4663690    -0.5519310
  H        0.2213140     2.3529670     1.1451890
  H       -1.0053580     2.3925600    -0.1303250
  H       -2.3942410    -1.6004330     0.3722060
units angstrom
no_reorient  #important for SAPT in psi4, default
symmetry c1  #important for SAPT in psi4, default
}

set PROPERTIES_ORIGIN ["COM"]
properties('MP2/aug-cc-pvtz', properties = ['dipole'])
--------------------------------------------------------------------------

    Molecular point group: c1
  Charge       = 0
  Multiplicity = 1
  Basis Set: AUG-CC-PVTZ
    Blend: AUG-CC-PVTZ
  Basis Set: (AUG-CC-PVTZ AUX)
    Blend: AUG-CC-PVTZ-JKFIT

    Orbital Energies [Eh]
    ---------------------

    Doubly Occupied:

       1A    -20.604660     2A    -20.534018     3A    -11.377466
       4A    -11.284884     5A    -11.251016     6A    -11.238320
       7A    -11.226961     8A    -11.219272     9A     -1.447829
      10A     -1.340527    11A     -1.125831    12A     -1.024764
      13A     -0.969607    14A     -0.903341    15A     -0.809393
      16A     -0.732099    17A     -0.697043    18A     -0.671404
      19A     -0.634118    20A     -0.615958    21A     -0.599927
      22A     -0.596532    23A     -0.564459    24A     -0.556654
      25A     -0.549185    26A     -0.540486    27A     -0.522192
      28A     -0.490750    29A     -0.469864    30A     -0.439669
      31A     -0.319421

  @DF-RHF Final Energy:  -382.86171535208052

   => Energetics <=

    Nuclear Repulsion Energy =            377.7971570128179337
    One-Electron Energy =               -1270.6024467149100019
    Two-Electron Energy =                 509.9435743500115450
    Total Energy =                       -382.8617153520805232
  Basis Set: (AUG-CC-PVTZ AUX)
    Blend: AUG-CC-PVTZ-RI
    Molecular point group: c1

    Geometry (in Angstrom), charge = 0, multiplicity = 1:

       Center              X                  Y                   Z               Mass
    ------------   -----------------  -----------------  -----------------  -----------------
         O           -1.371097935680    -1.336801472339     0.481076346330    15.994914619570
         O           -2.291266935680     0.516762527661    -0.413027653670    15.994914619570
         C            1.284922164320    -0.317377672339    -0.100672653670    12.000000000000
         C            0.067372064320     0.529716527661     0.041386346330    12.000000000000
         C            2.554597064320     0.476339527661     0.071475346330    12.000000000000
         C            1.309297064320    -1.684793472339    -0.249595653670    12.000000000000
         C            0.062296064320     2.039095527661     0.138409346330    12.000000000000
         C           -1.292211935680    -0.067189472339    -0.013209653670    12.000000000000
         H            3.005606064320     0.593953527661    -0.922084653670     1.007825032230
         H            2.506475064320     1.458475527661     0.542747346330     1.007825032230
         H            3.235421064320    -0.150088472339     0.657525346330     1.007825032230
         H            0.424943064320    -2.111762472339    -0.716508653670     1.007825032230
         H            1.465047064320    -2.202181472339     0.704115346330     1.007825032230
         H            2.180151064320    -1.895040472339    -0.879748653670     1.007825032230
         H            0.787466064320     2.489173527661    -0.543215653670     1.007825032230
         H            0.299214064320     2.375771527661     1.153904346330     1.007825032230
         H           -0.927457935680     2.415364527661    -0.121609653670     1.007825032230
         H           -2.316340935680    -1.577628472339     0.380921346330     1.007825032230

  Basis Set: AUG-CC-PVTZ
    Blend: AUG-CC-PVTZ
  Basis Set: (AUG-CC-PVTZ AUX)
    Blend: AUG-CC-PVTZ-JKFIT
	 Reference Energy          =    -382.8617153520805232 [Eh]
	 Singles Energy            =      -0.0000000000000000 [Eh]
	 Same-Spin Energy          =      -0.3917326744031758 [Eh]
	 Opposite-Spin Energy      =      -1.2657222619437456 [Eh]
	 Correlation Energy        =      -1.6574549363469213 [Eh]
	 Total Energy              =    -384.5191702884274605 [Eh]

	 ================> DF-SCS-MP2 Energies <==================
	-----------------------------------------------------------
	 SCS Same-Spin Scale       =       0.3333333333333333 [-]
	 SCS Opposite-Spin Scale   =       1.2000000000000000 [-]
	 SCS Same-Spin Energy      =      -0.1305775581343919 [Eh]
	 SCS Opposite-Spin Energy  =      -1.5188667143324948 [Eh]
	 SCS Correlation Energy    =      -1.6494442724668867 [Eh]
	 SCS Total Energy          =    -384.5111596245474175 [Eh]
	-----------------------------------------------------------

  Dipole Moment: [D]
     X:     2.2740      Y:    -1.0298      Z:     0.4961     Total:     2.5452

*** Psi4 exiting successfully. Buy a developer a beer!
