                               Psi4 1.4a3.dev225

  ==> Input File <==

--------------------------------------------------------------------------
#psi4
#
memory 32 gb

molecule  {
0 1
  O       -1.4489980    -1.3596060     0.4723610
  O       -2.3691670     0.4939580    -0.4217430
  C        1.1350347    -0.2209235    -0.0666393
  C       -0.0105280     0.5069120     0.0326710
  C        2.4766970     0.4535350     0.0627600
  C        1.2313970    -1.7075980    -0.2583110
  C       -0.0156040     2.0162910     0.1296940
  C       -1.3701120    -0.0899940    -0.0219250
  H        2.9277060     0.5711490    -0.9308000
  H        2.4285750     1.4356710     0.5340320
  H        3.1575210    -0.1728930     0.6488100
  H        0.3470430    -2.1345670    -0.7252240
  H        1.3871470    -2.2249860     0.6954000
  H        2.1022510    -1.9178450    -0.8884640
  H        0.7095660     2.4663690    -0.5519310
  H        0.2213140     2.3529670     1.1451890
  H       -1.0053580     2.3925600    -0.1303250
  H       -2.3942410    -1.6004330     0.3722060
units angstrom
no_reorient  #important for SAPT in psi4, default
symmetry c1  #important for SAPT in psi4, default
}

set PROPERTIES_ORIGIN ["COM"]
properties('MP2/aug-cc-pvtz', properties = ['dipole'])
--------------------------------------------------------------------------

    Molecular point group: c1
  Charge       = 0
  Multiplicity = 1
  Basis Set: AUG-CC-PVTZ
    Blend: AUG-CC-PVTZ
  Basis Set: (AUG-CC-PVTZ AUX)
    Blend: AUG-CC-PVTZ-JKFIT

    Orbital Energies [Eh]
    ---------------------

    Doubly Occupied:

       1A    -20.608455     2A    -20.541251     3A    -11.384300
       4A    -11.269023     5A    -11.243088     6A    -11.234417
       7A    -11.228167     8A    -11.219417     9A     -1.452610
      10A     -1.346068    11A     -1.122991    12A     -1.015730
      13A     -0.956921    14A     -0.908557    15A     -0.831972
      16A     -0.733925    17A     -0.699244    18A     -0.663116
      19A     -0.634832    20A     -0.609713    21A     -0.600659
      22A     -0.587891    23A     -0.563276    24A     -0.550348
      25A     -0.547215    26A     -0.542438    27A     -0.513383
      28A     -0.493703    29A     -0.475395    30A     -0.447146
      31A     -0.349133

  @DF-RHF Final Energy:  -382.89895865415542

   => Energetics <=

    Nuclear Repulsion Energy =            378.6347642700401366
    One-Electron Energy =               -1272.3186768459534051
    Two-Electron Energy =                 510.7849539217578467
    Total Energy =                       -382.8989586541554218
  Basis Set: (AUG-CC-PVTZ AUX)
    Blend: AUG-CC-PVTZ-RI
    Molecular point group: c1

    Geometry (in Angstrom), charge = 0, multiplicity = 1:

       Center              X                  Y                   Z               Mass
    ------------   -----------------  -----------------  -----------------  -----------------
         O           -1.363524837200    -1.349347527340     0.476579168838    15.994914619570
         O           -2.283693837200     0.504216472660    -0.417524831162    15.994914619570
         C            1.220507862800    -0.210665027340    -0.062421131162    12.000000000000
         C            0.074945162800     0.517170472660     0.036889168838    12.000000000000
         C            2.562170162800     0.463793472660     0.066978168838    12.000000000000
         C            1.316870162800    -1.697339527340    -0.254092831162    12.000000000000
         C            0.069869162800     2.026549472660     0.133912168838    12.000000000000
         C           -1.284638837200    -0.079735527340    -0.017706831162    12.000000000000
         H            3.013179162800     0.581407472660    -0.926581831162     1.007825032230
         H            2.514048162800     1.445929472660     0.538250168838     1.007825032230
         H            3.242994162800    -0.162634527340     0.653028168838     1.007825032230
         H            0.432516162800    -2.124308527340    -0.721005831162     1.007825032230
         H            1.472620162800    -2.214727527340     0.699618168838     1.007825032230
         H            2.187724162800    -1.907586527340    -0.884245831162     1.007825032230
         H            0.795039162800     2.476627472660    -0.547712831162     1.007825032230
         H            0.306787162800     2.363225472660     1.149407168838     1.007825032230
         H           -0.919884837200     2.402818472660    -0.126106831162     1.007825032230
         H           -2.308767837200    -1.590174527340     0.376424168838     1.007825032230

  Basis Set: AUG-CC-PVTZ
    Blend: AUG-CC-PVTZ
  Basis Set: (AUG-CC-PVTZ AUX)
    Blend: AUG-CC-PVTZ-JKFIT
	 Reference Energy          =    -382.8989586541554218 [Eh]
	 Singles Energy            =      -0.0000000000000000 [Eh]
	 Same-Spin Energy          =      -0.3881565092374829 [Eh]
	 Opposite-Spin Energy      =      -1.2606599091507564 [Eh]
	 Correlation Energy        =      -1.6488164183882392 [Eh]
	 Total Energy              =    -384.5477750725436863 [Eh]

	 ================> DF-SCS-MP2 Energies <==================
	-----------------------------------------------------------
	 SCS Same-Spin Scale       =       0.3333333333333333 [-]
	 SCS Opposite-Spin Scale   =       1.2000000000000000 [-]
	 SCS Same-Spin Energy      =      -0.1293855030791610 [Eh]
	 SCS Opposite-Spin Energy  =      -1.5127918909809077 [Eh]
	 SCS Correlation Energy    =      -1.6421773940600686 [Eh]
	 SCS Total Energy          =    -384.5411360482154919 [Eh]
	-----------------------------------------------------------

  Dipole Moment: [D]
     X:     2.1123      Y:    -0.9203      Z:     0.4827     Total:     2.3541

*** Psi4 exiting successfully. Buy a developer a beer!
