                               Psi4 1.4a3.dev225

  ==> Input File <==

--------------------------------------------------------------------------
#psi4
#
memory 32 gb

molecule  {
0 1
  O       -1.4489980    -1.3596060     0.4723610
  O       -2.3691670     0.4939580    -0.4217430
  C        1.1435975    -0.2402576    -0.0521047
  C       -0.0105280     0.5069120     0.0326710
  C        2.4766970     0.4535350     0.0627600
  C        1.2313970    -1.7075980    -0.2583110
  C       -0.0156040     2.0162910     0.1296940
  C       -1.3701120    -0.0899940    -0.0219250
  H        2.9277060     0.5711490    -0.9308000
  H        2.4285750     1.4356710     0.5340320
  H        3.1575210    -0.1728930     0.6488100
  H        0.3470430    -2.1345670    -0.7252240
  H        1.3871470    -2.2249860     0.6954000
  H        2.1022510    -1.9178450    -0.8884640
  H        0.7095660     2.4663690    -0.5519310
  H        0.2213140     2.3529670     1.1451890
  H       -1.0053580     2.3925600    -0.1303250
  H       -2.3942410    -1.6004330     0.3722060
units angstrom
no_reorient  #important for SAPT in psi4, default
symmetry c1  #important for SAPT in psi4, default
}

set PROPERTIES_ORIGIN ["COM"]
properties('MP2/aug-cc-pvtz', properties = ['dipole'])
--------------------------------------------------------------------------

    Molecular point group: c1
  Charge       = 0
  Multiplicity = 1
  Basis Set: AUG-CC-PVTZ
    Blend: AUG-CC-PVTZ
  Basis Set: (AUG-CC-PVTZ AUX)
    Blend: AUG-CC-PVTZ-JKFIT

    Orbital Energies [Eh]
    ---------------------

    Doubly Occupied:

       1A    -20.607877     2A    -20.540185     3A    -11.383288
       4A    -11.271239     5A    -11.244391     6A    -11.234793
       7A    -11.228079     8A    -11.219472     9A     -1.451920
      10A     -1.345267    11A     -1.122211    12A     -1.017187
      13A     -0.958555    14A     -0.908098    15A     -0.828822
      16A     -0.733536    17A     -0.698794    18A     -0.664604
      19A     -0.634420    20A     -0.610082    21A     -0.600518
      22A     -0.588823    23A     -0.563384    24A     -0.550966
      25A     -0.546697    26A     -0.542244    27A     -0.512844
      28A     -0.497230    29A     -0.474781    30A     -0.446450
      31A     -0.345109

  @DF-RHF Final Energy:  -382.89757885732877

   => Energetics <=

    Nuclear Repulsion Energy =            378.5241579357853539
    One-Electron Energy =               -1272.0997413926290847
    Two-Electron Energy =                 510.6780045995150203
    Total Energy =                       -382.8975788573287673
  Basis Set: (AUG-CC-PVTZ AUX)
    Blend: AUG-CC-PVTZ-RI
    Molecular point group: c1

    Geometry (in Angstrom), charge = 0, multiplicity = 1:

       Center              X                  Y                   Z               Mass
    ------------   -----------------  -----------------  -----------------  -----------------
         O           -1.364425646615    -1.347313573574     0.475050124072    15.994914619570
         O           -2.284594646615     0.506250426426    -0.419053875928    15.994914619570
         C            1.228169853385    -0.227965173574    -0.049415575928    12.000000000000
         C            0.074044353385     0.519204426426     0.035360124072    12.000000000000
         C            2.561269353385     0.465827426426     0.065449124072    12.000000000000
         C            1.315969353385    -1.695305573574    -0.255621875928    12.000000000000
         C            0.068968353385     2.028583426426     0.132383124072    12.000000000000
         C           -1.285539646615    -0.077701573574    -0.019235875928    12.000000000000
         H            3.012278353385     0.583441426426    -0.928110875928     1.007825032230
         H            2.513147353385     1.447963426426     0.536721124072     1.007825032230
         H            3.242093353385    -0.160600573574     0.651499124072     1.007825032230
         H            0.431615353385    -2.122274573574    -0.722534875928     1.007825032230
         H            1.471719353385    -2.212693573574     0.698089124072     1.007825032230
         H            2.186823353385    -1.905552573574    -0.885774875928     1.007825032230
         H            0.794138353385     2.478661426426    -0.549241875928     1.007825032230
         H            0.305886353385     2.365259426426     1.147878124072     1.007825032230
         H           -0.920785646615     2.404852426426    -0.127635875928     1.007825032230
         H           -2.309668646615    -1.588140573574     0.374895124072     1.007825032230

  Basis Set: AUG-CC-PVTZ
    Blend: AUG-CC-PVTZ
  Basis Set: (AUG-CC-PVTZ AUX)
    Blend: AUG-CC-PVTZ-JKFIT
	 Reference Energy          =    -382.8975788573287673 [Eh]
	 Singles Energy            =      -0.0000000000000000 [Eh]
	 Same-Spin Energy          =      -0.3884961170804742 [Eh]
	 Opposite-Spin Energy      =      -1.2610696018446235 [Eh]
	 Correlation Energy        =      -1.6495657189250976 [Eh]
	 Total Energy              =    -384.5471445762538565 [Eh]

	 ================> DF-SCS-MP2 Energies <==================
	-----------------------------------------------------------
	 SCS Same-Spin Scale       =       0.3333333333333333 [-]
	 SCS Opposite-Spin Scale   =       1.2000000000000000 [-]
	 SCS Same-Spin Energy      =      -0.1294987056934914 [Eh]
	 SCS Opposite-Spin Energy  =      -1.5132835222135481 [Eh]
	 SCS Correlation Energy    =      -1.6427822279070394 [Eh]
	 SCS Total Energy          =    -384.5403610852358156 [Eh]
	-----------------------------------------------------------

  Dipole Moment: [D]
     X:     2.1446      Y:    -0.9366      Z:     0.4712     Total:     2.3872

*** Psi4 exiting successfully. Buy a developer a beer!
