                               Psi4 1.4a3.dev225

  ==> Input File <==

--------------------------------------------------------------------------
#psi4
#
memory 32 gb

molecule  {
0 1
  O       -1.4489980    -1.3596060     0.4723610
  O       -2.3691670     0.4939580    -0.4217430
  C        1.1321160    -0.2196140    -0.0405290
  C       -0.0105280     0.5069120     0.0326710
  C        2.4766970     0.4535350     0.0627600
  C        1.2313970    -1.7075980    -0.2583110
  C       -0.0156040     2.0162910     0.1296940
  C       -1.3701120    -0.0899940    -0.0219250
  H        2.9277060     0.5711490    -0.9308000
  H        2.4285750     1.4356710     0.5340320
  H        3.1575210    -0.1728930     0.6488100
  H        0.3918063    -2.1591263    -0.7813808
  H        1.3871470    -2.2249860     0.6954000
  H        2.1022510    -1.9178450    -0.8884640
  H        0.7095660     2.4663690    -0.5519310
  H        0.2213140     2.3529670     1.1451890
  H       -1.0053580     2.3925600    -0.1303250
  H       -2.3942410    -1.6004330     0.3722060
units angstrom
no_reorient  #important for SAPT in psi4, default
symmetry c1  #important for SAPT in psi4, default
}

set PROPERTIES_ORIGIN ["COM"]
properties('MP2/aug-cc-pvtz', properties = ['dipole'])
--------------------------------------------------------------------------

    Molecular point group: c1
  Charge       = 0
  Multiplicity = 1
  Basis Set: AUG-CC-PVTZ
    Blend: AUG-CC-PVTZ
  Basis Set: (AUG-CC-PVTZ AUX)
    Blend: AUG-CC-PVTZ-JKFIT

    Orbital Energies [Eh]
    ---------------------

    Doubly Occupied:

       1A    -20.607858     2A    -20.541162     3A    -11.384177
       4A    -11.268882     5A    -11.242888     6A    -11.234550
       7A    -11.228726     8A    -11.219454     9A     -1.452079
      10A     -1.345741    11A     -1.123242    12A     -1.015419
      13A     -0.956369    14A     -0.908977    15A     -0.832755
      16A     -0.733816    17A     -0.698293    18A     -0.663748
      19A     -0.633819    20A     -0.609272    21A     -0.600861
      22A     -0.586950    23A     -0.564204    24A     -0.551739
      25A     -0.547452    26A     -0.540806    27A     -0.511996
      28A     -0.493442    29A     -0.475103    30A     -0.446985
      31A     -0.350696

  @DF-RHF Final Energy:  -382.89915579069793

   => Energetics <=

    Nuclear Repulsion Energy =            378.5413139853552593
    One-Electron Energy =               -1272.1380138452686879
    Two-Electron Energy =                 510.6975440692154962
    Total Energy =                       -382.8991557906979324
  Basis Set: (AUG-CC-PVTZ AUX)
    Blend: AUG-CC-PVTZ-RI
    Molecular point group: c1

    Geometry (in Angstrom), charge = 0, multiplicity = 1:

       Center              X                  Y                   Z               Mass
    ------------   -----------------  -----------------  -----------------  -----------------
         O           -1.363613285908    -1.349268298538     0.474328518418    15.994914619570
         O           -2.283782285908     0.504295701462    -0.419775481582    15.994914619570
         C            1.217500714092    -0.209276298538    -0.038561481582    12.000000000000
         C            0.074856714092     0.517249701462     0.034638518418    12.000000000000
         C            2.562081714092     0.463872701462     0.064727518418    12.000000000000
         C            1.316781714092    -1.697260298538    -0.256343481582    12.000000000000
         C            0.069780714092     2.026628701462     0.131661518418    12.000000000000
         C           -1.284727285908    -0.079656298538    -0.019957481582    12.000000000000
         H            3.013090714092     0.581486701462    -0.928832481582     1.007825032230
         H            2.513959714092     1.446008701462     0.535999518418     1.007825032230
         H            3.242905714092    -0.162555298538     0.650777518418     1.007825032230
         H            0.477191014092    -2.148788598538    -0.779413281582     1.007825032230
         H            1.472531714092    -2.214648298538     0.697367518418     1.007825032230
         H            2.187635714092    -1.907507298538    -0.886496481582     1.007825032230
         H            0.794950714092     2.476706701462    -0.549963481582     1.007825032230
         H            0.306698714092     2.363304701462     1.147156518418     1.007825032230
         H           -0.919973285908     2.402897701462    -0.128357481582     1.007825032230
         H           -2.308856285908    -1.590095298538     0.374173518418     1.007825032230

  Basis Set: AUG-CC-PVTZ
    Blend: AUG-CC-PVTZ
  Basis Set: (AUG-CC-PVTZ AUX)
    Blend: AUG-CC-PVTZ-JKFIT
	 Reference Energy          =    -382.8991557906979324 [Eh]
	 Singles Energy            =      -0.0000000000000000 [Eh]
	 Same-Spin Energy          =      -0.3879639358935176 [Eh]
	 Opposite-Spin Energy      =      -1.2604391986242982 [Eh]
	 Correlation Energy        =      -1.6484031345178158 [Eh]
	 Total Energy              =    -384.5475589252157533 [Eh]

	 ================> DF-SCS-MP2 Energies <==================
	-----------------------------------------------------------
	 SCS Same-Spin Scale       =       0.3333333333333333 [-]
	 SCS Opposite-Spin Scale   =       1.2000000000000000 [-]
	 SCS Same-Spin Energy      =      -0.1293213119645059 [Eh]
	 SCS Opposite-Spin Energy  =      -1.5125270383491578 [Eh]
	 SCS Correlation Energy    =      -1.6418483503136636 [Eh]
	 SCS Total Energy          =    -384.5410041410115696 [Eh]
	-----------------------------------------------------------

  Dipole Moment: [D]
     X:     2.1290      Y:    -0.9186      Z:     0.4419     Total:     2.3604

*** Psi4 exiting successfully. Buy a developer a beer!
