                               Psi4 1.4a3.dev225

  ==> Input File <==

--------------------------------------------------------------------------
#psi4
#
memory 32 gb

molecule  {
0 1
  O       -1.4489980    -1.3596060     0.4723610
  O       -2.3691670     0.4939580    -0.4217430
  C        1.1321160    -0.2196140    -0.0405290
  C       -0.0105280     0.5069120     0.0326710
  C        2.4766970     0.4535350     0.0627600
  C        1.2313970    -1.7075980    -0.2583110
  C       -0.0156040     2.0162910     0.1296940
  C       -1.3701120    -0.0899940    -0.0219250
  H        2.9277060     0.5711490    -0.9308000
  H        2.4285750     1.4356710     0.5340320
  H        3.1575210    -0.1728930     0.6488100
  H        0.3470430    -2.1345670    -0.7252240
  H        1.3871470    -2.2249860     0.6954000
  H        2.1022510    -1.9178450    -0.8884640
  H        0.7010233     2.4575992    -0.5665436
  H        0.2213140     2.3529670     1.1451890
  H       -1.0053580     2.3925600    -0.1303250
  H       -2.3942410    -1.6004330     0.3722060
units angstrom
no_reorient  #important for SAPT in psi4, default
symmetry c1  #important for SAPT in psi4, default
}

set PROPERTIES_ORIGIN ["COM"]
properties('MP2/aug-cc-pvtz', properties = ['dipole'])
--------------------------------------------------------------------------

    Molecular point group: c1
  Charge       = 0
  Multiplicity = 1
  Basis Set: AUG-CC-PVTZ
    Blend: AUG-CC-PVTZ
  Basis Set: (AUG-CC-PVTZ AUX)
    Blend: AUG-CC-PVTZ-JKFIT

    Orbital Energies [Eh]
    ---------------------

    Doubly Occupied:

       1A    -20.608401     2A    -20.541273     3A    -11.384292
       4A    -11.268480     5A    -11.242483     6A    -11.234324
       7A    -11.228293     8A    -11.219372     9A     -1.452602
      10A     -1.346073    11A     -1.123308    12A     -1.015348
      13A     -0.956488    14A     -0.908629    15A     -0.832663
      16A     -0.733734    17A     -0.699188    18A     -0.662717
      19A     -0.634691    20A     -0.609775    21A     -0.600359
      22A     -0.587849    23A     -0.564644    24A     -0.550430
      25A     -0.547017    26A     -0.541693    27A     -0.513722
      28A     -0.492294    29A     -0.475492    30A     -0.447050
      31A     -0.350414

  @DF-RHF Final Energy:  -382.89950840806796

   => Energetics <=

    Nuclear Repulsion Energy =            378.6959573410483131
    One-Electron Energy =               -1272.4447313291918817
    Two-Electron Energy =                 510.8492655800755529
    Total Energy =                       -382.8995084080679590
  Basis Set: (AUG-CC-PVTZ AUX)
    Blend: AUG-CC-PVTZ-RI
    Molecular point group: c1

    Geometry (in Angstrom), charge = 0, multiplicity = 1:

       Center              X                  Y                   Z               Mass
    ------------   -----------------  -----------------  -----------------  -----------------
         O           -1.363142311720    -1.349407803414     0.473961463192    15.994914619570
         O           -2.283311311720     0.504156196586    -0.420142536808    15.994914619570
         C            1.217971688280    -0.209415803414    -0.038928536808    12.000000000000
         C            0.075327688280     0.517110196586     0.034271463192    12.000000000000
         C            2.562552688280     0.463733196586     0.064360463192    12.000000000000
         C            1.317252688280    -1.697399803414    -0.256710536808    12.000000000000
         C            0.070251688280     2.026489196586     0.131294463192    12.000000000000
         C           -1.284256311720    -0.079795803414    -0.020324536808    12.000000000000
         H            3.013561688280     0.581347196586    -0.929199536808     1.007825032230
         H            2.514430688280     1.445869196586     0.535632463192     1.007825032230
         H            3.243376688280    -0.162694803414     0.650410463192     1.007825032230
         H            0.432898688280    -2.124368803414    -0.723623536808     1.007825032230
         H            1.473002688280    -2.214787803414     0.697000463192     1.007825032230
         H            2.188106688280    -1.907646803414    -0.886863536808     1.007825032230
         H            0.786878988280     2.467797396586    -0.564943136808     1.007825032230
         H            0.307169688280     2.363165196586     1.146789463192     1.007825032230
         H           -0.919502311720     2.402758196586    -0.128724536808     1.007825032230
         H           -2.308385311720    -1.590234803414     0.373806463192     1.007825032230

  Basis Set: AUG-CC-PVTZ
    Blend: AUG-CC-PVTZ
  Basis Set: (AUG-CC-PVTZ AUX)
    Blend: AUG-CC-PVTZ-JKFIT
	 Reference Energy          =    -382.8995084080679590 [Eh]
	 Singles Energy            =      -0.0000000000000000 [Eh]
	 Same-Spin Energy          =      -0.3880551770933542 [Eh]
	 Opposite-Spin Energy      =      -1.2605008679646776 [Eh]
	 Correlation Energy        =      -1.6485560450580319 [Eh]
	 Total Energy              =    -384.5480644531260168 [Eh]

	 ================> DF-SCS-MP2 Energies <==================
	-----------------------------------------------------------
	 SCS Same-Spin Scale       =       0.3333333333333333 [-]
	 SCS Opposite-Spin Scale   =       1.2000000000000000 [-]
	 SCS Same-Spin Energy      =      -0.1293517256977847 [Eh]
	 SCS Opposite-Spin Energy  =      -1.5126010415576132 [Eh]
	 SCS Correlation Energy    =      -1.6419527672553980 [Eh]
	 SCS Total Energy          =    -384.5414611753233771 [Eh]
	-----------------------------------------------------------

  Dipole Moment: [D]
     X:     2.1106      Y:    -0.9160      Z:     0.4633     Total:     2.3470

*** Psi4 exiting successfully. Buy a developer a beer!
