                               Psi4 1.4a3.dev225

  ==> Input File <==

--------------------------------------------------------------------------
#psi4
#
memory 32 gb

molecule  {
0 1
  O       -1.4489980    -1.3596060     0.4723610
  O       -2.3691670     0.4939580    -0.4217430
  C        1.1321160    -0.2196140    -0.0405290
  C       -0.0105280     0.5069120     0.0326710
  C        2.4766970     0.4535350     0.0627600
  C        1.2313970    -1.7075980    -0.2583110
  C       -0.0156040     2.0162910     0.1296940
  C       -1.3701120    -0.0899940    -0.0219250
  H        2.9277060     0.5711490    -0.9308000
  H        2.4285750     1.4356710     0.5340320
  H        3.1575210    -0.1728930     0.6488100
  H        0.3470430    -2.1345670    -0.7252240
  H        1.3871470    -2.2249860     0.6954000
  H        2.0227428    -1.8986496    -0.8309316
  H        0.7095660     2.4663690    -0.5519310
  H        0.2213140     2.3529670     1.1451890
  H       -1.0053580     2.3925600    -0.1303250
  H       -2.3942410    -1.6004330     0.3722060
units angstrom
no_reorient  #important for SAPT in psi4, default
symmetry c1  #important for SAPT in psi4, default
}

set PROPERTIES_ORIGIN ["COM"]
properties('MP2/aug-cc-pvtz', properties = ['dipole'])
--------------------------------------------------------------------------

    Molecular point group: c1
  Charge       = 0
  Multiplicity = 1
  Basis Set: AUG-CC-PVTZ
    Blend: AUG-CC-PVTZ
  Basis Set: (AUG-CC-PVTZ AUX)
    Blend: AUG-CC-PVTZ-JKFIT

    Orbital Energies [Eh]
    ---------------------

    Doubly Occupied:

       1A    -20.607766     2A    -20.540841     3A    -11.383857
       4A    -11.267703     5A    -11.241903     6A    -11.234576
       7A    -11.218994     8A    -11.215823     9A     -1.452048
      10A     -1.345589    11A     -1.123914    12A     -1.018277
      13A     -0.960658    14A     -0.911297    15A     -0.833727
      16A     -0.733811    17A     -0.699170    18A     -0.662656
      19A     -0.635312    20A     -0.615119    21A     -0.602002
      22A     -0.589421    23A     -0.564019    24A     -0.554628
      25A     -0.547057    26A     -0.543717    27A     -0.516710
      28A     -0.492224    29A     -0.475324    30A     -0.446615
      31A     -0.349990

  @DF-RHF Final Energy:  -382.89361576527654

   => Energetics <=

    Nuclear Repulsion Energy =            379.1685463952512123
    One-Electron Energy =               -1273.3548269012826495
    Two-Electron Energy =                 511.2926647407548444
    Total Energy =                       -382.8936157652765360
  Basis Set: (AUG-CC-PVTZ AUX)
    Blend: AUG-CC-PVTZ-RI
    Molecular point group: c1

    Geometry (in Angstrom), charge = 0, multiplicity = 1:

       Center              X                  Y                   Z               Mass
    ------------   -----------------  -----------------  -----------------  -----------------
         O           -1.362515310655    -1.349654884181     0.473324040898    15.994914619570
         O           -2.282684310655     0.503909115819    -0.420779959102    15.994914619570
         C            1.218598689345    -0.209662884181    -0.039565959102    12.000000000000
         C            0.075954689345     0.516863115819     0.033634040898    12.000000000000
         C            2.563179689345     0.463486115819     0.063723040898    12.000000000000
         C            1.317879689345    -1.697646884181    -0.257347959102    12.000000000000
         C            0.070878689345     2.026242115819     0.130657040898    12.000000000000
         C           -1.283629310655    -0.080042884181    -0.020961959102    12.000000000000
         H            3.014188689345     0.581100115819    -0.929836959102     1.007825032230
         H            2.515057689345     1.445622115819     0.534995040898     1.007825032230
         H            3.244003689345    -0.162941884181     0.649773040898     1.007825032230
         H            0.433525689345    -2.124615884181    -0.724260959102     1.007825032230
         H            1.473629689345    -2.215034884181     0.696363040898     1.007825032230
         H            2.109225489345    -1.888698484181    -0.829968559102     1.007825032230
         H            0.796048689345     2.476320115819    -0.550967959102     1.007825032230
         H            0.307796689345     2.362918115819     1.146152040898     1.007825032230
         H           -0.918875310655     2.402511115819    -0.129361959102     1.007825032230
         H           -2.307758310655    -1.590481884181     0.373169040898     1.007825032230

  Basis Set: AUG-CC-PVTZ
    Blend: AUG-CC-PVTZ
  Basis Set: (AUG-CC-PVTZ AUX)
    Blend: AUG-CC-PVTZ-JKFIT
	 Reference Energy          =    -382.8936157652765360 [Eh]
	 Singles Energy            =      -0.0000000000000000 [Eh]
	 Same-Spin Energy          =      -0.3880635595735962 [Eh]
	 Opposite-Spin Energy      =      -1.2599563589759268 [Eh]
	 Correlation Energy        =      -1.6480199185495230 [Eh]
	 Total Energy              =    -384.5416356838260867 [Eh]

	 ================> DF-SCS-MP2 Energies <==================
	-----------------------------------------------------------
	 SCS Same-Spin Scale       =       0.3333333333333333 [-]
	 SCS Opposite-Spin Scale   =       1.2000000000000000 [-]
	 SCS Same-Spin Energy      =      -0.1293545198578654 [Eh]
	 SCS Opposite-Spin Energy  =      -1.5119476307711122 [Eh]
	 SCS Correlation Energy    =      -1.6413021506289776 [Eh]
	 SCS Total Energy          =    -384.5349179159055097 [Eh]
	-----------------------------------------------------------

  Dipole Moment: [D]
     X:     2.1626      Y:    -0.9400      Z:     0.4412     Total:     2.3990

*** Psi4 exiting successfully. Buy a developer a beer!
