                               Psi4 1.4a3.dev225

  ==> Input File <==

--------------------------------------------------------------------------
#psi4
#
memory 32 gb

molecule  {
0 1
  O       -1.4489980    -1.3596060     0.4723610
  O       -2.3691670     0.4939580    -0.4217430
  C        1.1321160    -0.2196140    -0.0405290
  C       -0.0105280     0.5069120     0.0326710
  C        2.4766970     0.4535350     0.0627600
  C        1.2313970    -1.7075980    -0.2583110
  C       -0.0156040     2.0162910     0.1296940
  C       -1.3689559    -0.0713878    -0.0291688
  H        2.9277060     0.5711490    -0.9308000
  H        2.4285750     1.4356710     0.5340320
  H        3.1575210    -0.1728930     0.6488100
  H        0.3470430    -2.1345670    -0.7252240
  H        1.3871470    -2.2249860     0.6954000
  H        2.1022510    -1.9178450    -0.8884640
  H        0.7095660     2.4663690    -0.5519310
  H        0.2213140     2.3529670     1.1451890
  H       -1.0053580     2.3925600    -0.1303250
  H       -2.3942410    -1.6004330     0.3722060
units angstrom
no_reorient  #important for SAPT in psi4, default
symmetry c1  #important for SAPT in psi4, default
}

set PROPERTIES_ORIGIN ["COM"]
properties('MP2/aug-cc-pvtz', properties = ['dipole'])
--------------------------------------------------------------------------

    Molecular point group: c1
  Charge       = 0
  Multiplicity = 1
  Basis Set: AUG-CC-PVTZ
    Blend: AUG-CC-PVTZ
  Basis Set: (AUG-CC-PVTZ AUX)
    Blend: AUG-CC-PVTZ-JKFIT

    Orbital Energies [Eh]
    ---------------------

    Doubly Occupied:

       1A    -20.602660     2A    -20.544043     3A    -11.383755
       4A    -11.269975     5A    -11.242508     6A    -11.235034
       7A    -11.228133     8A    -11.219904     9A     -1.447529
      10A     -1.347606    11A     -1.124344    12A     -1.016837
      13A     -0.956763    14A     -0.908480    15A     -0.831010
      16A     -0.731008    17A     -0.696875    18A     -0.662990
      19A     -0.632730    20A     -0.611204    21A     -0.600002
      22A     -0.586919    23A     -0.563428    24A     -0.551216
      25A     -0.547521    26A     -0.542899    27A     -0.514963
      28A     -0.493260    29A     -0.477468    30A     -0.447950
      31A     -0.351256

  @DF-RHF Final Energy:  -382.89916423815021

   => Energetics <=

    Nuclear Repulsion Energy =            378.6907008901060863
    One-Electron Energy =               -1272.4391940692767093
    Two-Electron Energy =                 510.8493289410204170
    Total Energy =                       -382.8991642381502061
  Basis Set: (AUG-CC-PVTZ AUX)
    Blend: AUG-CC-PVTZ-RI
    Molecular point group: c1

    Geometry (in Angstrom), charge = 0, multiplicity = 1:

       Center              X                  Y                   Z               Mass
    ------------   -----------------  -----------------  -----------------  -----------------
         O           -1.363339411092    -1.351442665620     0.474594406748    15.994914619570
         O           -2.283508411092     0.502121334380    -0.419509593252    15.994914619570
         C            1.217774588908    -0.211450665620    -0.038295593252    12.000000000000
         C            0.075130588908     0.515075334380     0.034904406748    12.000000000000
         C            2.562355588908     0.461698334380     0.064993406748    12.000000000000
         C            1.317055588908    -1.699434665620    -0.256077593252    12.000000000000
         C            0.070054588908     2.024454334380     0.131927406748    12.000000000000
         C           -1.283297311092    -0.063224465620    -0.026935393252    12.000000000000
         H            3.013364588908     0.579312334380    -0.928566593252     1.007825032230
         H            2.514233588908     1.443834334380     0.536265406748     1.007825032230
         H            3.243179588908    -0.164729665620     0.651043406748     1.007825032230
         H            0.432701588908    -2.126403665620    -0.722990593252     1.007825032230
         H            1.472805588908    -2.216822665620     0.697633406748     1.007825032230
         H            2.187909588908    -1.909681665620    -0.886230593252     1.007825032230
         H            0.795224588908     2.474532334380    -0.549697593252     1.007825032230
         H            0.306972588908     2.361130334380     1.147422406748     1.007825032230
         H           -0.919699411092     2.400723334380    -0.128091593252     1.007825032230
         H           -2.308582411092    -1.592269665620     0.374439406748     1.007825032230

  Basis Set: AUG-CC-PVTZ
    Blend: AUG-CC-PVTZ
  Basis Set: (AUG-CC-PVTZ AUX)
    Blend: AUG-CC-PVTZ-JKFIT
	 Reference Energy          =    -382.8991642381502061 [Eh]
	 Singles Energy            =      -0.0000000000000000 [Eh]
	 Same-Spin Energy          =      -0.3880496396866901 [Eh]
	 Opposite-Spin Energy      =      -1.2605904742263934 [Eh]
	 Correlation Energy        =      -1.6486401139130835 [Eh]
	 Total Energy              =    -384.5478043520632809 [Eh]

	 ================> DF-SCS-MP2 Energies <==================
	-----------------------------------------------------------
	 SCS Same-Spin Scale       =       0.3333333333333333 [-]
	 SCS Opposite-Spin Scale   =       1.2000000000000000 [-]
	 SCS Same-Spin Energy      =      -0.1293498798955633 [Eh]
	 SCS Opposite-Spin Energy  =      -1.5127085690716719 [Eh]
	 SCS Correlation Energy    =      -1.6420584489672354 [Eh]
	 SCS Total Energy          =    -384.5412226871174539 [Eh]
	-----------------------------------------------------------

  Dipole Moment: [D]
     X:     2.1421      Y:    -0.7810      Z:     0.4054     Total:     2.3158

*** Psi4 exiting successfully. Buy a developer a beer!
