                               Psi4 1.4a3.dev225

  ==> Input File <==

--------------------------------------------------------------------------
#psi4
#
memory 32 gb

molecule  {
0 1
  O       -1.4489980    -1.3596060     0.4723610
  O       -2.3691670     0.4939580    -0.4217430
  C        1.1321160    -0.2196140    -0.0405290
  C       -0.0105280     0.5069120     0.0326710
  C        2.4766970     0.4535350     0.0627600
  C        1.2313970    -1.7075980    -0.2583110
  C       -0.0156040     2.0162910     0.1296940
  C       -1.3701120    -0.0899940    -0.0219250
  H        2.9277060     0.5711490    -0.9308000
  H        2.4285750     1.4356710     0.5340320
  H        3.1575210    -0.1728930     0.6488100
  H        0.3470430    -2.1345670    -0.7252240
  H        1.3871470    -2.2249860     0.6954000
  H        2.0624969    -1.9082473    -0.8596978
  H        0.7095660     2.4663690    -0.5519310
  H        0.2213140     2.3529670     1.1451890
  H       -1.0053580     2.3925600    -0.1303250
  H       -2.3942410    -1.6004330     0.3722060
units angstrom
no_reorient  #important for SAPT in psi4, default
symmetry c1  #important for SAPT in psi4, default
}

set PROPERTIES_ORIGIN ["COM"]
properties('MP2/aug-cc-pvtz', properties = ['dipole'])
--------------------------------------------------------------------------

    Molecular point group: c1
  Charge       = 0
  Multiplicity = 1
  Basis Set: AUG-CC-PVTZ
    Blend: AUG-CC-PVTZ
  Basis Set: (AUG-CC-PVTZ AUX)
    Blend: AUG-CC-PVTZ-JKFIT

    Orbital Energies [Eh]
    ---------------------

    Doubly Occupied:

       1A    -20.608093     2A    -20.541068     3A    -11.384104
       4A    -11.268097     5A    -11.242231     6A    -11.234475
       7A    -11.222122     8A    -11.219172     9A     -1.452335
      10A     -1.345842    11A     -1.123537    12A     -1.016591
      13A     -0.958394    14A     -0.909958    15A     -0.833181
      16A     -0.733858    17A     -0.699168    18A     -0.662651
      19A     -0.634846    20A     -0.611976    21A     -0.601251
      22A     -0.588737    23A     -0.563505    24A     -0.552557
      25A     -0.546987    26A     -0.543485    27A     -0.515524
      28A     -0.492431    29A     -0.475447    30A     -0.446847
      31A     -0.350142

  @DF-RHF Final Energy:  -382.89860112687876

   => Energetics <=

    Nuclear Repulsion Energy =            378.9179916052752901
    One-Electron Energy =               -1272.8759653492561483
    Two-Electron Energy =                 511.0593726171020421
    Total Energy =                       -382.8986011268787593
  Basis Set: (AUG-CC-PVTZ AUX)
    Blend: AUG-CC-PVTZ-RI
    Molecular point group: c1

    Geometry (in Angstrom), charge = 0, multiplicity = 1:

       Center              X                  Y                   Z               Mass
    ------------   -----------------  -----------------  -----------------  -----------------
         O           -1.362866549821    -1.349570085679     0.473578198735    15.994914619570
         O           -2.283035549821     0.503993914321    -0.420525801265    15.994914619570
         C            1.218247450179    -0.209578085679    -0.039311801265    12.000000000000
         C            0.075603450179     0.516947914321     0.033888198735    12.000000000000
         C            2.562828450179     0.463570914321     0.063977198735    12.000000000000
         C            1.317528450179    -1.697562085679    -0.257093801265    12.000000000000
         C            0.070527450179     2.026326914321     0.130911198735    12.000000000000
         C           -1.283980549821    -0.079958085679    -0.020707801265    12.000000000000
         H            3.013837450179     0.581184914321    -0.929582801265     1.007825032230
         H            2.514706450179     1.445706914321     0.535249198735     1.007825032230
         H            3.243652450179    -0.162857085679     0.650027198735     1.007825032230
         H            0.433174450179    -2.124531085679    -0.724006801265     1.007825032230
         H            1.473278450179    -2.214950085679     0.696617198735     1.007825032230
         H            2.148628350179    -1.898211385679    -0.858480601265     1.007825032230
         H            0.795697450179     2.476404914321    -0.550713801265     1.007825032230
         H            0.307445450179     2.363002914321     1.146406198735     1.007825032230
         H           -0.919226549821     2.402595914321    -0.129107801265     1.007825032230
         H           -2.308109549821    -1.590397085679     0.373423198735     1.007825032230

  Basis Set: AUG-CC-PVTZ
    Blend: AUG-CC-PVTZ
  Basis Set: (AUG-CC-PVTZ AUX)
    Blend: AUG-CC-PVTZ-JKFIT
	 Reference Energy          =    -382.8986011268787593 [Eh]
	 Singles Energy            =      -0.0000000000000000 [Eh]
	 Same-Spin Energy          =      -0.3880529061558259 [Eh]
	 Opposite-Spin Energy      =      -1.2601840277319274 [Eh]
	 Correlation Energy        =      -1.6482369338877534 [Eh]
	 Total Energy              =    -384.5468380607665040 [Eh]

	 ================> DF-SCS-MP2 Energies <==================
	-----------------------------------------------------------
	 SCS Same-Spin Scale       =       0.3333333333333333 [-]
	 SCS Opposite-Spin Scale   =       1.2000000000000000 [-]
	 SCS Same-Spin Energy      =      -0.1293509687186086 [Eh]
	 SCS Opposite-Spin Energy  =      -1.5122208332783129 [Eh]
	 SCS Correlation Energy    =      -1.6415718019969217 [Eh]
	 SCS Total Energy          =    -384.5401729288756769 [Eh]
	-----------------------------------------------------------

  Dipole Moment: [D]
     X:     2.1402      Y:    -0.9293      Z:     0.4527     Total:     2.3768

*** Psi4 exiting successfully. Buy a developer a beer!
