                               Psi4 1.4a3.dev225

  ==> Input File <==

--------------------------------------------------------------------------
#psi4
#
memory 32 gb

molecule  {
0 1
  O       -1.4489980    -1.3596060     0.4723610
  O       -2.3691670     0.4939580    -0.4217430
  C        1.1321160    -0.2196140    -0.0405290
  C       -0.0105280     0.5069120     0.0326710
  C        2.4766970     0.4535350     0.0627600
  C        1.2313970    -1.7075980    -0.2583110
  C       -0.0156040     2.0162910     0.1296940
  C       -1.3701120    -0.0899940    -0.0219250
  H        2.9277060     0.5711490    -0.9308000
  H        2.4285750     1.4356710     0.5340320
  H        3.1575210    -0.1728930     0.6488100
  H        0.3470430    -2.1345670    -0.7252240
  H        1.3871470    -2.2249860     0.6954000
  H        2.1022510    -1.9178450    -0.8884640
  H        0.7095660     2.4663690    -0.5519310
  H        0.2213140     2.3529670     1.1451890
  H       -1.0053580     2.3925600    -0.1303250
  H       -2.3942410    -1.6004330     0.3722060
units angstrom
no_reorient  #important for SAPT in psi4, default
symmetry c1  #important for SAPT in psi4, default
}

set PROPERTIES_ORIGIN ["COM"]
properties('MP2/aug-cc-pvtz', properties = ['dipole'])
--------------------------------------------------------------------------

    Molecular point group: c1
  Charge       = 0
  Multiplicity = 1
  Basis Set: AUG-CC-PVTZ
    Blend: AUG-CC-PVTZ
  Basis Set: (AUG-CC-PVTZ AUX)
    Blend: AUG-CC-PVTZ-JKFIT

    Orbital Energies [Eh]
    ---------------------

    Doubly Occupied:

       1A    -20.608465     2A    -20.541335     3A    -11.384393
       4A    -11.268546     5A    -11.242624     6A    -11.234379
       7A    -11.228323     8A    -11.219385     9A     -1.452665
      10A     -1.346135    11A     -1.123323    12A     -1.015320
      13A     -0.956549    14A     -0.908730    15A     -0.832721
      16A     -0.733976    17A     -0.699253    18A     -0.662777
      19A     -0.634708    20A     -0.609887    21A     -0.600267
      22A     -0.587945    23A     -0.563206    24A     -0.550497
      25A     -0.546911    26A     -0.542717    27A     -0.513841
      28A     -0.492652    29A     -0.475566    30A     -0.447118
      31A     -0.350329

  @DF-RHF Final Energy:  -382.89954936502977

   => Energetics <=

    Nuclear Repulsion Energy =            378.6826820861220995
    One-Electron Energy =               -1272.4153761230113560
    Two-Electron Energy =                 510.8331446718594862
    Total Energy =                       -382.8995493650297703
  Basis Set: (AUG-CC-PVTZ AUX)
    Blend: AUG-CC-PVTZ-RI
    Molecular point group: c1

    Geometry (in Angstrom), charge = 0, multiplicity = 1:

       Center              X                  Y                   Z               Mass
    ------------   -----------------  -----------------  -----------------  -----------------
         O           -1.363217788987    -1.349485287177     0.473832356573    15.994914619570
         O           -2.283386788987     0.504078712823    -0.420271643427    15.994914619570
         C            1.217896211013    -0.209493287177    -0.039057643427    12.000000000000
         C            0.075252211013     0.517032712823     0.034142356573    12.000000000000
         C            2.562477211013     0.463655712823     0.064231356573    12.000000000000
         C            1.317177211013    -1.697477287177    -0.256839643427    12.000000000000
         C            0.070176211013     2.026411712823     0.131165356573    12.000000000000
         C           -1.284331788987    -0.079873287177    -0.020453643427    12.000000000000
         H            3.013486211013     0.581269712823    -0.929328643427     1.007825032230
         H            2.514355211013     1.445791712823     0.535503356573     1.007825032230
         H            3.243301211013    -0.162772287177     0.650281356573     1.007825032230
         H            0.432823211013    -2.124446287177    -0.723752643427     1.007825032230
         H            1.472927211013    -2.214865287177     0.696871356573     1.007825032230
         H            2.188031211013    -1.907724287177    -0.886992643427     1.007825032230
         H            0.795346211013     2.476489712823    -0.550459643427     1.007825032230
         H            0.307094211013     2.363087712823     1.146660356573     1.007825032230
         H           -0.919577788987     2.402680712823    -0.128853643427     1.007825032230
         H           -2.308460788987    -1.590312287177     0.373677356573     1.007825032230

  Basis Set: AUG-CC-PVTZ
    Blend: AUG-CC-PVTZ
  Basis Set: (AUG-CC-PVTZ AUX)
    Blend: AUG-CC-PVTZ-JKFIT
	 Reference Energy          =    -382.8995493650297703 [Eh]
	 Singles Energy            =      -0.0000000000000000 [Eh]
	 Same-Spin Energy          =      -0.3880535006773624 [Eh]
	 Opposite-Spin Energy      =      -1.2604859197772345 [Eh]
	 Correlation Energy        =      -1.6485394204545969 [Eh]
	 Total Energy              =    -384.5480887854843672 [Eh]

	 ================> DF-SCS-MP2 Energies <==================
	-----------------------------------------------------------
	 SCS Same-Spin Scale       =       0.3333333333333333 [-]
	 SCS Opposite-Spin Scale   =       1.2000000000000000 [-]
	 SCS Same-Spin Energy      =      -0.1293511668924541 [Eh]
	 SCS Opposite-Spin Energy  =      -1.5125831037326813 [Eh]
	 SCS Correlation Energy    =      -1.6419342706251354 [Eh]
	 SCS Total Energy          =    -384.5414836356549131 [Eh]
	-----------------------------------------------------------

  Dipole Moment: [D]
     X:     2.1142      Y:    -0.9163      Z:     0.4664     Total:     2.3510

*** Psi4 exiting successfully. Buy a developer a beer!
