                               Psi4 1.4a3.dev225

  ==> Input File <==

--------------------------------------------------------------------------
#psi4
#
memory 32 gb

molecule  {
0 1
  O       -1.4489980    -1.3596060     0.4723610
  O       -2.3691670     0.4939580    -0.4217430
  C        1.1321160    -0.2196140    -0.0405290
  C       -0.0105280     0.5069120     0.0326710
  C        2.4766970     0.4535350     0.0627600
  C        1.2313970    -1.7075980    -0.2583110
  C       -0.0156040     2.0162910     0.1296940
  C       -1.3701120    -0.0899940    -0.0219250
  H        2.9277060     0.5711490    -0.9308000
  H        2.4285750     1.4356710     0.5340320
  H        3.1575210    -0.1728930     0.6488100
  H        0.3470430    -2.1345670    -0.7252240
  H        1.3871470    -2.2249860     0.6954000
  H        2.1181526    -1.9216841    -0.8999705
  H        0.7095660     2.4663690    -0.5519310
  H        0.2213140     2.3529670     1.1451890
  H       -1.0053580     2.3925600    -0.1303250
  H       -2.3942410    -1.6004330     0.3722060
units angstrom
no_reorient  #important for SAPT in psi4, default
symmetry c1  #important for SAPT in psi4, default
}

set PROPERTIES_ORIGIN ["COM"]
properties('MP2/aug-cc-pvtz', properties = ['dipole'])
--------------------------------------------------------------------------

    Molecular point group: c1
  Charge       = 0
  Multiplicity = 1
  Basis Set: AUG-CC-PVTZ
    Blend: AUG-CC-PVTZ
  Basis Set: (AUG-CC-PVTZ AUX)
    Blend: AUG-CC-PVTZ-JKFIT

    Orbital Energies [Eh]
    ---------------------

    Doubly Occupied:

       1A    -20.608627     2A    -20.541454     3A    -11.384521
       4A    -11.268740     5A    -11.242800     6A    -11.234343
       7A    -11.230762     8A    -11.219480     9A     -1.452809
      10A     -1.346264    11A     -1.123278    12A     -1.014908
      13A     -0.955923    14A     -0.908278    15A     -0.832564
      16A     -0.734043    17A     -0.699309    18A     -0.662858
      19A     -0.634717    20A     -0.609333    21A     -0.599854
      22A     -0.587613    23A     -0.563139    24A     -0.549843
      25A     -0.546894    26A     -0.542155    27A     -0.512983
      28A     -0.492737    29A     -0.475607    30A     -0.447238
      31A     -0.350413

  @DF-RHF Final Energy:  -382.89902788610607

   => Energetics <=

    Nuclear Repulsion Energy =            378.5924091594482093
    One-Electron Energy =               -1272.2359008572645962
    Two-Electron Energy =                 510.7444638117103750
    Total Energy =                       -382.8990278861060688
  Basis Set: (AUG-CC-PVTZ AUX)
    Blend: AUG-CC-PVTZ-RI
    Molecular point group: c1

    Geometry (in Angstrom), charge = 0, multiplicity = 1:

       Center              X                  Y                   Z               Mass
    ------------   -----------------  -----------------  -----------------  -----------------
         O           -1.363358284300    -1.349451367599     0.473934019885    15.994914619570
         O           -2.283527284300     0.504112632401    -0.420169980115    15.994914619570
         C            1.217755715700    -0.209459367599    -0.038955980115    12.000000000000
         C            0.075111715700     0.517066632401     0.034244019885    12.000000000000
         C            2.562336715700     0.463689632401     0.064333019885    12.000000000000
         C            1.317036715700    -1.697443367599    -0.256737980115    12.000000000000
         C            0.070035715700     2.026445632401     0.131267019885    12.000000000000
         C           -1.284472284300    -0.079839367599    -0.020351980115    12.000000000000
         H            3.013345715700     0.581303632401    -0.929226980115     1.007825032230
         H            2.514214715700     1.445825632401     0.535605019885     1.007825032230
         H            3.243160715700    -0.162738367599     0.650383019885     1.007825032230
         H            0.432682715700    -2.124412367599    -0.723650980115     1.007825032230
         H            1.472786715700    -2.214831367599     0.696973019885     1.007825032230
         H            2.203792315700    -1.911529467599    -0.898397480115     1.007825032230
         H            0.795205715700     2.476523632401    -0.550357980115     1.007825032230
         H            0.306953715700     2.363121632401     1.146762019885     1.007825032230
         H           -0.919718284300     2.402714632401    -0.128751980115     1.007825032230
         H           -2.308601284300    -1.590278367599     0.373779019885     1.007825032230

  Basis Set: AUG-CC-PVTZ
    Blend: AUG-CC-PVTZ
  Basis Set: (AUG-CC-PVTZ AUX)
    Blend: AUG-CC-PVTZ-JKFIT
	 Reference Energy          =    -382.8990278861060688 [Eh]
	 Singles Energy            =      -0.0000000000000000 [Eh]
	 Same-Spin Energy          =      -0.3880558762667992 [Eh]
	 Opposite-Spin Energy      =      -1.2606238842610820 [Eh]
	 Correlation Energy        =      -1.6486797605278811 [Eh]
	 Total Energy              =    -384.5477076466339668 [Eh]

	 ================> DF-SCS-MP2 Energies <==================
	-----------------------------------------------------------
	 SCS Same-Spin Scale       =       0.3333333333333333 [-]
	 SCS Opposite-Spin Scale   =       1.2000000000000000 [-]
	 SCS Same-Spin Energy      =      -0.1293519587555997 [Eh]
	 SCS Opposite-Spin Energy  =      -1.5127486611132983 [Eh]
	 SCS Correlation Energy    =      -1.6421006198688981 [Eh]
	 SCS Total Energy          =    -384.5411285059749389 [Eh]
	-----------------------------------------------------------

  Dipole Moment: [D]
     X:     2.1029      Y:    -0.9105      Z:     0.4726     Total:     2.3397

*** Psi4 exiting successfully. Buy a developer a beer!
