                               Psi4 1.4a3.dev225

  ==> Input File <==

--------------------------------------------------------------------------
#psi4
#
memory 32 gb

molecule  {
0 1
  O       -1.4489980    -1.3596060     0.4723610
  O       -2.3691670     0.4939580    -0.4217430
  C        1.1321160    -0.2196140    -0.0405290
  C       -0.0105280     0.5069120     0.0326710
  C        2.4766970     0.4535350     0.0627600
  C        1.2313970    -1.7075980    -0.2583110
  C       -0.0156040     2.0162910     0.1296940
  C       -1.3701120    -0.0899940    -0.0219250
  H        2.9277060     0.5711490    -0.9308000
  H        2.4285750     1.4356710     0.5340320
  H        3.1575210    -0.1728930     0.6488100
  H        0.3470430    -2.1345670    -0.7252240
  H        1.3871470    -2.2249860     0.6954000
  H        2.1022510    -1.9178450    -0.8884640
  H        0.6550896     2.4117886    -0.6363387
  H        0.2213140     2.3529670     1.1451890
  H       -1.0053580     2.3925600    -0.1303250
  H       -2.3942410    -1.6004330     0.3722060
units angstrom
no_reorient  #important for SAPT in psi4, default
symmetry c1  #important for SAPT in psi4, default
}

set PROPERTIES_ORIGIN ["COM"]
properties('MP2/aug-cc-pvtz', properties = ['dipole'])
--------------------------------------------------------------------------

    Molecular point group: c1
  Charge       = 0
  Multiplicity = 1
  Basis Set: AUG-CC-PVTZ
    Blend: AUG-CC-PVTZ
  Basis Set: (AUG-CC-PVTZ AUX)
    Blend: AUG-CC-PVTZ-JKFIT

    Orbital Energies [Eh]
    ---------------------

    Doubly Occupied:

       1A    -20.608093     2A    -20.540989     3A    -11.383815
       4A    -11.268092     5A    -11.241837     6A    -11.234032
       7A    -11.228124     8A    -11.219337     9A     -1.452304
      10A     -1.345787    11A     -1.123247    12A     -1.015562
      13A     -0.956172    14A     -0.908239    15A     -0.832379
      16A     -0.732571    17A     -0.698882    18A     -0.662406
      19A     -0.634689    20A     -0.609431    21A     -0.600929
      22A     -0.587464    23A     -0.571621    24A     -0.550151
      25A     -0.547244    26A     -0.536735    27A     -0.512942
      28A     -0.490228    29A     -0.475015    30A     -0.446703
      31A     -0.350729

  @DF-RHF Final Energy:  -382.89824455956170

   => Energetics <=

    Nuclear Repulsion Energy =            378.7673922000591347
    One-Electron Energy =               -1272.5997770604183188
    Two-Electron Energy =                 510.9341403007974804
    Total Energy =                       -382.8982445595617037
  Basis Set: (AUG-CC-PVTZ AUX)
    Blend: AUG-CC-PVTZ-RI
    Molecular point group: c1

    Geometry (in Angstrom), charge = 0, multiplicity = 1:

       Center              X                  Y                   Z               Mass
    ------------   -----------------  -----------------  -----------------  -----------------
         O           -1.362736473970    -1.349003053290     0.474578123428    15.994914619570
         O           -2.282905473970     0.504560946710    -0.419525876572    15.994914619570
         C            1.218377526030    -0.209011053290    -0.038311876572    12.000000000000
         C            0.075733526030     0.517514946710     0.034888123428    12.000000000000
         C            2.562958526030     0.464137946710     0.064977123428    12.000000000000
         C            1.317658526030    -1.696995053290    -0.256093876572    12.000000000000
         C            0.070657526030     2.026893946710     0.131911123428    12.000000000000
         C           -1.283850473970    -0.079391053290    -0.019707876572    12.000000000000
         H            3.013967526030     0.581751946710    -0.928582876572     1.007825032230
         H            2.514836526030     1.446273946710     0.536249123428     1.007825032230
         H            3.243782526030    -0.162290053290     0.651027123428     1.007825032230
         H            0.433304526030    -2.123964053290    -0.723006876572     1.007825032230
         H            1.473408526030    -2.214383053290     0.697617123428     1.007825032230
         H            2.188512526030    -1.907242053290    -0.886246876572     1.007825032230
         H            0.741351126030     2.422391546710    -0.634121576572     1.007825032230
         H            0.307575526030     2.363569946710     1.147406123428     1.007825032230
         H           -0.919096473970     2.403162946710    -0.128107876572     1.007825032230
         H           -2.307979473970    -1.589830053290     0.374423123428     1.007825032230

  Basis Set: AUG-CC-PVTZ
    Blend: AUG-CC-PVTZ
  Basis Set: (AUG-CC-PVTZ AUX)
    Blend: AUG-CC-PVTZ-JKFIT
	 Reference Energy          =    -382.8982445595617037 [Eh]
	 Singles Energy            =      -0.0000000000000000 [Eh]
	 Same-Spin Energy          =      -0.3881152202849287 [Eh]
	 Opposite-Spin Energy      =      -1.2606477824424038 [Eh]
	 Correlation Energy        =      -1.6487630027273326 [Eh]
	 Total Energy              =    -384.5470075622890249 [Eh]

	 ================> DF-SCS-MP2 Energies <==================
	-----------------------------------------------------------
	 SCS Same-Spin Scale       =       0.3333333333333333 [-]
	 SCS Opposite-Spin Scale   =       1.2000000000000000 [-]
	 SCS Same-Spin Energy      =      -0.1293717400949762 [Eh]
	 SCS Opposite-Spin Energy  =      -1.5127773389308845 [Eh]
	 SCS Correlation Energy    =      -1.6421490790258608 [Eh]
	 SCS Total Energy          =    -384.5403936385875454 [Eh]
	-----------------------------------------------------------

  Dipole Moment: [D]
     X:     2.0903      Y:    -0.9135      Z:     0.4498     Total:     2.3251

*** Psi4 exiting successfully. Buy a developer a beer!
