                               Psi4 1.4a3.dev225

  ==> Input File <==

--------------------------------------------------------------------------
#psi4
#
memory 32 gb

molecule  {
0 1
  O       -1.4489980    -1.3596060     0.4723610
  O       -2.3691670     0.4939580    -0.4217430
  C        1.1321160    -0.2196140    -0.0405290
  C       -0.0105280     0.5069120     0.0326710
  C        2.4766970     0.4535350     0.0627600
  C        1.2313970    -1.7075980    -0.2583110
  C       -0.0156040     2.0162910     0.1296940
  C       -1.5333133     0.0053979    -0.0872375
  H        2.9277060     0.5711490    -0.9308000
  H        2.4285750     1.4356710     0.5340320
  H        3.1575210    -0.1728930     0.6488100
  H        0.3470430    -2.1345670    -0.7252240
  H        1.3871470    -2.2249860     0.6954000
  H        2.1022510    -1.9178450    -0.8884640
  H        0.7095660     2.4663690    -0.5519310
  H        0.2213140     2.3529670     1.1451890
  H       -1.0053580     2.3925600    -0.1303250
  H       -2.3942410    -1.6004330     0.3722060
units angstrom
no_reorient  #important for SAPT in psi4, default
symmetry c1  #important for SAPT in psi4, default
}

set PROPERTIES_ORIGIN ["COM"]
properties('MP2/aug-cc-pvtz', properties = ['dipole'])
--------------------------------------------------------------------------

    Molecular point group: c1
  Charge       = 0
  Multiplicity = 1
  Basis Set: AUG-CC-PVTZ
    Blend: AUG-CC-PVTZ
  Basis Set: (AUG-CC-PVTZ AUX)
    Blend: AUG-CC-PVTZ-JKFIT

    Orbital Energies [Eh]
    ---------------------

    Doubly Occupied:

       1A    -20.583219     2A    -20.574788     3A    -11.370826
       4A    -11.253445     5A    -11.239175     6A    -11.226435
       7A    -11.217142     8A    -11.215617     9A     -1.569968
      10A     -1.351537    11A     -1.106238    12A     -1.004036
      13A     -0.942298    14A     -0.884851    15A     -0.807963
      16A     -0.749705    17A     -0.722360    18A     -0.681189
      19A     -0.658674    20A     -0.633087    21A     -0.596900
      22A     -0.580163    23A     -0.560887    24A     -0.556292
      25A     -0.539554    26A     -0.536361    27A     -0.513914
      28A     -0.499949    29A     -0.488573    30A     -0.421494
      31A     -0.339693

  @DF-RHF Final Energy:  -382.82078630004617

   => Energetics <=

    Nuclear Repulsion Energy =            379.0555212319183056
    One-Electron Energy =               -1272.8999438788546286
    Two-Electron Energy =                 511.0236363468901573
    Total Energy =                       -382.8207863000461657
  Basis Set: (AUG-CC-PVTZ AUX)
    Blend: AUG-CC-PVTZ-RI
    Molecular point group: c1

    Geometry (in Angstrom), charge = 0, multiplicity = 1:

       Center              X                  Y                   Z               Mass
    ------------   -----------------  -----------------  -----------------  -----------------
         O           -1.346048957816    -1.359520546860     0.480703253348    15.994914619570
         O           -2.266217957816     0.494043453140    -0.413400746652    15.994914619570
         C            1.235065042184    -0.219528546860    -0.032186746652    12.000000000000
         C            0.092421042184     0.506997453140     0.041013253348    12.000000000000
         C            2.579646042184     0.453620453140     0.071102253348    12.000000000000
         C            1.334346042184    -1.707512546860    -0.249968746652    12.000000000000
         C            0.087345042184     2.016376453140     0.138036253348    12.000000000000
         C           -1.430364257816     0.005483353140    -0.078895246652    12.000000000000
         H            3.030655042184     0.571234453140    -0.922457746652     1.007825032230
         H            2.531524042184     1.435756453140     0.542374253348     1.007825032230
         H            3.260470042184    -0.172807546860     0.657152253348     1.007825032230
         H            0.449992042184    -2.134481546860    -0.716881746652     1.007825032230
         H            1.490096042184    -2.224900546860     0.703742253348     1.007825032230
         H            2.205200042184    -1.917759546860    -0.880121746652     1.007825032230
         H            0.812515042184     2.466454453140    -0.543588746652     1.007825032230
         H            0.324263042184     2.353052453140     1.153531253348     1.007825032230
         H           -0.902408957816     2.392645453140    -0.121982746652     1.007825032230
         H           -2.291291957816    -1.600347546860     0.380548253348     1.007825032230

  Basis Set: AUG-CC-PVTZ
    Blend: AUG-CC-PVTZ
  Basis Set: (AUG-CC-PVTZ AUX)
    Blend: AUG-CC-PVTZ-JKFIT
	 Reference Energy          =    -382.8207863000461657 [Eh]
	 Singles Energy            =      -0.0000000000000000 [Eh]
	 Same-Spin Energy          =      -0.3849954337772395 [Eh]
	 Opposite-Spin Energy      =      -1.2555486350777043 [Eh]
	 Correlation Energy        =      -1.6405440688549437 [Eh]
	 Total Energy              =    -384.4613303689010877 [Eh]

	 ================> DF-SCS-MP2 Energies <==================
	-----------------------------------------------------------
	 SCS Same-Spin Scale       =       0.3333333333333333 [-]
	 SCS Opposite-Spin Scale   =       1.2000000000000000 [-]
	 SCS Same-Spin Energy      =      -0.1283318112590798 [Eh]
	 SCS Opposite-Spin Energy  =      -1.5066583620932452 [Eh]
	 SCS Correlation Energy    =      -1.6349901733523251 [Eh]
	 SCS Total Energy          =    -384.4557764733984868 [Eh]
	-----------------------------------------------------------

  Dipole Moment: [D]
     X:     0.7866      Y:     0.0791      Z:    -0.1234     Total:     0.8001

*** Psi4 exiting successfully. Buy a developer a beer!
