                               Psi4 1.4a3.dev225

  ==> Input File <==

--------------------------------------------------------------------------
#psi4
#
memory 32 gb

molecule  {
0 1
  O       -1.5427238    -1.3567345     0.4555999
  O       -2.3691670     0.4939580    -0.4217430
  C        1.1321160    -0.2196140    -0.0405290
  C       -0.0105280     0.5069120     0.0326710
  C        2.4766970     0.4535350     0.0627600
  C        1.2313970    -1.7075980    -0.2583110
  C       -0.0156040     2.0162910     0.1296940
  C       -1.3701120    -0.0899940    -0.0219250
  H        2.9277060     0.5711490    -0.9308000
  H        2.4285750     1.4356710     0.5340320
  H        3.1575210    -0.1728930     0.6488100
  H        0.3470430    -2.1345670    -0.7252240
  H        1.3871470    -2.2249860     0.6954000
  H        2.1022510    -1.9178450    -0.8884640
  H        0.7095660     2.4663690    -0.5519310
  H        0.2213140     2.3529670     1.1451890
  H       -1.0053580     2.3925600    -0.1303250
  H       -2.3942410    -1.6004330     0.3722060
units angstrom
no_reorient  #important for SAPT in psi4, default
symmetry c1  #important for SAPT in psi4, default
}

set PROPERTIES_ORIGIN ["COM"]
properties('MP2/aug-cc-pvtz', properties = ['dipole'])
--------------------------------------------------------------------------

    Molecular point group: c1
  Charge       = 0
  Multiplicity = 1
  Basis Set: AUG-CC-PVTZ
    Blend: AUG-CC-PVTZ
  Basis Set: (AUG-CC-PVTZ AUX)
    Blend: AUG-CC-PVTZ-JKFIT

    Orbital Energies [Eh]
    ---------------------

    Doubly Occupied:

       1A    -20.594873     2A    -20.536671     3A    -11.384587
       4A    -11.271182     5A    -11.246570     6A    -11.235988
       7A    -11.230447     8A    -11.221271     9A     -1.463283
      10A     -1.346758    11A     -1.126084    12A     -1.017490
      13A     -0.959332    14A     -0.914470    15A     -0.845777
      16A     -0.750415    17A     -0.696561    18A     -0.664249
      19A     -0.633910    20A     -0.607300    21A     -0.601313
      22A     -0.591556    23A     -0.564708    24A     -0.551712
      25A     -0.548415    26A     -0.544675    27A     -0.515634
      28A     -0.494405    29A     -0.473063    30A     -0.445578
      31A     -0.352475

  @DF-RHF Final Energy:  -382.89647888748999

   => Energetics <=

    Nuclear Repulsion Energy =            378.3455177251720443
    One-Electron Energy =               -1271.6224889522125068
    Two-Electron Energy =                 510.3804923395504716
    Total Energy =                       -382.8964788874899909
  Basis Set: (AUG-CC-PVTZ AUX)
    Blend: AUG-CC-PVTZ-RI
    Molecular point group: c1

    Geometry (in Angstrom), charge = 0, multiplicity = 1:

       Center              X                  Y                   Z               Mass
    ------------   -----------------  -----------------  -----------------  -----------------
         O           -1.443801120257    -1.347016436169     0.459421540407    15.994914619570
         O           -2.270244320257     0.503676063831    -0.417921359593    15.994914619570
         C            1.231038679743    -0.209895936169    -0.036707359593    12.000000000000
         C            0.088394679743     0.516630063831     0.036492640407    12.000000000000
         C            2.575619679743     0.463253063831     0.066581640407    12.000000000000
         C            1.330319679743    -1.697879936169    -0.254489359593    12.000000000000
         C            0.083318679743     2.026009063831     0.133515640407    12.000000000000
         C           -1.271189320257    -0.080275936169    -0.018103359593    12.000000000000
         H            3.026628679743     0.580867063831    -0.926978359593     1.007825032230
         H            2.527497679743     1.445389063831     0.537853640407     1.007825032230
         H            3.256443679743    -0.163174936169     0.652631640407     1.007825032230
         H            0.445965679743    -2.124848936169    -0.721402359593     1.007825032230
         H            1.486069679743    -2.215267936169     0.699221640407     1.007825032230
         H            2.201173679743    -1.908126936169    -0.884642359593     1.007825032230
         H            0.808488679743     2.476087063831    -0.548109359593     1.007825032230
         H            0.320236679743     2.362685063831     1.149010640407     1.007825032230
         H           -0.906435320257     2.402278063831    -0.126503359593     1.007825032230
         H           -2.295318320257    -1.590714936169     0.376027640407     1.007825032230

  Basis Set: AUG-CC-PVTZ
    Blend: AUG-CC-PVTZ
  Basis Set: (AUG-CC-PVTZ AUX)
    Blend: AUG-CC-PVTZ-JKFIT
	 Reference Energy          =    -382.8964788874899909 [Eh]
	 Singles Energy            =      -0.0000000000000000 [Eh]
	 Same-Spin Energy          =      -0.3861770205824211 [Eh]
	 Opposite-Spin Energy      =      -1.2566741510089949 [Eh]
	 Correlation Energy        =      -1.6428511715914160 [Eh]
	 Total Energy              =    -384.5393300590814079 [Eh]

	 ================> DF-SCS-MP2 Energies <==================
	-----------------------------------------------------------
	 SCS Same-Spin Scale       =       0.3333333333333333 [-]
	 SCS Opposite-Spin Scale   =       1.2000000000000000 [-]
	 SCS Same-Spin Energy      =      -0.1287256735274737 [Eh]
	 SCS Opposite-Spin Energy  =      -1.5080089812107940 [Eh]
	 SCS Correlation Energy    =      -1.6367346547382677 [Eh]
	 SCS Total Energy          =    -384.5332135422282818 [Eh]
	-----------------------------------------------------------

  Dipole Moment: [D]
     X:     2.3350      Y:    -0.8434      Z:     0.4571     Total:     2.5244

*** Psi4 exiting successfully. Buy a developer a beer!
