                               Psi4 1.4a3.dev225

  ==> Input File <==

--------------------------------------------------------------------------
#psi4
#
memory 32 gb

molecule  {
0 1
  O       -1.4489980    -1.3596060     0.4723610
  O       -2.3691670     0.4939580    -0.4217430
  C        1.1321160    -0.2196140    -0.0405290
  C       -0.0105280     0.5069120     0.0326710
  C        2.4766970     0.4535350     0.0627600
  C        1.2313970    -1.7075980    -0.2583110
  C       -0.0156040     2.0162910     0.1296940
  C       -1.3701120    -0.0899940    -0.0219250
  H        2.9277060     0.5711490    -0.9308000
  H        2.4285750     1.4356710     0.5340320
  H        3.1575210    -0.1728930     0.6488100
  H        0.3470430    -2.1345670    -0.7252240
  H        1.3871470    -2.2249860     0.6954000
  H        2.0863494    -1.9140059    -0.8769575
  H        0.7095660     2.4663690    -0.5519310
  H        0.2213140     2.3529670     1.1451890
  H       -1.0053580     2.3925600    -0.1303250
  H       -2.3942410    -1.6004330     0.3722060
units angstrom
no_reorient  #important for SAPT in psi4, default
symmetry c1  #important for SAPT in psi4, default
}

set PROPERTIES_ORIGIN ["COM"]
properties('MP2/aug-cc-pvtz', properties = ['dipole'])
--------------------------------------------------------------------------

    Molecular point group: c1
  Charge       = 0
  Multiplicity = 1
  Basis Set: AUG-CC-PVTZ
    Blend: AUG-CC-PVTZ
  Basis Set: (AUG-CC-PVTZ AUX)
    Blend: AUG-CC-PVTZ-JKFIT

    Orbital Energies [Eh]
    ---------------------

    Doubly Occupied:

       1A    -20.608311     2A    -20.541224     3A    -11.384273
       4A    -11.268360     5A    -11.242459     6A    -11.234417
       7A    -11.225859     8A    -11.219296     9A     -1.452528
      10A     -1.346013    11A     -1.123391    12A     -1.015785
      13A     -0.957238    14A     -0.909205    15A     -0.832894
      16A     -0.733920    17A     -0.699209    18A     -0.662713
      19A     -0.634733    20A     -0.610594    21A     -0.600678
      22A     -0.588272    23A     -0.563302    24A     -0.551272
      25A     -0.546939    26A     -0.543120    27A     -0.514586
      28A     -0.492563    29A     -0.475520    30A     -0.447005
      31A     -0.350250

  @DF-RHF Final Energy:  -382.89958550641848

   => Energetics <=

    Nuclear Repulsion Energy =            378.7751001941918503
    One-Electron Energy =               -1272.5975225351512563
    Two-Electron Energy =                 510.9228368345409308
    Total Energy =                       -382.8995855064184752
  Basis Set: (AUG-CC-PVTZ AUX)
    Blend: AUG-CC-PVTZ-RI
    Molecular point group: c1

    Geometry (in Angstrom), charge = 0, multiplicity = 1:

       Center              X                  Y                   Z               Mass
    ------------   -----------------  -----------------  -----------------  -----------------
         O           -1.363077293674    -1.349519206754     0.473730693261    15.994914619570
         O           -2.283246293674     0.504044793246    -0.420373306739    15.994914619570
         C            1.218036706326    -0.209527206754    -0.039159306739    12.000000000000
         C            0.075392706326     0.516998793246     0.034040693261    12.000000000000
         C            2.562617706326     0.463621793246     0.064129693261    12.000000000000
         C            1.317317706326    -1.697511206754    -0.256941306739    12.000000000000
         C            0.070316706326     2.026377793246     0.131063693261    12.000000000000
         C           -1.284191293674    -0.079907206754    -0.020555306739    12.000000000000
         H            3.013626706326     0.581235793246    -0.929430306739     1.007825032230
         H            2.514495706326     1.445757793246     0.535401693261     1.007825032230
         H            3.243441706326    -0.162806206754     0.650179693261     1.007825032230
         H            0.432963706326    -2.124480206754    -0.723854306739     1.007825032230
         H            1.473067706326    -2.214899206754     0.696769693261     1.007825032230
         H            2.172270106326    -1.903919106754    -0.875587806739     1.007825032230
         H            0.795486706326     2.476455793246    -0.550561306739     1.007825032230
         H            0.307234706326     2.363053793246     1.146558693261     1.007825032230
         H           -0.919437293674     2.402646793246    -0.128955306739     1.007825032230
         H           -2.308320293674    -1.590346206754     0.373575693261     1.007825032230

  Basis Set: AUG-CC-PVTZ
    Blend: AUG-CC-PVTZ
  Basis Set: (AUG-CC-PVTZ AUX)
    Blend: AUG-CC-PVTZ-JKFIT
	 Reference Energy          =    -382.8995855064184752 [Eh]
	 Singles Energy            =      -0.0000000000000000 [Eh]
	 Same-Spin Energy          =      -0.3880522037154847 [Eh]
	 Opposite-Spin Energy      =      -1.2603572869121247 [Eh]
	 Correlation Energy        =      -1.6484094906276092 [Eh]
	 Total Energy              =    -384.5479949970460893 [Eh]

	 ================> DF-SCS-MP2 Energies <==================
	-----------------------------------------------------------
	 SCS Same-Spin Scale       =       0.3333333333333333 [-]
	 SCS Opposite-Spin Scale   =       1.2000000000000000 [-]
	 SCS Same-Spin Energy      =      -0.1293507345718282 [Eh]
	 SCS Opposite-Spin Energy  =      -1.5124287442945497 [Eh]
	 SCS Correlation Energy    =      -1.6417794788663778 [Eh]
	 SCS Total Energy          =    -384.5413649852848721 [Eh]
	-----------------------------------------------------------

  Dipole Moment: [D]
     X:     2.1250      Y:    -0.9218      Z:     0.4607     Total:     2.3617

*** Psi4 exiting successfully. Buy a developer a beer!
