                               Psi4 1.4a3.dev225

  ==> Input File <==

--------------------------------------------------------------------------
#psi4
#
memory 32 gb

molecule  {
0 1
  O       -1.4489980    -1.3596060     0.4723610
  O       -2.3691670     0.4939580    -0.4217430
  C        1.1321160    -0.2196140    -0.0405290
  C       -0.0105280     0.5069120     0.0326710
  C        2.4766970     0.4535350     0.0627600
  C        1.2313970    -1.7075980    -0.2583110
  C       -0.0156040     2.0162910     0.1296940
  C       -1.3518116    -0.0819595    -0.0211901
  H        2.9277060     0.5711490    -0.9308000
  H        2.4285750     1.4356710     0.5340320
  H        3.1575210    -0.1728930     0.6488100
  H        0.3470430    -2.1345670    -0.7252240
  H        1.3871470    -2.2249860     0.6954000
  H        2.1022510    -1.9178450    -0.8884640
  H        0.7095660     2.4663690    -0.5519310
  H        0.2213140     2.3529670     1.1451890
  H       -1.0053580     2.3925600    -0.1303250
  H       -2.3942410    -1.6004330     0.3722060
units angstrom
no_reorient  #important for SAPT in psi4, default
symmetry c1  #important for SAPT in psi4, default
}

set PROPERTIES_ORIGIN ["COM"]
properties('MP2/aug-cc-pvtz', properties = ['dipole'])
--------------------------------------------------------------------------

    Molecular point group: c1
  Charge       = 0
  Multiplicity = 1
  Basis Set: AUG-CC-PVTZ
    Blend: AUG-CC-PVTZ
  Basis Set: (AUG-CC-PVTZ AUX)
    Blend: AUG-CC-PVTZ-JKFIT

    Orbital Energies [Eh]
    ---------------------

    Doubly Occupied:

       1A    -20.605820     2A    -20.539397     3A    -11.384731
       4A    -11.271688     5A    -11.242658     6A    -11.235909
       7A    -11.229521     8A    -11.220199     9A     -1.446165
      10A     -1.337844    11A     -1.126364    12A     -1.018208
      13A     -0.958438    14A     -0.911030    15A     -0.833480
      16A     -0.734533    17A     -0.695510    18A     -0.663488
      19A     -0.632705    20A     -0.607709    21A     -0.599641
      22A     -0.587514    23A     -0.563928    24A     -0.551499
      25A     -0.547808    26A     -0.543723    27A     -0.515107
      28A     -0.493273    29A     -0.471754    30A     -0.446722
      31A     -0.352071

  @DF-RHF Final Energy:  -382.89755677802651

   => Energetics <=

    Nuclear Repulsion Energy =            378.7209102026782830
    One-Electron Energy =               -1272.5000597897212629
    Two-Electron Energy =                 510.8815928090164675
    Total Energy =                       -382.8975567780265123
  Basis Set: (AUG-CC-PVTZ AUX)
    Blend: AUG-CC-PVTZ-RI
    Molecular point group: c1

    Geometry (in Angstrom), charge = 0, multiplicity = 1:

       Center              X                  Y                   Z               Mass
    ------------   -----------------  -----------------  -----------------  -----------------
         O           -1.365142997168    -1.350330519255     0.473755044848    15.994914619570
         O           -2.285311997168     0.503233480745    -0.420348955152    15.994914619570
         C            1.215971002832    -0.210338519255    -0.039134955152    12.000000000000
         C            0.073327002832     0.516187480745     0.034065044848    12.000000000000
         C            2.560552002832     0.462810480745     0.064154044848    12.000000000000
         C            1.315252002832    -1.698322519255    -0.256916955152    12.000000000000
         C            0.068251002832     2.025566480745     0.131088044848    12.000000000000
         C           -1.267956597168    -0.072684019255    -0.019796055152    12.000000000000
         H            3.011561002832     0.580424480745    -0.929405955152     1.007825032230
         H            2.512430002832     1.444946480745     0.535426044848     1.007825032230
         H            3.241376002832    -0.163617519255     0.650204044848     1.007825032230
         H            0.430898002832    -2.125291519255    -0.723829955152     1.007825032230
         H            1.471002002832    -2.215710519255     0.696794044848     1.007825032230
         H            2.186106002832    -1.908569519255    -0.887069955152     1.007825032230
         H            0.793421002832     2.475644480745    -0.550536955152     1.007825032230
         H            0.305169002832     2.362242480745     1.146583044848     1.007825032230
         H           -0.921502997168     2.401835480745    -0.128930955152     1.007825032230
         H           -2.310385997168    -1.591157519255     0.373600044848     1.007825032230

  Basis Set: AUG-CC-PVTZ
    Blend: AUG-CC-PVTZ
  Basis Set: (AUG-CC-PVTZ AUX)
    Blend: AUG-CC-PVTZ-JKFIT
	 Reference Energy          =    -382.8975567780265123 [Eh]
	 Singles Energy            =      -0.0000000000000000 [Eh]
	 Same-Spin Energy          =      -0.3884927649452393 [Eh]
	 Opposite-Spin Energy      =      -1.2612918228510031 [Eh]
	 Correlation Energy        =      -1.6497845877962423 [Eh]
	 Total Energy              =    -384.5473413658227742 [Eh]

	 ================> DF-SCS-MP2 Energies <==================
	-----------------------------------------------------------
	 SCS Same-Spin Scale       =       0.3333333333333333 [-]
	 SCS Opposite-Spin Scale   =       1.2000000000000000 [-]
	 SCS Same-Spin Energy      =      -0.1294975883150797 [Eh]
	 SCS Opposite-Spin Energy  =      -1.5135501874212036 [Eh]
	 SCS Correlation Energy    =      -1.6430477757362834 [Eh]
	 SCS Total Energy          =    -384.5406045537628188 [Eh]
	-----------------------------------------------------------

  Dipole Moment: [D]
     X:     2.2675      Y:    -0.8756      Z:     0.4633     Total:     2.4745

*** Psi4 exiting successfully. Buy a developer a beer!
