                               Psi4 1.4a3.dev225

  ==> Input File <==

--------------------------------------------------------------------------
#psi4
#
memory 32 gb

molecule  {
0 1
  O       -1.4489980    -1.3596060     0.4723610
  O       -2.3691670     0.4939580    -0.4217430
  C        1.1321160    -0.2196140    -0.0405290
  C       -0.0105280     0.5069120     0.0326710
  C        2.4766970     0.4535350     0.0627600
  C        1.2313970    -1.7075980    -0.2583110
  C       -0.0156040     2.0162910     0.1296940
  C       -1.3701120    -0.0899940    -0.0219250
  H        2.9277060     0.5711490    -0.9308000
  H        2.4285750     1.4356710     0.5340320
  H        3.1575210    -0.1728930     0.6488100
  H        0.3470430    -2.1345670    -0.7252240
  H        1.3871470    -2.2249860     0.6954000
  H        2.1022510    -1.9178450    -0.8884640
  H        0.7095660     2.4663690    -0.5519310
  H        0.1996928     2.3222419     1.0525149
  H       -1.0053580     2.3925600    -0.1303250
  H       -2.3942410    -1.6004330     0.3722060
units angstrom
no_reorient  #important for SAPT in psi4, default
symmetry c1  #important for SAPT in psi4, default
}

set PROPERTIES_ORIGIN ["COM"]
properties('MP2/aug-cc-pvtz', properties = ['dipole'])
--------------------------------------------------------------------------

    Molecular point group: c1
  Charge       = 0
  Multiplicity = 1
  Basis Set: AUG-CC-PVTZ
    Blend: AUG-CC-PVTZ
  Basis Set: (AUG-CC-PVTZ AUX)
    Blend: AUG-CC-PVTZ-JKFIT

    Orbital Energies [Eh]
    ---------------------

    Doubly Occupied:

       1A    -20.608128     2A    -20.540929     3A    -11.383921
       4A    -11.268061     5A    -11.241908     6A    -11.234404
       7A    -11.228018     8A    -11.206838     9A     -1.452312
      10A     -1.345755    11A     -1.123627    12A     -1.018382
      13A     -0.956945    14A     -0.915712    15A     -0.832653
      16A     -0.735657    17A     -0.698959    18A     -0.662532
      19A     -0.634314    20A     -0.611743    21A     -0.601628
      22A     -0.588812    23A     -0.575602    24A     -0.550509
      25A     -0.547345    26A     -0.543463    27A     -0.513043
      28A     -0.492881    29A     -0.475277    30A     -0.446689
      31A     -0.350993

  @DF-RHF Final Energy:  -382.89357570221563

   => Energetics <=

    Nuclear Repulsion Energy =            379.1621320838995075
    One-Electron Energy =               -1273.3373381397652793
    Two-Electron Energy =                 511.2816303536502005
    Total Energy =                       -382.8935757022156281
  Basis Set: (AUG-CC-PVTZ AUX)
    Blend: AUG-CC-PVTZ-RI
    Molecular point group: c1

    Geometry (in Angstrom), charge = 0, multiplicity = 1:

       Center              X                  Y                   Z               Mass
    ------------   -----------------  -----------------  -----------------  -----------------
         O           -1.363026759326    -1.349213821881     0.474651159503    15.994914619570
         O           -2.283195759326     0.504350178119    -0.419452840497    15.994914619570
         C            1.218087240674    -0.209221821881    -0.038238840497    12.000000000000
         C            0.075443240674     0.517304178119     0.034961159503    12.000000000000
         C            2.562668240674     0.463927178119     0.065050159503    12.000000000000
         C            1.317368240674    -1.697205821881    -0.256020840497    12.000000000000
         C            0.070367240674     2.026683178119     0.131984159503    12.000000000000
         C           -1.284140759326    -0.079601821881    -0.019634840497    12.000000000000
         H            3.013677240674     0.581541178119    -0.928509840497     1.007825032230
         H            2.514546240674     1.446063178119     0.536322159503     1.007825032230
         H            3.243492240674    -0.162500821881     0.651100159503     1.007825032230
         H            0.433014240674    -2.124174821881    -0.722933840497     1.007825032230
         H            1.473118240674    -2.214593821881     0.697690159503     1.007825032230
         H            2.188222240674    -1.907452821881    -0.886173840497     1.007825032230
         H            0.795537240674     2.476761178119    -0.549640840497     1.007825032230
         H            0.285664040674     2.332634078119     1.054805059503     1.007825032230
         H           -0.919386759326     2.402952178119    -0.128034840497     1.007825032230
         H           -2.308269759326    -1.590040821881     0.374496159503     1.007825032230

  Basis Set: AUG-CC-PVTZ
    Blend: AUG-CC-PVTZ
  Basis Set: (AUG-CC-PVTZ AUX)
    Blend: AUG-CC-PVTZ-JKFIT
	 Reference Energy          =    -382.8935757022156281 [Eh]
	 Singles Energy            =      -0.0000000000000000 [Eh]
	 Same-Spin Energy          =      -0.3880761213699005 [Eh]
	 Opposite-Spin Energy      =      -1.2600745651548575 [Eh]
	 Correlation Energy        =      -1.6481506865247579 [Eh]
	 Total Energy              =    -384.5417263887403578 [Eh]

	 ================> DF-SCS-MP2 Energies <==================
	-----------------------------------------------------------
	 SCS Same-Spin Scale       =       0.3333333333333333 [-]
	 SCS Opposite-Spin Scale   =       1.2000000000000000 [-]
	 SCS Same-Spin Energy      =      -0.1293587071233002 [Eh]
	 SCS Opposite-Spin Energy  =      -1.5120894781858290 [Eh]
	 SCS Correlation Energy    =      -1.6414481853091292 [Eh]
	 SCS Total Energy          =    -384.5350238875247442 [Eh]
	-----------------------------------------------------------

  Dipole Moment: [D]
     X:     2.1243      Y:    -0.8860      Z:     0.4985     Total:     2.3550

*** Psi4 exiting successfully. Buy a developer a beer!
