                               Psi4 1.4a3.dev225

  ==> Input File <==

--------------------------------------------------------------------------
#psi4
#
memory 32 gb

molecule  {
0 1
  O       -1.4489980    -1.3596060     0.4723610
  O       -2.3691670     0.4939580    -0.4217430
  C        1.1321160    -0.2196140    -0.0405290
  C       -0.0105280     0.5069120     0.0326710
  C        2.4766970     0.4535350     0.0627600
  C        1.2313970    -1.7075980    -0.2583110
  C       -0.0156040     2.0162910     0.1296940
  C       -1.3701120    -0.0899940    -0.0219250
  H        2.9277060     0.5711490    -0.9308000
  H        2.4285750     1.4356710     0.5340320
  H        3.1575210    -0.1728930     0.6488100
  H        0.3470430    -2.1345670    -0.7252240
  H        1.3871470    -2.2249860     0.6954000
  H        2.1022510    -1.9178450    -0.8884640
  H        0.7095660     2.4663690    -0.5519310
  H        0.1780717     2.2915169     0.9598407
  H       -1.0053580     2.3925600    -0.1303250
  H       -2.3942410    -1.6004330     0.3722060
units angstrom
no_reorient  #important for SAPT in psi4, default
symmetry c1  #important for SAPT in psi4, default
}

set PROPERTIES_ORIGIN ["COM"]
properties('MP2/aug-cc-pvtz', properties = ['dipole'])
--------------------------------------------------------------------------

    Molecular point group: c1
  Charge       = 0
  Multiplicity = 1
  Basis Set: AUG-CC-PVTZ
    Blend: AUG-CC-PVTZ
  Basis Set: (AUG-CC-PVTZ AUX)
    Blend: AUG-CC-PVTZ-JKFIT

    Orbital Energies [Eh]
    ---------------------

    Doubly Occupied:

       1A    -20.607889     2A    -20.540625     3A    -11.383575
       4A    -11.267872     5A    -11.241396     6A    -11.234503
       7A    -11.227869     8A    -11.194340     9A     -1.452058
      10A     -1.345477    11A     -1.124508    12A     -1.023623
      13A     -0.957854    14A     -0.924309    15A     -0.832759
      16A     -0.738079    17A     -0.698782    18A     -0.662535
      19A     -0.634072    20A     -0.618002    21A     -0.603688
      22A     -0.591623    23A     -0.582232    24A     -0.550551
      25A     -0.547500    26A     -0.543401    27A     -0.512571
      28A     -0.493071    29A     -0.475065    30A     -0.446394
      31A     -0.351685

  @DF-RHF Final Energy:  -382.86600760069592

   => Energetics <=

    Nuclear Repulsion Energy =            379.7099832350332349
    One-Electron Energy =               -1274.3361708018092031
    Two-Electron Energy =                 511.7601799660801021
    Total Energy =                       -382.8660076006959230
  Basis Set: (AUG-CC-PVTZ AUX)
    Blend: AUG-CC-PVTZ-RI
    Molecular point group: c1

    Geometry (in Angstrom), charge = 0, multiplicity = 1:

       Center              X                  Y                   Z               Mass
    ------------   -----------------  -----------------  -----------------  -----------------
         O           -1.362835730548    -1.348942357470     0.475469963317    15.994914619570
         O           -2.283004730548     0.504621642530    -0.418634036683    15.994914619570
         C            1.218278269452    -0.208950357470    -0.037420036683    12.000000000000
         C            0.075634269452     0.517575642530     0.035779963317    12.000000000000
         C            2.562859269452     0.464198642530     0.065868963317    12.000000000000
         C            1.317559269452    -1.696934357470    -0.255202036683    12.000000000000
         C            0.070558269452     2.026954642530     0.132802963317    12.000000000000
         C           -1.283949730548    -0.079330357470    -0.018816036683    12.000000000000
         H            3.013868269452     0.581812642530    -0.927691036683     1.007825032230
         H            2.514737269452     1.446334642530     0.537140963317     1.007825032230
         H            3.243683269452    -0.162229357470     0.651918963317     1.007825032230
         H            0.433205269452    -2.123903357470    -0.722115036683     1.007825032230
         H            1.473309269452    -2.214322357470     0.698508963317     1.007825032230
         H            2.188413269452    -1.907181357470    -0.885355036683     1.007825032230
         H            0.795728269452     2.477032642530    -0.548822036683     1.007825032230
         H            0.264233969452     2.302180542530     0.962949663317     1.007825032230
         H           -0.919195730548     2.403223642530    -0.127216036683     1.007825032230
         H           -2.308078730548    -1.589769357470     0.375314963317     1.007825032230

  Basis Set: AUG-CC-PVTZ
    Blend: AUG-CC-PVTZ
  Basis Set: (AUG-CC-PVTZ AUX)
    Blend: AUG-CC-PVTZ-JKFIT
	 Reference Energy          =    -382.8660076006959230 [Eh]
	 Singles Energy            =      -0.0000000000000000 [Eh]
	 Same-Spin Energy          =      -0.3881485974200369 [Eh]
	 Opposite-Spin Energy      =      -1.2599715469879582 [Eh]
	 Correlation Energy        =      -1.6481201444079951 [Eh]
	 Total Energy              =    -384.5141277451039059 [Eh]

	 ================> DF-SCS-MP2 Energies <==================
	-----------------------------------------------------------
	 SCS Same-Spin Scale       =       0.3333333333333333 [-]
	 SCS Opposite-Spin Scale   =       1.2000000000000000 [-]
	 SCS Same-Spin Energy      =      -0.1293828658066790 [Eh]
	 SCS Opposite-Spin Energy  =      -1.5119658563855498 [Eh]
	 SCS Correlation Energy    =      -1.6413487221922287 [Eh]
	 SCS Total Energy          =    -384.5073563228881426 [Eh]
	-----------------------------------------------------------

  Dipole Moment: [D]
     X:     2.1336      Y:    -0.8682      Z:     0.5166     Total:     2.3607

*** Psi4 exiting successfully. Buy a developer a beer!
