                               Psi4 1.4a3.dev225

  ==> Input File <==

--------------------------------------------------------------------------
#psi4
#
memory 32 gb

molecule  {
0 1
  O       -1.4489980    -1.3596060     0.4723610
  O       -2.3691670     0.4939580    -0.4217430
  C        1.1321160    -0.2196140    -0.0405290
  C       -0.0105280     0.5069120     0.0326710
  C        2.4766970     0.4535350     0.0627600
  C        1.2313970    -1.7075980    -0.2583110
  C       -0.0156040     2.0162910     0.1296940
  C       -1.3701120    -0.0899940    -0.0219250
  H        2.9277060     0.5711490    -0.9308000
  H        2.4285750     1.4356710     0.5340320
  H        3.1575210    -0.1728930     0.6488100
  H        0.3470430    -2.1345670    -0.7252240
  H        1.3871470    -2.2249860     0.6954000
  H        2.1022510    -1.9178450    -0.8884640
  H        0.7415029     2.5000512    -0.4914497
  H        0.2213140     2.3529670     1.1451890
  H       -1.0053580     2.3925600    -0.1303250
  H       -2.3942410    -1.6004330     0.3722060
units angstrom
no_reorient  #important for SAPT in psi4, default
symmetry c1  #important for SAPT in psi4, default
}

set PROPERTIES_ORIGIN ["COM"]
properties('MP2/aug-cc-pvtz', properties = ['dipole'])
--------------------------------------------------------------------------

    Molecular point group: c1
  Charge       = 0
  Multiplicity = 1
  Basis Set: AUG-CC-PVTZ
    Blend: AUG-CC-PVTZ
  Basis Set: (AUG-CC-PVTZ AUX)
    Blend: AUG-CC-PVTZ-JKFIT

    Orbital Energies [Eh]
    ---------------------

    Doubly Occupied:

       1A    -20.608729     2A    -20.541595     3A    -11.384811
       4A    -11.268765     5A    -11.243227     6A    -11.234588
       7A    -11.228428     8A    -11.219457     9A     -1.452924
      10A     -1.346391    11A     -1.123394    12A     -1.015257
      13A     -0.956782    14A     -0.909216    15A     -0.832959
      16A     -0.734979    17A     -0.699519    18A     -0.663011
      19A     -0.634821    20A     -0.610443    21A     -0.599955
      22A     -0.588378    23A     -0.557677    24A     -0.550914
      25A     -0.546739    26A     -0.546017    27A     -0.514171
      28A     -0.493923    29A     -0.475803    30A     -0.447386
      31A     -0.349906

  @DF-RHF Final Energy:  -382.89900689731434

   => Energetics <=

    Nuclear Repulsion Energy =            378.6328745778320695
    One-Electron Energy =               -1272.3034328994781390
    Two-Electron Energy =                 510.7715514243316761
    Total Energy =                       -382.8990068973143366
  Basis Set: (AUG-CC-PVTZ AUX)
    Blend: AUG-CC-PVTZ-RI
    Molecular point group: c1

    Geometry (in Angstrom), charge = 0, multiplicity = 1:

       Center              X                  Y                   Z               Mass
    ------------   -----------------  -----------------  -----------------  -----------------
         O           -1.363499960891    -1.349782879320     0.473297986499    15.994914619570
         O           -2.283668960891     0.503781120680    -0.420806013501    15.994914619570
         C            1.217614039109    -0.209790879320    -0.039592013501    12.000000000000
         C            0.074970039109     0.516735120680     0.033607986499    12.000000000000
         C            2.562195039109     0.463358120680     0.063696986499    12.000000000000
         C            1.316895039109    -1.697774879320    -0.257374013501    12.000000000000
         C            0.069894039109     2.026114120680     0.130630986499    12.000000000000
         C           -1.284613960891    -0.080170879320    -0.020988013501    12.000000000000
         H            3.013204039109     0.580972120680    -0.929863013501     1.007825032230
         H            2.514073039109     1.445494120680     0.534968986499     1.007825032230
         H            3.243019039109    -0.163069879320     0.649746986499     1.007825032230
         H            0.432541039109    -2.124743879320    -0.724287013501     1.007825032230
         H            1.472645039109    -2.215162879320     0.696336986499     1.007825032230
         H            2.187749039109    -1.908021879320    -0.887527013501     1.007825032230
         H            0.827000939109     2.509874320680    -0.490512713501     1.007825032230
         H            0.306812039109     2.362790120680     1.146125986499     1.007825032230
         H           -0.919859960891     2.402383120680    -0.129388013501     1.007825032230
         H           -2.308742960891    -1.590609879320     0.373142986499     1.007825032230

  Basis Set: AUG-CC-PVTZ
    Blend: AUG-CC-PVTZ
  Basis Set: (AUG-CC-PVTZ AUX)
    Blend: AUG-CC-PVTZ-JKFIT
	 Reference Energy          =    -382.8990068973143366 [Eh]
	 Singles Energy            =      -0.0000000000000000 [Eh]
	 Same-Spin Energy          =      -0.3880814350893772 [Eh]
	 Opposite-Spin Energy      =      -1.2604764054609887 [Eh]
	 Correlation Energy        =      -1.6485578405503660 [Eh]
	 Total Energy              =    -384.5475647378647182 [Eh]

	 ================> DF-SCS-MP2 Energies <==================
	-----------------------------------------------------------
	 SCS Same-Spin Scale       =       0.3333333333333333 [-]
	 SCS Opposite-Spin Scale   =       1.2000000000000000 [-]
	 SCS Same-Spin Energy      =      -0.1293604783631257 [Eh]
	 SCS Opposite-Spin Energy  =      -1.5125716865531864 [Eh]
	 SCS Correlation Energy    =      -1.6419321649163121 [Eh]
	 SCS Total Energy          =    -384.5409390622306205 [Eh]
	-----------------------------------------------------------

  Dipole Moment: [D]
     X:     2.1276      Y:    -0.9171      Z:     0.4808     Total:     2.3662

*** Psi4 exiting successfully. Buy a developer a beer!
