                               Psi4 1.4a3.dev225

  ==> Input File <==

--------------------------------------------------------------------------
#psi4
#
memory 32 gb

molecule  {
0 1
  O       -1.4489980    -1.3596060     0.4723610
  O       -2.3691670     0.4939580    -0.4217430
  C        1.1321160    -0.2196140    -0.0405290
  C       -0.0105280     0.5069120     0.0326710
  C        2.4766970     0.4535350     0.0627600
  C        1.2313970    -1.7075980    -0.2583110
  C       -0.0156040     2.0162910     0.1296940
  C       -1.3701120    -0.0899940    -0.0219250
  H        2.9277060     0.5711490    -0.9308000
  H        2.4285750     1.4356710     0.5340320
  H        3.1575210    -0.1728930     0.6488100
  H        0.3633088    -2.1267138    -0.7166361
  H        1.3871470    -2.2249860     0.6954000
  H        2.1022510    -1.9178450    -0.8884640
  H        0.7095660     2.4663690    -0.5519310
  H        0.2213140     2.3529670     1.1451890
  H       -1.0053580     2.3925600    -0.1303250
  H       -2.3942410    -1.6004330     0.3722060
units angstrom
no_reorient  #important for SAPT in psi4, default
symmetry c1  #important for SAPT in psi4, default
}

set PROPERTIES_ORIGIN ["COM"]
properties('MP2/aug-cc-pvtz', properties = ['dipole'])
--------------------------------------------------------------------------

    Molecular point group: c1
  Charge       = 0
  Multiplicity = 1
  Basis Set: AUG-CC-PVTZ
    Blend: AUG-CC-PVTZ
  Basis Set: (AUG-CC-PVTZ AUX)
    Blend: AUG-CC-PVTZ-JKFIT

    Orbital Energies [Eh]
    ---------------------

    Doubly Occupied:

       1A    -20.608532     2A    -20.541336     3A    -11.384397
       4A    -11.268427     5A    -11.242574     6A    -11.234244
       7A    -11.226085     8A    -11.219351     9A     -1.452681
      10A     -1.346143    11A     -1.123429    12A     -1.015609
      13A     -0.957540    14A     -0.909129    15A     -0.832853
      16A     -0.734060    17A     -0.699307    18A     -0.664050
      19A     -0.634689    20A     -0.609859    21A     -0.600285
      22A     -0.588508    23A     -0.563314    24A     -0.550462
      25A     -0.547188    26A     -0.543726    27A     -0.514128
      28A     -0.493373    29A     -0.475761    30A     -0.447103
      31A     -0.350326

  @DF-RHF Final Energy:  -382.89964647815333

   => Energetics <=

    Nuclear Repulsion Energy =            378.7573865851052233
    One-Electron Energy =               -1272.5571301317152120
    Two-Electron Energy =                 510.9000970684566596
    Total Energy =                       -382.8996464781533291
  Basis Set: (AUG-CC-PVTZ AUX)
    Blend: AUG-CC-PVTZ-RI
    Molecular point group: c1

    Geometry (in Angstrom), charge = 0, multiplicity = 1:

       Center              X                  Y                   Z               Mass
    ------------   -----------------  -----------------  -----------------  -----------------
         O           -1.363361502114    -1.349554672508     0.473756479951    15.994914619570
         O           -2.283530502114     0.504009327492    -0.420347520049    15.994914619570
         C            1.217752497886    -0.209562672508    -0.039133520049    12.000000000000
         C            0.075108497886     0.516963327492     0.034066479951    12.000000000000
         C            2.562333497886     0.463586327492     0.064155479951    12.000000000000
         C            1.317033497886    -1.697546672508    -0.256915520049    12.000000000000
         C            0.070032497886     2.026342327492     0.131089479951    12.000000000000
         C           -1.284475502114    -0.079942672508    -0.020529520049    12.000000000000
         H            3.013342497886     0.581200327492    -0.929404520049     1.007825032230
         H            2.514211497886     1.445722327492     0.535427479951     1.007825032230
         H            3.243157497886    -0.162841672508     0.650205479951     1.007825032230
         H            0.448945297886    -2.116662472508    -0.715240620049     1.007825032230
         H            1.472783497886    -2.214934672508     0.696795479951     1.007825032230
         H            2.187887497886    -1.907793672508    -0.887068520049     1.007825032230
         H            0.795202497886     2.476420327492    -0.550535520049     1.007825032230
         H            0.306950497886     2.363018327492     1.146584479951     1.007825032230
         H           -0.919721502114     2.402611327492    -0.128929520049     1.007825032230
         H           -2.308604502114    -1.590381672508     0.373601479951     1.007825032230

  Basis Set: AUG-CC-PVTZ
    Blend: AUG-CC-PVTZ
  Basis Set: (AUG-CC-PVTZ AUX)
    Blend: AUG-CC-PVTZ-JKFIT
	 Reference Energy          =    -382.8996464781533291 [Eh]
	 Singles Energy            =      -0.0000000000000000 [Eh]
	 Same-Spin Energy          =      -0.3880118079098954 [Eh]
	 Opposite-Spin Energy      =      -1.2603189697780393 [Eh]
	 Correlation Energy        =      -1.6483307776879346 [Eh]
	 Total Energy              =    -384.5479772558412606 [Eh]

	 ================> DF-SCS-MP2 Energies <==================
	-----------------------------------------------------------
	 SCS Same-Spin Scale       =       0.3333333333333333 [-]
	 SCS Opposite-Spin Scale   =       1.2000000000000000 [-]
	 SCS Same-Spin Energy      =      -0.1293372693032985 [Eh]
	 SCS Opposite-Spin Energy  =      -1.5123827637336471 [Eh]
	 SCS Correlation Energy    =      -1.6417200330369455 [Eh]
	 SCS Total Energy          =    -384.5413665111902901 [Eh]
	-----------------------------------------------------------

  Dipole Moment: [D]
     X:     2.1120      Y:    -0.9227      Z:     0.4621     Total:     2.3507

*** Psi4 exiting successfully. Buy a developer a beer!
