                               Psi4 1.4a3.dev225

  ==> Input File <==

--------------------------------------------------------------------------
#psi4
#
memory 32 gb

molecule  {
0 1
  O       -1.4489980    -1.3596060     0.4723610
  O       -2.3691670     0.4939580    -0.4217430
  C        1.1321160    -0.2196140    -0.0405290
  C       -0.0105280     0.5069120     0.0326710
  C        2.4766970     0.4535350     0.0627600
  C        1.2313970    -1.7075980    -0.2583110
  C       -0.0156040     2.0162910     0.1296940
  C       -1.3864321    -0.0804548    -0.0284563
  H        2.9277060     0.5711490    -0.9308000
  H        2.4285750     1.4356710     0.5340320
  H        3.1575210    -0.1728930     0.6488100
  H        0.3470430    -2.1345670    -0.7252240
  H        1.3871470    -2.2249860     0.6954000
  H        2.1022510    -1.9178450    -0.8884640
  H        0.7095660     2.4663690    -0.5519310
  H        0.2213140     2.3529670     1.1451890
  H       -1.0053580     2.3925600    -0.1303250
  H       -2.3942410    -1.6004330     0.3722060
units angstrom
no_reorient  #important for SAPT in psi4, default
symmetry c1  #important for SAPT in psi4, default
}

set PROPERTIES_ORIGIN ["COM"]
properties('MP2/aug-cc-pvtz', properties = ['dipole'])
--------------------------------------------------------------------------

    Molecular point group: c1
  Charge       = 0
  Multiplicity = 1
  Basis Set: AUG-CC-PVTZ
    Blend: AUG-CC-PVTZ
  Basis Set: (AUG-CC-PVTZ AUX)
    Blend: AUG-CC-PVTZ-JKFIT

    Orbital Energies [Eh]
    ---------------------

    Doubly Occupied:

       1A    -20.605666     2A    -20.545582     3A    -11.383413
       4A    -11.266935     5A    -11.242376     6A    -11.233549
       7A    -11.227032     8A    -11.219081     9A     -1.454242
      10A     -1.355207    11A     -1.121444    12A     -1.014038
      13A     -0.954986    14A     -0.906265    15A     -0.830277
      16A     -0.731103    17A     -0.700599    18A     -0.662313
      19A     -0.635033    20A     -0.613757    21A     -0.599934
      22A     -0.587260    23A     -0.562744    24A     -0.550382
      25A     -0.546592    26A     -0.541940    27A     -0.513658
      28A     -0.492952    29A     -0.480882    30A     -0.447637
      31A     -0.349461

  @DF-RHF Final Energy:  -382.90029651815956

   => Energetics <=

    Nuclear Repulsion Energy =            378.6586158540959559
    One-Electron Energy =               -1272.3651502765389978
    Two-Electron Energy =                 510.8062379042834777
    Total Energy =                       -382.9002965181595641
  Basis Set: (AUG-CC-PVTZ AUX)
    Blend: AUG-CC-PVTZ-RI
    Molecular point group: c1

    Geometry (in Angstrom), charge = 0, multiplicity = 1:

       Center              X                  Y                   Z               Mass
    ------------   -----------------  -----------------  -----------------  -----------------
         O           -1.361500909026    -1.350488814197     0.474519451510    15.994914619570
         O           -2.281669909026     0.503075185803    -0.419584548490    15.994914619570
         C            1.219613090974    -0.210496814197    -0.038370548490    12.000000000000
         C            0.076969090974     0.516029185803     0.034829451510    12.000000000000
         C            2.564194090974     0.462652185803     0.064918451510    12.000000000000
         C            1.318894090974    -1.698480814197    -0.256152548490    12.000000000000
         C            0.071893090974     2.025408185803     0.131852451510    12.000000000000
         C           -1.298935009026    -0.071337614197    -0.026297848490    12.000000000000
         H            3.015203090974     0.580266185803    -0.928641548490     1.007825032230
         H            2.516072090974     1.444788185803     0.536190451510     1.007825032230
         H            3.245018090974    -0.163775814197     0.650968451510     1.007825032230
         H            0.434540090974    -2.125449814197    -0.723065548490     1.007825032230
         H            1.474644090974    -2.215868814197     0.697558451510     1.007825032230
         H            2.189748090974    -1.908727814197    -0.886305548490     1.007825032230
         H            0.797063090974     2.475486185803    -0.549772548490     1.007825032230
         H            0.308811090974     2.362084185803     1.147347451510     1.007825032230
         H           -0.917860909026     2.401677185803    -0.128166548490     1.007825032230
         H           -2.306743909026    -1.591315814197     0.374364451510     1.007825032230

  Basis Set: AUG-CC-PVTZ
    Blend: AUG-CC-PVTZ
  Basis Set: (AUG-CC-PVTZ AUX)
    Blend: AUG-CC-PVTZ-JKFIT
	 Reference Energy          =    -382.9002965181595641 [Eh]
	 Singles Energy            =      -0.0000000000000000 [Eh]
	 Same-Spin Energy          =      -0.3876562676284796 [Eh]
	 Opposite-Spin Energy      =      -1.2598539660089909 [Eh]
	 Correlation Energy        =      -1.6475102336374705 [Eh]
	 Total Energy              =    -384.5478067517970544 [Eh]

	 ================> DF-SCS-MP2 Energies <==================
	-----------------------------------------------------------
	 SCS Same-Spin Scale       =       0.3333333333333333 [-]
	 SCS Opposite-Spin Scale   =       1.2000000000000000 [-]
	 SCS Same-Spin Energy      =      -0.1292187558761599 [Eh]
	 SCS Opposite-Spin Energy  =      -1.5118247592107890 [Eh]
	 SCS Correlation Energy    =      -1.6410435150869489 [Eh]
	 SCS Total Energy          =    -384.5413400332465130 [Eh]
	-----------------------------------------------------------

  Dipole Moment: [D]
     X:     1.9925      Y:    -0.8310      Z:     0.4141     Total:     2.1982

*** Psi4 exiting successfully. Buy a developer a beer!
