                               Psi4 1.4a3.dev225

  ==> Input File <==

--------------------------------------------------------------------------
#psi4
#
memory 32 gb

molecule  {
0 1
  O       -1.4489980    -1.3596060     0.4723610
  O       -2.3691670     0.4939580    -0.4217430
  C        1.1245441    -0.2123305     0.0641471
  C       -0.0105280     0.5069120     0.0326710
  C        2.4766970     0.4535350     0.0627600
  C        1.2313970    -1.7075980    -0.2583110
  C       -0.0156040     2.0162910     0.1296940
  C       -1.3701120    -0.0899940    -0.0219250
  H        2.9277060     0.5711490    -0.9308000
  H        2.4285750     1.4356710     0.5340320
  H        3.1575210    -0.1728930     0.6488100
  H        0.3470430    -2.1345670    -0.7252240
  H        1.3871470    -2.2249860     0.6954000
  H        2.1022510    -1.9178450    -0.8884640
  H        0.7095660     2.4663690    -0.5519310
  H        0.2213140     2.3529670     1.1451890
  H       -1.0053580     2.3925600    -0.1303250
  H       -2.3942410    -1.6004330     0.3722060
units angstrom
no_reorient  #important for SAPT in psi4, default
symmetry c1  #important for SAPT in psi4, default
}

set PROPERTIES_ORIGIN ["COM"]
properties('MP2/aug-cc-pvtz', properties = ['dipole'])
--------------------------------------------------------------------------

    Molecular point group: c1
  Charge       = 0
  Multiplicity = 1
  Basis Set: AUG-CC-PVTZ
    Blend: AUG-CC-PVTZ
  Basis Set: (AUG-CC-PVTZ AUX)
    Blend: AUG-CC-PVTZ-JKFIT

    Orbital Energies [Eh]
    ---------------------

    Doubly Occupied:

       1A    -20.608782     2A    -20.542296     3A    -11.385298
       4A    -11.267709     5A    -11.242853     6A    -11.234219
       7A    -11.228908     8A    -11.219555     9A     -1.453234
      10A     -1.346851    11A     -1.123751    12A     -1.013543
      13A     -0.954461    14A     -0.909114    15A     -0.834973
      16A     -0.734646    17A     -0.699612    18A     -0.661093
      19A     -0.634190    20A     -0.610537    21A     -0.598327
      22A     -0.588233    23A     -0.563306    24A     -0.551984
      25A     -0.545572    26A     -0.542704    27A     -0.514164
      28A     -0.486114    29A     -0.476450    30A     -0.447197
      31A     -0.354039

  @DF-RHF Final Energy:  -382.89533551326360

   => Energetics <=

    Nuclear Repulsion Energy =            378.6881010453540171
    One-Electron Energy =               -1272.4194460633166273
    Two-Electron Energy =                 510.8360095046990637
    Total Energy =                       -382.8953355132636034
  Basis Set: (AUG-CC-PVTZ AUX)
    Blend: AUG-CC-PVTZ-RI
    Molecular point group: c1

    Geometry (in Angstrom), charge = 0, multiplicity = 1:

       Center              X                  Y                   Z               Mass
    ------------   -----------------  -----------------  -----------------  -----------------
         O           -1.362421222582    -1.350251513805     0.462820395954    15.994914619570
         O           -2.282590222582     0.503312486195    -0.431283604046    15.994914619570
         C            1.211120877418    -0.202976013805     0.054606495954    12.000000000000
         C            0.076048777418     0.516266486195     0.023130395954    12.000000000000
         C            2.563273777418     0.462889486195     0.053219395954    12.000000000000
         C            1.317973777418    -1.698243513805    -0.267851604046    12.000000000000
         C            0.070972777418     2.025645486195     0.120153395954    12.000000000000
         C           -1.283535222582    -0.080639513805    -0.031465604046    12.000000000000
         H            3.014282777418     0.580503486195    -0.940340604046     1.007825032230
         H            2.515151777418     1.445025486195     0.524491395954     1.007825032230
         H            3.244097777418    -0.163538513805     0.639269395954     1.007825032230
         H            0.433619777418    -2.125212513805    -0.734764604046     1.007825032230
         H            1.473723777418    -2.215631513805     0.685859395954     1.007825032230
         H            2.188827777418    -1.908490513805    -0.898004604046     1.007825032230
         H            0.796142777418     2.475723486195    -0.561471604046     1.007825032230
         H            0.307890777418     2.362321486195     1.135648395954     1.007825032230
         H           -0.918781222582     2.401914486195    -0.139865604046     1.007825032230
         H           -2.307664222582    -1.591078513805     0.362665395954     1.007825032230

  Basis Set: AUG-CC-PVTZ
    Blend: AUG-CC-PVTZ
  Basis Set: (AUG-CC-PVTZ AUX)
    Blend: AUG-CC-PVTZ-JKFIT
	 Reference Energy          =    -382.8953355132636034 [Eh]
	 Singles Energy            =      -0.0000000000000000 [Eh]
	 Same-Spin Energy          =      -0.3880016277357935 [Eh]
	 Opposite-Spin Energy      =      -1.2607854478728044 [Eh]
	 Correlation Energy        =      -1.6487870756085981 [Eh]
	 Total Energy              =    -384.5441225888721988 [Eh]

	 ================> DF-SCS-MP2 Energies <==================
	-----------------------------------------------------------
	 SCS Same-Spin Scale       =       0.3333333333333333 [-]
	 SCS Opposite-Spin Scale   =       1.2000000000000000 [-]
	 SCS Same-Spin Energy      =      -0.1293338759119312 [Eh]
	 SCS Opposite-Spin Energy  =      -1.5129425374473653 [Eh]
	 SCS Correlation Energy    =      -1.6422764133592964 [Eh]
	 SCS Total Energy          =    -384.5376119266229011 [Eh]
	-----------------------------------------------------------

  Dipole Moment: [D]
     X:     2.0791      Y:    -0.8711      Z:     0.4053     Total:     2.2904

*** Psi4 exiting successfully. Buy a developer a beer!
