                               Psi4 1.4a3.dev225

  ==> Input File <==

--------------------------------------------------------------------------
#psi4
#
memory 32 gb

molecule  {
0 1
  O       -1.4489980    -1.3596060     0.4723610
  O       -2.3691670     0.4939580    -0.4217430
  C        1.1321160    -0.2196140    -0.0405290
  C       -0.0105280     0.5069120     0.0326710
  C        2.4766970     0.4535350     0.0627600
  C        1.2313970    -1.7075980    -0.2583110
  C       -0.0156040     2.0162910     0.1296940
  C       -1.3701120    -0.0899940    -0.0219250
  H        2.9277060     0.5711490    -0.9308000
  H        2.4285750     1.4356710     0.5340320
  H        3.1575210    -0.1728930     0.6488100
  H        0.3470430    -2.1345670    -0.7252240
  H        1.3871470    -2.2249860     0.6954000
  H        2.1022510    -1.9178450    -0.8884640
  H        0.7095660     2.4663690    -0.5519310
  H        0.2105034     2.3376045     1.0988519
  H       -1.0053580     2.3925600    -0.1303250
  H       -2.3942410    -1.6004330     0.3722060
units angstrom
no_reorient  #important for SAPT in psi4, default
symmetry c1  #important for SAPT in psi4, default
}

set PROPERTIES_ORIGIN ["COM"]
properties('MP2/aug-cc-pvtz', properties = ['dipole'])
--------------------------------------------------------------------------

    Molecular point group: c1
  Charge       = 0
  Multiplicity = 1
  Basis Set: AUG-CC-PVTZ
    Blend: AUG-CC-PVTZ
  Basis Set: (AUG-CC-PVTZ AUX)
    Blend: AUG-CC-PVTZ-JKFIT

    Orbital Energies [Eh]
    ---------------------

    Doubly Occupied:

       1A    -20.608284     2A    -20.541119     3A    -11.384140
       4A    -11.268264     5A    -11.242240     6A    -11.234380
       7A    -11.228149     8A    -11.213161     9A     -1.452475
      10A     -1.345932    11A     -1.123411    12A     -1.016629
      13A     -0.956694    14A     -0.911985    15A     -0.832663
      16A     -0.734726    17A     -0.699091    18A     -0.662625
      19A     -0.634492    20A     -0.610503    21A     -0.600806
      22A     -0.588170    23A     -0.569648    24A     -0.550501
      25A     -0.547177    26A     -0.543353    27A     -0.513402
      28A     -0.492781    29A     -0.475413    30A     -0.446886
      31A     -0.350659

  @DF-RHF Final Energy:  -382.89856776630427

   => Energetics <=

    Nuclear Repulsion Energy =            378.9149961838400031
    One-Electron Energy =               -1272.8676064789203792
    Two-Electron Energy =                 511.0540425287761082
    Total Energy =                       -382.8985677663042679
  Basis Set: (AUG-CC-PVTZ AUX)
    Blend: AUG-CC-PVTZ-RI
    Molecular point group: c1

    Geometry (in Angstrom), charge = 0, multiplicity = 1:

       Center              X                  Y                   Z               Mass
    ------------   -----------------  -----------------  -----------------  -----------------
         O           -1.363122274156    -1.349349554971     0.474241758480    15.994914619570
         O           -2.283291274156     0.504214445029    -0.419862241520    15.994914619570
         C            1.217991725844    -0.209357554971    -0.038648241520    12.000000000000
         C            0.075347725844     0.517168445029     0.034551758480    12.000000000000
         C            2.562572725844     0.463791445029     0.064640758480    12.000000000000
         C            1.317272725844    -1.697341554971    -0.256430241520    12.000000000000
         C            0.070271725844     2.026547445029     0.131574758480    12.000000000000
         C           -1.284236274156    -0.079737554971    -0.020044241520    12.000000000000
         H            3.013581725844     0.581405445029    -0.928919241520     1.007825032230
         H            2.514450725844     1.445927445029     0.535912758480     1.007825032230
         H            3.243396725844    -0.162636554971     0.650690758480     1.007825032230
         H            0.432918725844    -2.124310554971    -0.723343241520     1.007825032230
         H            1.473022725844    -2.214729554971     0.697280758480     1.007825032230
         H            2.188126725844    -1.907588554971    -0.886583241520     1.007825032230
         H            0.795441725844     2.476625445029    -0.550050241520     1.007825032230
         H            0.296379125844     2.347860945029     1.100732658480     1.007825032230
         H           -0.919482274156     2.402816445029    -0.128444241520     1.007825032230
         H           -2.308365274156    -1.590176554971     0.374086758480     1.007825032230

  Basis Set: AUG-CC-PVTZ
    Blend: AUG-CC-PVTZ
  Basis Set: (AUG-CC-PVTZ AUX)
    Blend: AUG-CC-PVTZ-JKFIT
	 Reference Energy          =    -382.8985677663042679 [Eh]
	 Singles Energy            =      -0.0000000000000000 [Eh]
	 Same-Spin Energy          =      -0.3880606309083551 [Eh]
	 Opposite-Spin Energy      =      -1.2602478286447441 [Eh]
	 Correlation Energy        =      -1.6483084595530992 [Eh]
	 Total Energy              =    -384.5468762258573747 [Eh]

	 ================> DF-SCS-MP2 Energies <==================
	-----------------------------------------------------------
	 SCS Same-Spin Scale       =       0.3333333333333333 [-]
	 SCS Opposite-Spin Scale   =       1.2000000000000000 [-]
	 SCS Same-Spin Energy      =      -0.1293535436361183 [Eh]
	 SCS Opposite-Spin Energy  =      -1.5122973943736928 [Eh]
	 SCS Correlation Energy    =      -1.6416509380098112 [Eh]
	 SCS Total Energy          =    -384.5402187043140998 [Eh]
	-----------------------------------------------------------

  Dipole Moment: [D]
     X:     2.1193      Y:    -0.8995      Z:     0.4842     Total:     2.3527

*** Psi4 exiting successfully. Buy a developer a beer!
