                               Psi4 1.4a3.dev225

  ==> Input File <==

--------------------------------------------------------------------------
#psi4
#
memory 32 gb

molecule  {
0 1
  O       -1.4489980    -1.3596060     0.4723610
  O       -2.3691670     0.4939580    -0.4217430
  C        1.1321160    -0.2196140    -0.0405290
  C       -0.0105280     0.5069120     0.0326710
  C        2.4766970     0.4535350     0.0627600
  C        1.2313970    -1.7075980    -0.2583110
  C       -0.0156040     2.0162910     0.1296940
  C       -1.3701120    -0.0899940    -0.0219250
  H        2.9277060     0.5711490    -0.9308000
  H        2.4285750     1.4356710     0.5340320
  H        3.1575210    -0.1728930     0.6488100
  H        0.2657140    -2.1738329    -0.7681633
  H        1.3871470    -2.2249860     0.6954000
  H        2.1022510    -1.9178450    -0.8884640
  H        0.7095660     2.4663690    -0.5519310
  H        0.2213140     2.3529670     1.1451890
  H       -1.0053580     2.3925600    -0.1303250
  H       -2.3942410    -1.6004330     0.3722060
units angstrom
no_reorient  #important for SAPT in psi4, default
symmetry c1  #important for SAPT in psi4, default
}

set PROPERTIES_ORIGIN ["COM"]
properties('MP2/aug-cc-pvtz', properties = ['dipole'])
--------------------------------------------------------------------------

    Molecular point group: c1
  Charge       = 0
  Multiplicity = 1
  Basis Set: AUG-CC-PVTZ
    Blend: AUG-CC-PVTZ
  Basis Set: (AUG-CC-PVTZ AUX)
    Blend: AUG-CC-PVTZ-JKFIT

    Orbital Energies [Eh]
    ---------------------

    Doubly Occupied:

       1A    -20.608116     2A    -20.541351     3A    -11.384394
       4A    -11.269236     5A    -11.242972     6A    -11.239067
       7A    -11.235152     8A    -11.219610     9A     -1.452579
      10A     -1.346102    11A     -1.123064    12A     -1.014443
      13A     -0.952657    14A     -0.906977    15A     -0.832215
      16A     -0.733683    17A     -0.699025    18A     -0.657796
      19A     -0.634780    20A     -0.610130    21A     -0.600371
      22A     -0.585797    23A     -0.562964    24A     -0.551004
      25A     -0.546933    26A     -0.536497    27A     -0.512361
      28A     -0.487897    29A     -0.473644    30A     -0.447207
      31A     -0.350386

  @DF-RHF Final Energy:  -382.89235712062822

   => Energetics <=

    Nuclear Repulsion Energy =            378.3366495000079226
    One-Electron Energy =               -1271.7411933797609436
    Two-Electron Energy =                 510.5121867591247451
    Total Energy =                       -382.8923571206282190
  Basis Set: (AUG-CC-PVTZ AUX)
    Blend: AUG-CC-PVTZ-RI
    Molecular point group: c1

    Geometry (in Angstrom), charge = 0, multiplicity = 1:

       Center              X                  Y                   Z               Mass
    ------------   -----------------  -----------------  -----------------  -----------------
         O           -1.362499223352    -1.349138361401     0.474211737918    15.994914619570
         O           -2.282668223352     0.504425638599    -0.419892262082    15.994914619570
         C            1.218614776648    -0.209146361401    -0.038678262082    12.000000000000
         C            0.075970776648     0.517379638599     0.034521737918    12.000000000000
         C            2.563195776648     0.464002638599     0.064610737918    12.000000000000
         C            1.317895776648    -1.697130361401    -0.256460262082    12.000000000000
         C            0.070894776648     2.026758638599     0.131544737918    12.000000000000
         C           -1.283613223352    -0.079526361401    -0.020074262082    12.000000000000
         H            3.014204776648     0.581616638599    -0.928949262082     1.007825032230
         H            2.515073776648     1.446138638599     0.535882737918     1.007825032230
         H            3.244019776648    -0.162425361401     0.650660737918     1.007825032230
         H            0.352212776648    -2.163365261401    -0.766312562082     1.007825032230
         H            1.473645776648    -2.214518361401     0.697250737918     1.007825032230
         H            2.188749776648    -1.907377361401    -0.886613262082     1.007825032230
         H            0.796064776648     2.476836638599    -0.550080262082     1.007825032230
         H            0.307812776648     2.363434638599     1.147039737918     1.007825032230
         H           -0.918859223352     2.403027638599    -0.128474262082     1.007825032230
         H           -2.307742223352    -1.589965361401     0.374056737918     1.007825032230

  Basis Set: AUG-CC-PVTZ
    Blend: AUG-CC-PVTZ
  Basis Set: (AUG-CC-PVTZ AUX)
    Blend: AUG-CC-PVTZ-JKFIT
	 Reference Energy          =    -382.8923571206282190 [Eh]
	 Singles Energy            =      -0.0000000000000000 [Eh]
	 Same-Spin Energy          =      -0.3882904829029701 [Eh]
	 Opposite-Spin Energy      =      -1.2614802322182030 [Eh]
	 Correlation Energy        =      -1.6497707151211731 [Eh]
	 Total Energy              =    -384.5421278357493975 [Eh]

	 ================> DF-SCS-MP2 Energies <==================
	-----------------------------------------------------------
	 SCS Same-Spin Scale       =       0.3333333333333333 [-]
	 SCS Opposite-Spin Scale   =       1.2000000000000000 [-]
	 SCS Same-Spin Energy      =      -0.1294301609676567 [Eh]
	 SCS Opposite-Spin Energy  =      -1.5137762786618436 [Eh]
	 SCS Correlation Energy    =      -1.6432064396295003 [Eh]
	 SCS Total Energy          =    -384.5355635602577422 [Eh]
	-----------------------------------------------------------

  Dipole Moment: [D]
     X:     2.1286      Y:    -0.8789      Z:     0.4925     Total:     2.3550

*** Psi4 exiting successfully. Buy a developer a beer!
