                               Psi4 1.4a3.dev225

  ==> Input File <==

--------------------------------------------------------------------------
#psi4
#
memory 32 gb

molecule  {
0 1
  O       -1.4489980    -1.3596060     0.4723610
  O       -2.3691670     0.4939580    -0.4217430
  C        1.1321160    -0.2196140    -0.0405290
  C       -0.0105280     0.5069120     0.0326710
  C        2.4766970     0.4535350     0.0627600
  C        1.2313970    -1.7075980    -0.2583110
  C       -0.0156040     2.0162910     0.1296940
  C       -1.3701120    -0.0899940    -0.0219250
  H        2.9277060     0.5711490    -0.9308000
  H        2.4285750     1.4356710     0.5340320
  H        3.1575210    -0.1728930     0.6488100
  H        0.3470430    -2.1345670    -0.7252240
  H        1.3535088    -2.2113647     0.7075156
  H        2.1022510    -1.9178450    -0.8884640
  H        0.7095660     2.4663690    -0.5519310
  H        0.2213140     2.3529670     1.1451890
  H       -1.0053580     2.3925600    -0.1303250
  H       -2.3942410    -1.6004330     0.3722060
units angstrom
no_reorient  #important for SAPT in psi4, default
symmetry c1  #important for SAPT in psi4, default
}

set PROPERTIES_ORIGIN ["COM"]
properties('MP2/aug-cc-pvtz', properties = ['dipole'])
--------------------------------------------------------------------------

    Molecular point group: c1
  Charge       = 0
  Multiplicity = 1
  Basis Set: AUG-CC-PVTZ
    Blend: AUG-CC-PVTZ
  Basis Set: (AUG-CC-PVTZ AUX)
    Blend: AUG-CC-PVTZ-JKFIT

    Orbital Energies [Eh]
    ---------------------

    Doubly Occupied:

       1A    -20.608536     2A    -20.541254     3A    -11.384323
       4A    -11.268386     5A    -11.242345     6A    -11.234389
       7A    -11.228330     8A    -11.219272     9A     -1.452682
      10A     -1.346111    11A     -1.123325    12A     -1.015263
      13A     -0.956677    14A     -0.908539    15A     -0.832539
      16A     -0.733898    17A     -0.699297    18A     -0.662726
      19A     -0.634257    20A     -0.610660    21A     -0.600719
      22A     -0.587067    23A     -0.563451    24A     -0.551527
      25A     -0.547046    26A     -0.542345    27A     -0.513125
      28A     -0.492613    29A     -0.475565    30A     -0.447051
      31A     -0.350125

  @DF-RHF Final Energy:  -382.89940512976943

   => Energetics <=

    Nuclear Repulsion Energy =            378.7316650373202833
    One-Electron Energy =               -1272.5152611720927780
    Two-Electron Energy =                 510.8841910050031174
    Total Energy =                       -382.8994051297694341
  Basis Set: (AUG-CC-PVTZ AUX)
    Blend: AUG-CC-PVTZ-RI
    Molecular point group: c1

    Geometry (in Angstrom), charge = 0, multiplicity = 1:

       Center              X                  Y                   Z               Mass
    ------------   -----------------  -----------------  -----------------  -----------------
         O           -1.362920585596    -1.349605635368     0.473725311683    15.994914619570
         O           -2.283089585596     0.503958364632    -0.420378688317    15.994914619570
         C            1.218193414404    -0.209613635368    -0.039164688317    12.000000000000
         C            0.075549414404     0.516912364632     0.034035311683    12.000000000000
         C            2.562774414404     0.463535364632     0.064124311683    12.000000000000
         C            1.317474414404    -1.697597635368    -0.256946688317    12.000000000000
         C            0.070473414404     2.026291364632     0.131058311683    12.000000000000
         C           -1.284034585596    -0.079993635368    -0.020560688317    12.000000000000
         H            3.013783414404     0.581149364632    -0.929435688317     1.007825032230
         H            2.514652414404     1.445671364632     0.535396311683     1.007825032230
         H            3.243598414404    -0.162892635368     0.650174311683     1.007825032230
         H            0.433120414404    -2.124566635368    -0.723859688317     1.007825032230
         H            1.439586214404    -2.201364335368     0.708879911683     1.007825032230
         H            2.188328414404    -1.907844635368    -0.887099688317     1.007825032230
         H            0.795643414404     2.476369364632    -0.550566688317     1.007825032230
         H            0.307391414404     2.362967364632     1.146553311683     1.007825032230
         H           -0.919280585596     2.402560364632    -0.128960688317     1.007825032230
         H           -2.308163585596    -1.590432635368     0.373570311683     1.007825032230

  Basis Set: AUG-CC-PVTZ
    Blend: AUG-CC-PVTZ
  Basis Set: (AUG-CC-PVTZ AUX)
    Blend: AUG-CC-PVTZ-JKFIT
	 Reference Energy          =    -382.8994051297694341 [Eh]
	 Singles Energy            =      -0.0000000000000000 [Eh]
	 Same-Spin Energy          =      -0.3880674299427266 [Eh]
	 Opposite-Spin Energy      =      -1.2605032982620072 [Eh]
	 Correlation Energy        =      -1.6485707282047339 [Eh]
	 Total Energy              =    -384.5479758579741656 [Eh]

	 ================> DF-SCS-MP2 Energies <==================
	-----------------------------------------------------------
	 SCS Same-Spin Scale       =       0.3333333333333333 [-]
	 SCS Opposite-Spin Scale   =       1.2000000000000000 [-]
	 SCS Same-Spin Energy      =      -0.1293558099809089 [Eh]
	 SCS Opposite-Spin Energy  =      -1.5126039579144086 [Eh]
	 SCS Correlation Energy    =      -1.6419597678953175 [Eh]
	 SCS Total Energy          =    -384.5413648976647778 [Eh]
	-----------------------------------------------------------

  Dipole Moment: [D]
     X:     2.1063      Y:    -0.9165      Z:     0.4664     Total:     2.3439

*** Psi4 exiting successfully. Buy a developer a beer!
