                               Psi4 1.4a3.dev225

  ==> Input File <==

--------------------------------------------------------------------------
#psi4
#
memory 32 gb

molecule  {
0 1
  O       -1.4489980    -1.3596060     0.4723610
  O       -2.3691670     0.4939580    -0.4217430
  C        1.1321160    -0.2196140    -0.0405290
  C       -0.0105280     0.5069120     0.0326710
  C        2.4766970     0.4535350     0.0627600
  C        1.2313970    -1.7075980    -0.2583110
  C       -0.0156040     2.0162910     0.1296940
  C       -1.3701120    -0.0899940    -0.0219250
  H        2.9277060     0.5711490    -0.9308000
  H        2.4285750     1.4356710     0.5340320
  H        3.1575210    -0.1728930     0.6488100
  H        0.3470430    -2.1345670    -0.7252240
  H        1.2858271    -2.1822980     0.7282032
  H        2.1022510    -1.9178450    -0.8884640
  H        0.7095660     2.4663690    -0.5519310
  H        0.2213140     2.3529670     1.1451890
  H       -1.0053580     2.3925600    -0.1303250
  H       -2.3942410    -1.6004330     0.3722060
units angstrom
no_reorient  #important for SAPT in psi4, default
symmetry c1  #important for SAPT in psi4, default
}

set PROPERTIES_ORIGIN ["COM"]
properties('MP2/aug-cc-pvtz', properties = ['dipole'])
--------------------------------------------------------------------------

    Molecular point group: c1
  Charge       = 0
  Multiplicity = 1
  Basis Set: AUG-CC-PVTZ
    Blend: AUG-CC-PVTZ
  Basis Set: (AUG-CC-PVTZ AUX)
    Blend: AUG-CC-PVTZ-JKFIT

    Orbital Energies [Eh]
    ---------------------

    Doubly Occupied:

       1A    -20.608695     2A    -20.541076     3A    -11.384174
       4A    -11.268135     5A    -11.241730     6A    -11.234430
       7A    -11.228382     8A    -11.219029     9A     -1.452728
      10A     -1.346061    11A     -1.123367    12A     -1.015182
      13A     -0.957025    14A     -0.908184    15A     -0.832200
      16A     -0.733751    17A     -0.699429    18A     -0.662677
      19A     -0.633437    20A     -0.612671    21A     -0.601510
      22A     -0.585584    23A     -0.563958    24A     -0.553513
      25A     -0.547210    26A     -0.541163    27A     -0.511391
      28A     -0.492493    29A     -0.475556    30A     -0.446909
      31A     -0.349598

  @DF-RHF Final Energy:  -382.89831926156455

   => Energetics <=

    Nuclear Repulsion Energy =            378.8367214150314908
    One-Electron Energy =               -1272.7275821748253293
    Two-Electron Energy =                 510.9925414982293432
    Total Energy =                       -382.8983192615645521
  Basis Set: (AUG-CC-PVTZ AUX)
    Blend: AUG-CC-PVTZ-RI
    Molecular point group: c1

    Geometry (in Angstrom), charge = 0, multiplicity = 1:

       Center              X                  Y                   Z               Mass
    ------------   -----------------  -----------------  -----------------  -----------------
         O           -1.362322597870    -1.349862448212     0.473542530653    15.994914619570
         O           -2.282491597870     0.503701551788    -0.420561469347    15.994914619570
         C            1.218791402130    -0.209870448212    -0.039347469347    12.000000000000
         C            0.076147402130     0.516655551788     0.033852530653    12.000000000000
         C            2.563372402130     0.463278551788     0.063941530653    12.000000000000
         C            1.318072402130    -1.697854448212    -0.257129469347    12.000000000000
         C            0.071071402130     2.026034551788     0.130875530653    12.000000000000
         C           -1.283436597870    -0.080250448212    -0.020743469347    12.000000000000
         H            3.014381402130     0.580892551788    -0.929618469347     1.007825032230
         H            2.515250402130     1.445414551788     0.535213530653     1.007825032230
         H            3.244196402130    -0.163149448212     0.649991530653     1.007825032230
         H            0.433718402130    -2.124823448212    -0.724042469347     1.007825032230
         H            1.372502502130    -2.172554448212     0.729384730653     1.007825032230
         H            2.188926402130    -1.908101448212    -0.887282469347     1.007825032230
         H            0.796241402130     2.476112551788    -0.550749469347     1.007825032230
         H            0.307989402130     2.362710551788     1.146370530653     1.007825032230
         H           -0.918682597870     2.402303551788    -0.129143469347     1.007825032230
         H           -2.307565597870    -1.590689448212     0.373387530653     1.007825032230

  Basis Set: AUG-CC-PVTZ
    Blend: AUG-CC-PVTZ
  Basis Set: (AUG-CC-PVTZ AUX)
    Blend: AUG-CC-PVTZ-JKFIT
	 Reference Energy          =    -382.8983192615645521 [Eh]
	 Singles Energy            =      -0.0000000000000000 [Eh]
	 Same-Spin Energy          =      -0.3881394508597547 [Eh]
	 Opposite-Spin Energy      =      -1.2605885873620091 [Eh]
	 Correlation Energy        =      -1.6487280382217637 [Eh]
	 Total Energy              =    -384.5470472997862998 [Eh]

	 ================> DF-SCS-MP2 Energies <==================
	-----------------------------------------------------------
	 SCS Same-Spin Scale       =       0.3333333333333333 [-]
	 SCS Opposite-Spin Scale   =       1.2000000000000000 [-]
	 SCS Same-Spin Energy      =      -0.1293798169532515 [Eh]
	 SCS Opposite-Spin Energy  =      -1.5127063048344109 [Eh]
	 SCS Correlation Energy    =      -1.6420861217876626 [Eh]
	 SCS Total Energy          =    -384.5404053833522084 [Eh]
	-----------------------------------------------------------

  Dipole Moment: [D]
     X:     2.0925      Y:    -0.9176      Z:     0.4639     Total:     2.3314

*** Psi4 exiting successfully. Buy a developer a beer!
