                               Psi4 1.4a3.dev225

  ==> Input File <==

--------------------------------------------------------------------------
#psi4
#
memory 32 gb

molecule  {
0 1
  O       -1.4489980    -1.3596060     0.4723610
  O       -2.3691670     0.4939580    -0.4217430
  C        1.1321160    -0.2196140    -0.0405290
  C       -0.0105280     0.5069120     0.0326710
  C        2.4766970     0.4535350     0.0627600
  C        1.2313970    -1.7075980    -0.2583110
  C       -0.0156040     2.0162910     0.1296940
  C       -1.3701120    -0.0899940    -0.0219250
  H        2.9277060     0.5711490    -0.9308000
  H        2.4285750     1.4356710     0.5340320
  H        3.1575210    -0.1728930     0.6488100
  H        0.3470430    -2.1345670    -0.7252240
  H        1.4205955    -2.2379770     0.6821225
  H        2.1022510    -1.9178450    -0.8884640
  H        0.7095660     2.4663690    -0.5519310
  H        0.2213140     2.3529670     1.1451890
  H       -1.0053580     2.3925600    -0.1303250
  H       -2.3942410    -1.6004330     0.3722060
units angstrom
no_reorient  #important for SAPT in psi4, default
symmetry c1  #important for SAPT in psi4, default
}

set PROPERTIES_ORIGIN ["COM"]
properties('MP2/aug-cc-pvtz', properties = ['dipole'])
--------------------------------------------------------------------------

    Molecular point group: c1
  Charge       = 0
  Multiplicity = 1
  Basis Set: AUG-CC-PVTZ
    Blend: AUG-CC-PVTZ
  Basis Set: (AUG-CC-PVTZ AUX)
    Blend: AUG-CC-PVTZ-JKFIT

    Orbital Energies [Eh]
    ---------------------

    Doubly Occupied:

       1A    -20.608399     2A    -20.541411     3A    -11.384459
       4A    -11.268727     5A    -11.242884     6A    -11.234376
       7A    -11.228330     8A    -11.219493     9A     -1.452649
      10A     -1.346158    11A     -1.123332    12A     -1.015389
      13A     -0.956452    14A     -0.908929    15A     -0.832911
      16A     -0.734057    17A     -0.699222    18A     -0.662846
      19A     -0.635189    20A     -0.609255    21A     -0.599788
      22A     -0.588898    23A     -0.562982    24A     -0.549623
      25A     -0.546790    26A     -0.542722    27A     -0.514444
      28A     -0.492679    29A     -0.475562    30A     -0.447182
      31A     -0.350491

  @DF-RHF Final Energy:  -382.89942746876500

   => Energetics <=

    Nuclear Repulsion Energy =            378.6360282671269601
    One-Electron Energy =               -1272.3196556342466010
    Two-Electron Energy =                 510.7841998983547001
    Total Energy =                       -382.8994274687649977
  Basis Set: (AUG-CC-PVTZ AUX)
    Blend: AUG-CC-PVTZ-RI
    Molecular point group: c1

    Geometry (in Angstrom), charge = 0, multiplicity = 1:

       Center              X                  Y                   Z               Mass
    ------------   -----------------  -----------------  -----------------  -----------------
         O           -1.363513316322    -1.349370507871     0.473949667191    15.994914619570
         O           -2.283682316322     0.504193492129    -0.420154332809    15.994914619570
         C            1.217600683678    -0.209378507871    -0.038940332809    12.000000000000
         C            0.074956683678     0.517147492129     0.034259667191    12.000000000000
         C            2.562181683678     0.463770492129     0.064348667191    12.000000000000
         C            1.316881683678    -1.697362507871    -0.256722332809    12.000000000000
         C            0.069880683678     2.026526492129     0.131282667191    12.000000000000
         C           -1.284627316322    -0.079758507871    -0.020336332809    12.000000000000
         H            3.013190683678     0.581384492129    -0.929211332809     1.007825032230
         H            2.514059683678     1.445906492129     0.535620667191     1.007825032230
         H            3.243005683678    -0.162657507871     0.650398667191     1.007825032230
         H            0.432527683678    -2.124331507871    -0.723635332809     1.007825032230
         H            1.506080183678    -2.227741507871     0.683711167191     1.007825032230
         H            2.187735683678    -1.907609507871    -0.886875332809     1.007825032230
         H            0.795050683678     2.476604492129    -0.550342332809     1.007825032230
         H            0.306798683678     2.363202492129     1.146777667191     1.007825032230
         H           -0.919873316322     2.402795492129    -0.128736332809     1.007825032230
         H           -2.308756316322    -1.590197507871     0.373794667191     1.007825032230

  Basis Set: AUG-CC-PVTZ
    Blend: AUG-CC-PVTZ
  Basis Set: (AUG-CC-PVTZ AUX)
    Blend: AUG-CC-PVTZ-JKFIT
	 Reference Energy          =    -382.8994274687649977 [Eh]
	 Singles Energy            =      -0.0000000000000000 [Eh]
	 Same-Spin Energy          =      -0.3880542923273204 [Eh]
	 Opposite-Spin Energy      =      -1.2604856240136364 [Eh]
	 Correlation Energy        =      -1.6485399163409569 [Eh]
	 Total Energy              =    -384.5479673851059488 [Eh]

	 ================> DF-SCS-MP2 Energies <==================
	-----------------------------------------------------------
	 SCS Same-Spin Scale       =       0.3333333333333333 [-]
	 SCS Opposite-Spin Scale   =       1.2000000000000000 [-]
	 SCS Same-Spin Energy      =      -0.1293514307757735 [Eh]
	 SCS Opposite-Spin Energy  =      -1.5125827488163637 [Eh]
	 SCS Correlation Energy    =      -1.6419341795921372 [Eh]
	 SCS Total Energy          =    -384.5413616483571104 [Eh]
	-----------------------------------------------------------

  Dipole Moment: [D]
     X:     2.1229      Y:    -0.9166      Z:     0.4657     Total:     2.3588

*** Psi4 exiting successfully. Buy a developer a beer!
