                               Psi4 1.4a3.dev225

  ==> Input File <==

--------------------------------------------------------------------------
#psi4
#
memory 32 gb

molecule  {
0 1
  O       -1.4489980    -1.3596060     0.4723610
  O       -2.3691670     0.4939580    -0.4217430
  C        1.1321160    -0.2196140    -0.0405290
  C       -0.0105280     0.5069120     0.0326710
  C        2.4766970     0.4535350     0.0627600
  C        1.2313970    -1.7075980    -0.2583110
  C       -0.0156040     2.0162910     0.1296940
  C       -1.3243609    -0.0699076    -0.0200878
  H        2.9277060     0.5711490    -0.9308000
  H        2.4285750     1.4356710     0.5340320
  H        3.1575210    -0.1728930     0.6488100
  H        0.3470430    -2.1345670    -0.7252240
  H        1.3871470    -2.2249860     0.6954000
  H        2.1022510    -1.9178450    -0.8884640
  H        0.7095660     2.4663690    -0.5519310
  H        0.2213140     2.3529670     1.1451890
  H       -1.0053580     2.3925600    -0.1303250
  H       -2.3942410    -1.6004330     0.3722060
units angstrom
no_reorient  #important for SAPT in psi4, default
symmetry c1  #important for SAPT in psi4, default
}

set PROPERTIES_ORIGIN ["COM"]
properties('MP2/aug-cc-pvtz', properties = ['dipole'])
--------------------------------------------------------------------------

    Molecular point group: c1
  Charge       = 0
  Multiplicity = 1
  Basis Set: AUG-CC-PVTZ
    Blend: AUG-CC-PVTZ
  Basis Set: (AUG-CC-PVTZ AUX)
    Blend: AUG-CC-PVTZ-JKFIT

    Orbital Energies [Eh]
    ---------------------

    Doubly Occupied:

       1A    -20.601770     2A    -20.536344     3A    -11.385133
       4A    -11.276626     5A    -11.242435     6A    -11.238294
       7A    -11.231394     8A    -11.221444     9A     -1.436306
      10A     -1.325407    11A     -1.131190    12A     -1.022835
      13A     -0.961368    14A     -0.914513    15A     -0.834943
      16A     -0.735171    17A     -0.690057    18A     -0.664442
      19A     -0.630584    20A     -0.606457    21A     -0.597045
      22A     -0.585815    23A     -0.564950    24A     -0.553194
      25A     -0.549409    26A     -0.544839    27A     -0.516997
      28A     -0.494759    29A     -0.466086    30A     -0.444750
      31A     -0.354594

  @DF-RHF Final Energy:  -382.89240175141435

   => Energetics <=

    Nuclear Repulsion Energy =            378.7873637876707562
    One-Electron Energy =               -1272.6412305189116978
    Two-Electron Energy =                 510.9614649798265873
    Total Energy =                       -382.8924017514143543
  Basis Set: (AUG-CC-PVTZ AUX)
    Blend: AUG-CC-PVTZ-RI
    Molecular point group: c1

    Geometry (in Angstrom), charge = 0, multiplicity = 1:

       Center              X                  Y                   Z               Mass
    ------------   -----------------  -----------------  -----------------  -----------------
         O           -1.368030819960    -1.351598383153     0.473639082520    15.994914619570
         O           -2.288199819960     0.501965616847    -0.420464917480    15.994914619570
         C            1.213083180040    -0.211606383153    -0.039250917480    12.000000000000
         C            0.070439180040     0.514919616847     0.033949082520    12.000000000000
         C            2.557664180040     0.461542616847     0.064038082520    12.000000000000
         C            1.312364180040    -1.699590383153    -0.257032917480    12.000000000000
         C            0.065363180040     2.024298616847     0.130972082520    12.000000000000
         C           -1.243393719960    -0.061899983153    -0.018809717480    12.000000000000
         H            3.008673180040     0.579156616847    -0.929521917480     1.007825032230
         H            2.509542180040     1.443678616847     0.535310082520     1.007825032230
         H            3.238488180040    -0.164885383153     0.650088082520     1.007825032230
         H            0.428010180040    -2.126559383153    -0.723945917480     1.007825032230
         H            1.468114180040    -2.216978383153     0.696678082520     1.007825032230
         H            2.183218180040    -1.909837383153    -0.887185917480     1.007825032230
         H            0.790533180040     2.474376616847    -0.550652917480     1.007825032230
         H            0.302281180040     2.360974616847     1.146467082520     1.007825032230
         H           -0.924390819960     2.400567616847    -0.129046917480     1.007825032230
         H           -2.313273819960    -1.592425383153     0.373484082520     1.007825032230

  Basis Set: AUG-CC-PVTZ
    Blend: AUG-CC-PVTZ
  Basis Set: (AUG-CC-PVTZ AUX)
    Blend: AUG-CC-PVTZ-JKFIT
	 Reference Energy          =    -382.8924017514143543 [Eh]
	 Singles Energy            =      -0.0000000000000000 [Eh]
	 Same-Spin Energy          =      -0.3892349937364618 [Eh]
	 Opposite-Spin Energy      =      -1.2626421741767251 [Eh]
	 Correlation Energy        =      -1.6518771679131867 [Eh]
	 Total Energy              =    -384.5442789193275530 [Eh]

	 ================> DF-SCS-MP2 Energies <==================
	-----------------------------------------------------------
	 SCS Same-Spin Scale       =       0.3333333333333333 [-]
	 SCS Opposite-Spin Scale   =       1.2000000000000000 [-]
	 SCS Same-Spin Energy      =      -0.1297449979121539 [Eh]
	 SCS Opposite-Spin Energy  =      -1.5151706090120700 [Eh]
	 SCS Correlation Energy    =      -1.6449156069242239 [Eh]
	 SCS Total Energy          =    -384.5373173583385551 [Eh]
	-----------------------------------------------------------

  Dipole Moment: [D]
     X:     2.4985      Y:    -0.8124      Z:     0.4578     Total:     2.6669

*** Psi4 exiting successfully. Buy a developer a beer!
