                               Psi4 1.4a3.dev225

  ==> Input File <==

--------------------------------------------------------------------------
#psi4
#
memory 32 gb

molecule  {
0 1
  O       -1.4489980    -1.3596060     0.4723610
  O       -2.3691670     0.4939580    -0.4217430
  C        1.1321160    -0.2196140    -0.0405290
  C       -0.0105280     0.5069120     0.0326710
  C        2.4766970     0.4535350     0.0627600
  C        1.2313970    -1.7075980    -0.2583110
  C       -0.0156040     2.0162910     0.1296940
  C       -1.3701120    -0.0899940    -0.0219250
  H        2.9277060     0.5711490    -0.9308000
  H        2.4285750     1.4356710     0.5340320
  H        3.1575210    -0.1728930     0.6488100
  H        0.3470430    -2.1345670    -0.7252240
  H        1.3871470    -2.2249860     0.6954000
  H        2.1022510    -1.9178450    -0.8884640
  H        0.7095660     2.4663690    -0.5519310
  H        0.2256382     2.3591120     1.1637238
  H       -1.0053580     2.3925600    -0.1303250
  H       -2.3942410    -1.6004330     0.3722060
units angstrom
no_reorient  #important for SAPT in psi4, default
symmetry c1  #important for SAPT in psi4, default
}

set PROPERTIES_ORIGIN ["COM"]
properties('MP2/aug-cc-pvtz', properties = ['dipole'])
--------------------------------------------------------------------------

    Molecular point group: c1
  Charge       = 0
  Multiplicity = 1
  Basis Set: AUG-CC-PVTZ
    Blend: AUG-CC-PVTZ
  Basis Set: (AUG-CC-PVTZ AUX)
    Blend: AUG-CC-PVTZ-JKFIT

    Orbital Energies [Eh]
    ---------------------

    Doubly Occupied:

       1A    -20.608545     2A    -20.541430     3A    -11.384504
       4A    -11.268682     5A    -11.242792     6A    -11.234386
       7A    -11.228405     8A    -11.221833     9A     -1.452748
      10A     -1.346224    11A     -1.123321    12A     -1.014903
      13A     -0.956517    14A     -0.907564    15A     -0.832759
      16A     -0.733725    17A     -0.699327    18A     -0.662854
      19A     -0.634806    20A     -0.609745    21A     -0.600120
      22A     -0.587931    23A     -0.560839    24A     -0.550496
      25A     -0.546802    26A     -0.542102    27A     -0.514038
      28A     -0.492584    29A     -0.475630    30A     -0.447221
      31A     -0.350196

  @DF-RHF Final Energy:  -382.89904861821896

   => Energetics <=

    Nuclear Repulsion Energy =            378.5934971988575626
    One-Electron Energy =               -1272.2390312193438149
    Two-Electron Energy =                 510.7464854022672966
    Total Energy =                       -382.8990486182189557
  Basis Set: (AUG-CC-PVTZ AUX)
    Blend: AUG-CC-PVTZ-RI
    Molecular point group: c1

    Geometry (in Angstrom), charge = 0, multiplicity = 1:

       Center              X                  Y                   Z               Mass
    ------------   -----------------  -----------------  -----------------  -----------------
         O           -1.363255994566    -1.349539580059     0.473668596163    15.994914619570
         O           -2.283424994566     0.504024419941    -0.420435403837    15.994914619570
         C            1.217858005434    -0.209547580059    -0.039221403837    12.000000000000
         C            0.075214005434     0.516978419941     0.033978596163    12.000000000000
         C            2.562439005434     0.463601419941     0.064067596163    12.000000000000
         C            1.317139005434    -1.697531580059    -0.257003403837    12.000000000000
         C            0.070138005434     2.026357419941     0.131001596163    12.000000000000
         C           -1.284369994566    -0.079927580059    -0.020617403837    12.000000000000
         H            3.013448005434     0.581215419941    -0.929492403837     1.007825032230
         H            2.514317005434     1.445737419941     0.535339596163     1.007825032230
         H            3.243263005434    -0.162826580059     0.650117596163     1.007825032230
         H            0.432785005434    -2.124500580059    -0.723916403837     1.007825032230
         H            1.472889005434    -2.214919580059     0.696707596163     1.007825032230
         H            2.187993005434    -1.907778580059    -0.887156403837     1.007825032230
         H            0.795308005434     2.476435419941    -0.550623403837     1.007825032230
         H            0.311380205434     2.369178419941     1.165031396163     1.007825032230
         H           -0.919615994566     2.402626419941    -0.129017403837     1.007825032230
         H           -2.308498994566    -1.590366580059     0.373513596163     1.007825032230

  Basis Set: AUG-CC-PVTZ
    Blend: AUG-CC-PVTZ
  Basis Set: (AUG-CC-PVTZ AUX)
    Blend: AUG-CC-PVTZ-JKFIT
	 Reference Energy          =    -382.8990486182189557 [Eh]
	 Singles Energy            =      -0.0000000000000000 [Eh]
	 Same-Spin Energy          =      -0.3880519542085944 [Eh]
	 Opposite-Spin Energy      =      -1.2605960936392455 [Eh]
	 Correlation Energy        =      -1.6486480478478400 [Eh]
	 Total Energy              =    -384.5476966660667699 [Eh]

	 ================> DF-SCS-MP2 Energies <==================
	-----------------------------------------------------------
	 SCS Same-Spin Scale       =       0.3333333333333333 [-]
	 SCS Opposite-Spin Scale   =       1.2000000000000000 [-]
	 SCS Same-Spin Energy      =      -0.1293506514028648 [Eh]
	 SCS Opposite-Spin Energy  =      -1.5127153123670947 [Eh]
	 SCS Correlation Energy    =      -1.6420659637699595 [Eh]
	 SCS Total Energy          =    -384.5411145819888930 [Eh]
	-----------------------------------------------------------

  Dipole Moment: [D]
     X:     2.1122      Y:    -0.9240      Z:     0.4583     Total:     2.3506

*** Psi4 exiting successfully. Buy a developer a beer!
