                               Psi4 1.4a3.dev225

  ==> Input File <==

--------------------------------------------------------------------------
#psi4
#
memory 32 gb

molecule  {
0 1
  O       -1.4489980    -1.3596060     0.4723610
  O       -2.3691670     0.4939580    -0.4217430
  C        1.1321160    -0.2196140    -0.0405290
  C       -0.0105280     0.5069120     0.0326710
  C        2.4766970     0.4535350     0.0627600
  C        1.2313970    -1.7075980    -0.2583110
  C       -0.0156040     2.0162910     0.1296940
  C       -1.3701120    -0.0899940    -0.0219250
  H        2.9277060     0.5711490    -0.9308000
  H        2.4285750     1.4356710     0.5340320
  H        3.1575210    -0.1728930     0.6488100
  H        0.3470430    -2.1345670    -0.7252240
  H        1.3871470    -2.2249860     0.6954000
  H        1.9432346    -1.8794543    -0.7733991
  H        0.7095660     2.4663690    -0.5519310
  H        0.2213140     2.3529670     1.1451890
  H       -1.0053580     2.3925600    -0.1303250
  H       -2.3942410    -1.6004330     0.3722060
units angstrom
no_reorient  #important for SAPT in psi4, default
symmetry c1  #important for SAPT in psi4, default
}

set PROPERTIES_ORIGIN ["COM"]
properties('MP2/aug-cc-pvtz', properties = ['dipole'])
--------------------------------------------------------------------------

    Molecular point group: c1
  Charge       = 0
  Multiplicity = 1
  Basis Set: AUG-CC-PVTZ
    Blend: AUG-CC-PVTZ
  Basis Set: (AUG-CC-PVTZ AUX)
    Blend: AUG-CC-PVTZ-JKFIT

    Orbital Energies [Eh]
    ---------------------

    Doubly Occupied:

       1A    -20.607251     2A    -20.540501     3A    -11.383483
       4A    -11.267087     5A    -11.241432     6A    -11.234787
       7A    -11.218735     8A    -11.203372     9A     -1.451600
      10A     -1.345201    11A     -1.125279    12A     -1.023367
      13A     -0.966366    14A     -0.914107    15A     -0.835030
      16A     -0.733947    17A     -0.699477    18A     -0.663223
      19A     -0.638283    20A     -0.622587    21A     -0.602781
      22A     -0.590424    23A     -0.565598    24A     -0.557350
      25A     -0.547151    26A     -0.543744    27A     -0.518214
      28A     -0.491929    29A     -0.475117    30A     -0.446267
      31A     -0.349793

  @DF-RHF Final Energy:  -382.86597681363469

   => Energetics <=

    Nuclear Repulsion Energy =            379.7246688237119656
    One-Electron Energy =               -1274.3743224321110574
    Two-Electron Energy =                 511.7836767947644603
    Total Energy =                       -382.8659768136346884
  Basis Set: (AUG-CC-PVTZ AUX)
    Blend: AUG-CC-PVTZ-RI
    Molecular point group: c1

    Geometry (in Angstrom), charge = 0, multiplicity = 1:

       Center              X                  Y                   Z               Mass
    ------------   -----------------  -----------------  -----------------  -----------------
         O           -1.361812832323    -1.349824480302     0.472815724339    15.994914619570
         O           -2.281981832323     0.503739519698    -0.421288275661    15.994914619570
         C            1.219301167677    -0.209832480302    -0.040074275661    12.000000000000
         C            0.076657167677     0.516693519698     0.033125724339    12.000000000000
         C            2.563882167677     0.463316519698     0.063214724339    12.000000000000
         C            1.318582167677    -1.697816480302    -0.257856275661    12.000000000000
         C            0.071581167677     2.026072519698     0.130148724339    12.000000000000
         C           -1.282926832323    -0.080212480302    -0.021470275661    12.000000000000
         H            3.014891167677     0.580930519698    -0.930345275661     1.007825032230
         H            2.515760167677     1.445452519698     0.534486724339     1.007825032230
         H            3.244706167677    -0.163111480302     0.649264724339     1.007825032230
         H            0.434228167677    -2.124785480302    -0.724769275661     1.007825032230
         H            1.474332167677    -2.215204480302     0.695854724339     1.007825032230
         H            2.030419767677    -1.869672780302    -0.772944375661     1.007825032230
         H            0.796751167677     2.476150519698    -0.551476275661     1.007825032230
         H            0.308499167677     2.362748519698     1.145643724339     1.007825032230
         H           -0.918172832323     2.402341519698    -0.129870275661     1.007825032230
         H           -2.307055832323    -1.590651480302     0.372660724339     1.007825032230

  Basis Set: AUG-CC-PVTZ
    Blend: AUG-CC-PVTZ
  Basis Set: (AUG-CC-PVTZ AUX)
    Blend: AUG-CC-PVTZ-JKFIT
	 Reference Energy          =    -382.8659768136346884 [Eh]
	 Singles Energy            =      -0.0000000000000000 [Eh]
	 Same-Spin Energy          =      -0.3881348482387862 [Eh]
	 Opposite-Spin Energy      =      -1.2597814326095376 [Eh]
	 Correlation Energy        =      -1.6479162808483236 [Eh]
	 Total Energy              =    -384.5138930944830236 [Eh]

	 ================> DF-SCS-MP2 Energies <==================
	-----------------------------------------------------------
	 SCS Same-Spin Scale       =       0.3333333333333333 [-]
	 SCS Opposite-Spin Scale   =       1.2000000000000000 [-]
	 SCS Same-Spin Energy      =      -0.1293782827462621 [Eh]
	 SCS Opposite-Spin Energy  =      -1.5117377191314449 [Eh]
	 SCS Correlation Energy    =      -1.6411160018777069 [Eh]
	 SCS Total Energy          =    -384.5070928155124079 [Eh]
	-----------------------------------------------------------

  Dipole Moment: [D]
     X:     2.1965      Y:    -0.9551      Z:     0.4251     Total:     2.4326

*** Psi4 exiting successfully. Buy a developer a beer!
