                               Psi4 1.4a3.dev225

  ==> Input File <==

--------------------------------------------------------------------------
#psi4
#
memory 32 gb

molecule  {
0 1
  O       -1.4489980    -1.3596060     0.4723610
  O       -2.3691670     0.4939580    -0.4217430
  C        1.1321160    -0.2196140    -0.0405290
  C       -0.0105280     0.5069120     0.0326710
  C        2.4766970     0.4535350     0.0627600
  C        1.2313970    -1.7075980    -0.2583110
  C       -0.0156040     2.0162910     0.1296940
  C       -1.3701120    -0.0899940    -0.0219250
  H        2.8866100     0.5604320    -0.8402668
  H        2.4285750     1.4356710     0.5340320
  H        3.1575210    -0.1728930     0.6488100
  H        0.3470430    -2.1345670    -0.7252240
  H        1.3871470    -2.2249860     0.6954000
  H        2.1022510    -1.9178450    -0.8884640
  H        0.7095660     2.4663690    -0.5519310
  H        0.2213140     2.3529670     1.1451890
  H       -1.0053580     2.3925600    -0.1303250
  H       -2.3942410    -1.6004330     0.3722060
units angstrom
no_reorient  #important for SAPT in psi4, default
symmetry c1  #important for SAPT in psi4, default
}

set PROPERTIES_ORIGIN ["COM"]
properties('MP2/aug-cc-pvtz', properties = ['dipole'])
--------------------------------------------------------------------------

    Molecular point group: c1
  Charge       = 0
  Multiplicity = 1
  Basis Set: AUG-CC-PVTZ
    Blend: AUG-CC-PVTZ
  Basis Set: (AUG-CC-PVTZ AUX)
    Blend: AUG-CC-PVTZ-JKFIT

    Orbital Energies [Eh]
    ---------------------

    Doubly Occupied:

       1A    -20.608235     2A    -20.541035     3A    -11.384061
       4A    -11.267932     5A    -11.242048     6A    -11.228381
       7A    -11.222148     8A    -11.219141     9A     -1.452411
      10A     -1.345869    11A     -1.124174    12A     -1.017368
      13A     -0.963193    14A     -0.908529    15A     -0.835039
      16A     -0.734684    17A     -0.699093    18A     -0.662802
      19A     -0.635829    20A     -0.615081    21A     -0.602439
      22A     -0.590463    23A     -0.563224    24A     -0.558830
      25A     -0.546407    26A     -0.542528    27A     -0.513638
      28A     -0.492113    29A     -0.475351    30A     -0.446808
      31A     -0.350628

  @DF-RHF Final Energy:  -382.89367917499169

   => Energetics <=

    Nuclear Repulsion Energy =            379.1530930984133647
    One-Electron Energy =               -1273.3145705673937300
    Two-Electron Energy =                 511.2677982939886761
    Total Energy =                       -382.8936791749916893
  Basis Set: (AUG-CC-PVTZ AUX)
    Blend: AUG-CC-PVTZ-RI
    Molecular point group: c1

    Geometry (in Angstrom), charge = 0, multiplicity = 1:

       Center              X                  Y                   Z               Mass
    ------------   -----------------  -----------------  -----------------  -----------------
         O           -1.362854693740    -1.349390599330     0.473032469124    15.994914619570
         O           -2.283023693740     0.504173400670    -0.421071530876    15.994914619570
         C            1.218259306260    -0.209398599330    -0.039857530876    12.000000000000
         C            0.075615306260     0.517127400670     0.033342469124    12.000000000000
         C            2.562840306260     0.463750400670     0.063431469124    12.000000000000
         C            1.317540306260    -1.697382599330    -0.257639530876    12.000000000000
         C            0.070539306260     2.026506400670     0.130365469124    12.000000000000
         C           -1.283968693740    -0.079778599330    -0.021253530876    12.000000000000
         H            2.972753306260     0.570647400670    -0.839595330876     1.007825032230
         H            2.514718306260     1.445886400670     0.534703469124     1.007825032230
         H            3.243664306260    -0.162677599330     0.649481469124     1.007825032230
         H            0.433186306260    -2.124351599330    -0.724552530876     1.007825032230
         H            1.473290306260    -2.214770599330     0.696071469124     1.007825032230
         H            2.188394306260    -1.907629599330    -0.887792530876     1.007825032230
         H            0.795709306260     2.476584400670    -0.551259530876     1.007825032230
         H            0.307457306260     2.363182400670     1.145860469124     1.007825032230
         H           -0.919214693740     2.402775400670    -0.129653530876     1.007825032230
         H           -2.308097693740    -1.590217599330     0.372877469124     1.007825032230

  Basis Set: AUG-CC-PVTZ
    Blend: AUG-CC-PVTZ
  Basis Set: (AUG-CC-PVTZ AUX)
    Blend: AUG-CC-PVTZ-JKFIT
	 Reference Energy          =    -382.8936791749916893 [Eh]
	 Singles Energy            =      -0.0000000000000000 [Eh]
	 Same-Spin Energy          =      -0.3880442182832622 [Eh]
	 Opposite-Spin Energy      =      -1.2600112485680242 [Eh]
	 Correlation Energy        =      -1.6480554668512863 [Eh]
	 Total Energy              =    -384.5417346418429929 [Eh]

	 ================> DF-SCS-MP2 Energies <==================
	-----------------------------------------------------------
	 SCS Same-Spin Scale       =       0.3333333333333333 [-]
	 SCS Opposite-Spin Scale   =       1.2000000000000000 [-]
	 SCS Same-Spin Energy      =      -0.1293480727610874 [Eh]
	 SCS Opposite-Spin Energy  =      -1.5120134982816289 [Eh]
	 SCS Correlation Energy    =      -1.6413615710427163 [Eh]
	 SCS Total Energy          =    -384.5350407460343831 [Eh]
	-----------------------------------------------------------

  Dipole Moment: [D]
     X:     2.1446      Y:    -0.9146      Z:     0.4409     Total:     2.3729

*** Psi4 exiting successfully. Buy a developer a beer!
