                               Psi4 1.4a3.dev225

  ==> Input File <==

--------------------------------------------------------------------------
#psi4
#
memory 32 gb

molecule  {
0 1
  O       -1.4489980    -1.3596060     0.4723610
  O       -2.3691670     0.4939580    -0.4217430
  C        1.1321160    -0.2196140    -0.0405290
  C       -0.0105280     0.5069120     0.0326710
  C        2.4766970     0.4535350     0.0627600
  C        1.2313970    -1.7075980    -0.2583110
  C       -0.0156040     2.0162910     0.1296940
  C       -1.3758924    -0.1830251     0.0142939
  H        2.9277060     0.5711490    -0.9308000
  H        2.4285750     1.4356710     0.5340320
  H        3.1575210    -0.1728930     0.6488100
  H        0.3470430    -2.1345670    -0.7252240
  H        1.3871470    -2.2249860     0.6954000
  H        2.1022510    -1.9178450    -0.8884640
  H        0.7095660     2.4663690    -0.5519310
  H        0.2213140     2.3529670     1.1451890
  H       -1.0053580     2.3925600    -0.1303250
  H       -2.3942410    -1.6004330     0.3722060
units angstrom
no_reorient  #important for SAPT in psi4, default
symmetry c1  #important for SAPT in psi4, default
}

set PROPERTIES_ORIGIN ["COM"]
properties('MP2/aug-cc-pvtz', properties = ['dipole'])
--------------------------------------------------------------------------

    Molecular point group: c1
  Charge       = 0
  Multiplicity = 1
  Basis Set: AUG-CC-PVTZ
    Blend: AUG-CC-PVTZ
  Basis Set: (AUG-CC-PVTZ AUX)
    Blend: AUG-CC-PVTZ-JKFIT

    Orbital Energies [Eh]
    ---------------------

    Doubly Occupied:

       1A    -20.636965     2A    -20.527047     3A    -11.387852
       4A    -11.261732     5A    -11.243921     6A    -11.231286
       7A    -11.229462     8A    -11.217092     9A     -1.502521
      10A     -1.320518    11A     -1.118685    12A     -1.008641
      13A     -0.955977    14A     -0.913204    15A     -0.848637
      16A     -0.745199    17A     -0.717297    18A     -0.666348
      19A     -0.651877    20A     -0.604621    21A     -0.598412
      22A     -0.590052    23A     -0.561610    24A     -0.548478
      25A     -0.542456    26A     -0.539815    27A     -0.507964
      28A     -0.488399    29A     -0.459912    30A     -0.437006
      31A     -0.345820

  @DF-RHF Final Energy:  -382.88603030483932

   => Energetics <=

    Nuclear Repulsion Energy =            378.7428067574649617
    One-Electron Energy =               -1272.4400640542269230
    Two-Electron Energy =                 510.8112269919226947
    Total Energy =                       -382.8860303048393234
  Basis Set: (AUG-CC-PVTZ AUX)
    Blend: AUG-CC-PVTZ-RI
    Molecular point group: c1

    Geometry (in Angstrom), charge = 0, multiplicity = 1:

       Center              X                  Y                   Z               Mass
    ------------   -----------------  -----------------  -----------------  -----------------
         O           -1.362609688980    -1.339698384440     0.470022116218    15.994914619570
         O           -2.282778688980     0.513865615560    -0.424081883782    15.994914619570
         C            1.218504311020    -0.199706384440    -0.042867883782    12.000000000000
         C            0.075860311020     0.526819615560     0.030332116218    12.000000000000
         C            2.563085311020     0.473442615560     0.060421116218    12.000000000000
         C            1.317785311020    -1.687690384440    -0.260649883782    12.000000000000
         C            0.070784311020     2.036198615560     0.127355116218    12.000000000000
         C           -1.289504088980    -0.163117484440     0.011955016218    12.000000000000
         H            3.014094311020     0.591056615560    -0.933138883782     1.007825032230
         H            2.514963311020     1.455578615560     0.531693116218     1.007825032230
         H            3.243909311020    -0.152985384440     0.646471116218     1.007825032230
         H            0.433431311020    -2.114659384440    -0.727562883782     1.007825032230
         H            1.473535311020    -2.205078384440     0.693061116218     1.007825032230
         H            2.188639311020    -1.897937384440    -0.890802883782     1.007825032230
         H            0.795954311020     2.486276615560    -0.554269883782     1.007825032230
         H            0.307702311020     2.372874615560     1.142850116218     1.007825032230
         H           -0.918969688980     2.412467615560    -0.132663883782     1.007825032230
         H           -2.307852688980    -1.580525384440     0.369867116218     1.007825032230

  Basis Set: AUG-CC-PVTZ
    Blend: AUG-CC-PVTZ
  Basis Set: (AUG-CC-PVTZ AUX)
    Blend: AUG-CC-PVTZ-JKFIT
	 Reference Energy          =    -382.8860303048393234 [Eh]
	 Singles Energy            =      -0.0000000000000000 [Eh]
	 Same-Spin Energy          =      -0.3883835748300909 [Eh]
	 Opposite-Spin Energy      =      -1.2605140746066268 [Eh]
	 Correlation Energy        =      -1.6488976494367176 [Eh]
	 Total Energy              =    -384.5349279542760428 [Eh]

	 ================> DF-SCS-MP2 Energies <==================
	-----------------------------------------------------------
	 SCS Same-Spin Scale       =       0.3333333333333333 [-]
	 SCS Opposite-Spin Scale   =       1.2000000000000000 [-]
	 SCS Same-Spin Energy      =      -0.1294611916100303 [Eh]
	 SCS Opposite-Spin Energy  =      -1.5126168895279521 [Eh]
	 SCS Correlation Energy    =      -1.6420780811379825 [Eh]
	 SCS Total Energy          =    -384.5281083859773048 [Eh]
	-----------------------------------------------------------

  Dipole Moment: [D]
     X:     2.0088      Y:    -1.5754      Z:     0.7702     Total:     2.6665

*** Psi4 exiting successfully. Buy a developer a beer!
