                               Psi4 1.4a3.dev225

  ==> Input File <==

--------------------------------------------------------------------------
#psi4
#
memory 32 gb

molecule  {
0 1
  O       -1.4489980    -1.3596060     0.4723610
  O       -2.3691670     0.4939580    -0.4217430
  C        1.1321160    -0.2196140    -0.0405290
  C       -0.0105280     0.5069120     0.0326710
  C        2.4766970     0.4535350     0.0627600
  C        1.2313970    -1.7075980    -0.2583110
  C       -0.0156040     2.0162910     0.1296940
  C       -1.3701120    -0.0899940    -0.0219250
  H        2.9277060     0.5711490    -0.9308000
  H        2.4285750     1.4356710     0.5340320
  H        3.1575210    -0.1728930     0.6488100
  H        0.3470430    -2.1345670    -0.7252240
  H        1.3871470    -2.2249860     0.6954000
  H        2.1022510    -1.9178450    -0.8884640
  H        0.7095660     2.4663690    -0.5519310
  H        0.2169898     2.3468220     1.1266542
  H       -1.0053580     2.3925600    -0.1303250
  H       -2.3942410    -1.6004330     0.3722060
units angstrom
no_reorient  #important for SAPT in psi4, default
symmetry c1  #important for SAPT in psi4, default
}

set PROPERTIES_ORIGIN ["COM"]
properties('MP2/aug-cc-pvtz', properties = ['dipole'])
--------------------------------------------------------------------------

    Molecular point group: c1
  Charge       = 0
  Multiplicity = 1
  Basis Set: AUG-CC-PVTZ
    Blend: AUG-CC-PVTZ
  Basis Set: (AUG-CC-PVTZ AUX)
    Blend: AUG-CC-PVTZ-JKFIT

    Orbital Energies [Eh]
    ---------------------

    Doubly Occupied:

       1A    -20.608389     2A    -20.541245     3A    -11.384288
       4A    -11.268423     5A    -11.242464     6A    -11.234377
       7A    -11.228248     8A    -11.216912     9A     -1.452586
      10A     -1.346050    11A     -1.123344    12A     -1.015796
      13A     -0.956596    14A     -0.909973    15A     -0.832692
      16A     -0.734255    17A     -0.699184    18A     -0.662709
      19A     -0.634617    20A     -0.610081    21A     -0.600451
      22A     -0.587998    23A     -0.565748    24A     -0.550498
      25A     -0.547026    26A     -0.543083    27A     -0.513656
      28A     -0.492709    29A     -0.475503    30A     -0.447021
      31A     -0.350461

  @DF-RHF Final Energy:  -382.89956898899516

   => Energetics <=

    Nuclear Repulsion Energy =            378.7739502807576741
    One-Electron Energy =               -1272.5942704077317558
    Two-Electron Energy =                 510.9207511379789821
    Total Energy =                       -382.8995689889951564
  Basis Set: (AUG-CC-PVTZ AUX)
    Blend: AUG-CC-PVTZ-RI
    Molecular point group: c1

    Geometry (in Angstrom), charge = 0, multiplicity = 1:

       Center              X                  Y                   Z               Mass
    ------------   -----------------  -----------------  -----------------  -----------------
         O           -1.363179583408    -1.349430994294     0.473996116982    15.994914619570
         O           -2.283348583408     0.504133005706    -0.420107883018    15.994914619570
         C            1.217934416592    -0.209438994294    -0.038893883018    12.000000000000
         C            0.075290416592     0.517087005706     0.034306116982    12.000000000000
         C            2.562515416592     0.463710005706     0.064395116982    12.000000000000
         C            1.317215416592    -1.697422994294    -0.256675883018    12.000000000000
         C            0.070214416592     2.026466005706     0.131329116982    12.000000000000
         C           -1.284293583408    -0.079818994294    -0.020289883018    12.000000000000
         H            3.013524416592     0.581324005706    -0.929164883018     1.007825032230
         H            2.514393416592     1.445846005706     0.535667116982     1.007825032230
         H            3.243339416592    -0.162717994294     0.650445116982     1.007825032230
         H            0.432861416592    -2.124391994294    -0.723588883018     1.007825032230
         H            1.472965416592    -2.214810994294     0.697035116982     1.007825032230
         H            2.188069416592    -1.907669994294    -0.886828883018     1.007825032230
         H            0.795384416592     2.476544005706    -0.550295883018     1.007825032230
         H            0.302808216592     2.356997005706     1.128289316982     1.007825032230
         H           -0.919539583408     2.402735005706    -0.128689883018     1.007825032230
         H           -2.308422583408    -1.590257994294     0.373841116982     1.007825032230

  Basis Set: AUG-CC-PVTZ
    Blend: AUG-CC-PVTZ
  Basis Set: (AUG-CC-PVTZ AUX)
    Blend: AUG-CC-PVTZ-JKFIT
	 Reference Energy          =    -382.8995689889951564 [Eh]
	 Singles Energy            =      -0.0000000000000000 [Eh]
	 Same-Spin Energy          =      -0.3880556464275573 [Eh]
	 Opposite-Spin Energy      =      -1.2603838224477475 [Eh]
	 Correlation Energy        =      -1.6484394688753048 [Eh]
	 Total Energy              =    -384.5480084578704805 [Eh]

	 ================> DF-SCS-MP2 Energies <==================
	-----------------------------------------------------------
	 SCS Same-Spin Scale       =       0.3333333333333333 [-]
	 SCS Opposite-Spin Scale   =       1.2000000000000000 [-]
	 SCS Same-Spin Energy      =      -0.1293518821425191 [Eh]
	 SCS Opposite-Spin Energy  =      -1.5124605869372969 [Eh]
	 SCS Correlation Energy    =      -1.6418124690798159 [Eh]
	 SCS Total Energy          =    -384.5413814580749658 [Eh]
	-----------------------------------------------------------

  Dipole Moment: [D]
     X:     2.1163      Y:    -0.9092      Z:     0.4740     Total:     2.3516

*** Psi4 exiting successfully. Buy a developer a beer!
