                               Psi4 1.4a3.dev225

  ==> Input File <==

--------------------------------------------------------------------------
#psi4
#
memory 32 gb

molecule  {
0 1
  O       -1.4724834    -1.3594680     0.4683935
  O       -2.3691670     0.4939580    -0.4217430
  C        1.1321160    -0.2196140    -0.0405290
  C       -0.0105280     0.5069120     0.0326710
  C        2.4766970     0.4535350     0.0627600
  C        1.2313970    -1.7075980    -0.2583110
  C       -0.0156040     2.0162910     0.1296940
  C       -1.3701120    -0.0899940    -0.0219250
  H        2.9277060     0.5711490    -0.9308000
  H        2.4285750     1.4356710     0.5340320
  H        3.1575210    -0.1728930     0.6488100
  H        0.3470430    -2.1345670    -0.7252240
  H        1.3871470    -2.2249860     0.6954000
  H        2.1022510    -1.9178450    -0.8884640
  H        0.7095660     2.4663690    -0.5519310
  H        0.2213140     2.3529670     1.1451890
  H       -1.0053580     2.3925600    -0.1303250
  H       -2.3942410    -1.6004330     0.3722060
units angstrom
no_reorient  #important for SAPT in psi4, default
symmetry c1  #important for SAPT in psi4, default
}

set PROPERTIES_ORIGIN ["COM"]
properties('MP2/aug-cc-pvtz', properties = ['dipole'])
--------------------------------------------------------------------------

    Molecular point group: c1
  Charge       = 0
  Multiplicity = 1
  Basis Set: AUG-CC-PVTZ
    Blend: AUG-CC-PVTZ
  Basis Set: (AUG-CC-PVTZ AUX)
    Blend: AUG-CC-PVTZ-JKFIT

    Orbital Energies [Eh]
    ---------------------

    Doubly Occupied:

       1A    -20.605296     2A    -20.540154     3A    -11.384343
       4A    -11.269198     5A    -11.243585     6A    -11.234773
       7A    -11.228847     8A    -11.219848     9A     -1.454988
      10A     -1.346151    11A     -1.124012    12A     -1.015843
      13A     -0.957205    14A     -0.909965    15A     -0.835617
      16A     -0.737881    17A     -0.699015    18A     -0.663134
      19A     -0.634455    20A     -0.609052    21A     -0.600834
      22A     -0.588941    23A     -0.563577    24A     -0.550789
      25A     -0.547306    26A     -0.543232    27A     -0.514282
      28A     -0.493073    29A     -0.474964    30A     -0.446849
      31A     -0.350866

  @DF-RHF Final Energy:  -382.90095609160244

   => Energetics <=

    Nuclear Repulsion Energy =            378.5807514926886483
    One-Electron Energy =               -1272.1872667159411776
    Two-Electron Energy =                 510.7055591316500340
    Total Energy =                       -382.9009560916024384
  Basis Set: (AUG-CC-PVTZ AUX)
    Blend: AUG-CC-PVTZ-RI
    Molecular point group: c1

    Geometry (in Angstrom), charge = 0, multiplicity = 1:

       Center              X                  Y                   Z               Mass
    ------------   -----------------  -----------------  -----------------  -----------------
         O           -1.383410006799    -1.349366637886     0.470421189458    15.994914619570
         O           -2.280093606799     0.504059362114    -0.419715310542    15.994914619570
         C            1.221189393201    -0.209512637886    -0.038501310542    12.000000000000
         C            0.078545393201     0.517013362114     0.034698689458    12.000000000000
         C            2.565770393201     0.463636362114     0.064787689458    12.000000000000
         C            1.320470393201    -1.697496637886    -0.256283310542    12.000000000000
         C            0.073469393201     2.026392362114     0.131721689458    12.000000000000
         C           -1.281038606799    -0.079892637886    -0.019897310542    12.000000000000
         H            3.016779393201     0.581250362114    -0.928772310542     1.007825032230
         H            2.517648393201     1.445772362114     0.536059689458     1.007825032230
         H            3.246594393201    -0.162791637886     0.650837689458     1.007825032230
         H            0.436116393201    -2.124465637886    -0.723196310542     1.007825032230
         H            1.476220393201    -2.214884637886     0.697427689458     1.007825032230
         H            2.191324393201    -1.907743637886    -0.886436310542     1.007825032230
         H            0.798639393201     2.476470362114    -0.549903310542     1.007825032230
         H            0.310387393201     2.363068362114     1.147216689458     1.007825032230
         H           -0.916284606799     2.402661362114    -0.128297310542     1.007825032230
         H           -2.305167606799    -1.590331637886     0.374233689458     1.007825032230

  Basis Set: AUG-CC-PVTZ
    Blend: AUG-CC-PVTZ
  Basis Set: (AUG-CC-PVTZ AUX)
    Blend: AUG-CC-PVTZ-JKFIT
	 Reference Energy          =    -382.9009560916024384 [Eh]
	 Singles Energy            =      -0.0000000000000000 [Eh]
	 Same-Spin Energy          =      -0.3875495607525240 [Eh]
	 Opposite-Spin Energy      =      -1.2594490516479036 [Eh]
	 Correlation Energy        =      -1.6469986124004277 [Eh]
	 Total Energy              =    -384.5479547040028478 [Eh]

	 ================> DF-SCS-MP2 Energies <==================
	-----------------------------------------------------------
	 SCS Same-Spin Scale       =       0.3333333333333333 [-]
	 SCS Opposite-Spin Scale   =       1.2000000000000000 [-]
	 SCS Same-Spin Energy      =      -0.1291831869175080 [Eh]
	 SCS Opposite-Spin Energy  =      -1.5113388619774841 [Eh]
	 SCS Correlation Energy    =      -1.6405220488949921 [Eh]
	 SCS Total Energy          =    -384.5414781404974178 [Eh]
	-----------------------------------------------------------

  Dipole Moment: [D]
     X:     2.1674      Y:    -0.8995      Z:     0.4643     Total:     2.3921

*** Psi4 exiting successfully. Buy a developer a beer!
