                               Psi4 1.4a3.dev225

  ==> Input File <==

--------------------------------------------------------------------------
#psi4
#
memory 32 gb

molecule  {
0 1
  O       -1.4489980    -1.3596060     0.4723610
  O       -2.3691670     0.4939580    -0.4217430
  C        1.1321160    -0.2196140    -0.0405290
  C       -0.0105280     0.5069120     0.0326710
  C        2.4766970     0.4535350     0.0627600
  C        1.2313970    -1.7075980    -0.2583110
  C       -0.0156040     2.0162910     0.1296940
  C       -1.3701120    -0.0899940    -0.0219250
  H        2.9277060     0.5711490    -0.9308000
  H        2.4285750     1.4356710     0.5340320
  H        3.1575210    -0.1728930     0.6488100
  H        0.3470430    -2.1345670    -0.7252240
  H        1.3871470    -2.2249860     0.6954000
  H        2.1420051    -1.9274427    -0.9172302
  H        0.7095660     2.4663690    -0.5519310
  H        0.2213140     2.3529670     1.1451890
  H       -1.0053580     2.3925600    -0.1303250
  H       -2.3942410    -1.6004330     0.3722060
units angstrom
no_reorient  #important for SAPT in psi4, default
symmetry c1  #important for SAPT in psi4, default
}

set PROPERTIES_ORIGIN ["COM"]
properties('MP2/aug-cc-pvtz', properties = ['dipole'])
--------------------------------------------------------------------------

    Molecular point group: c1
  Charge       = 0
  Multiplicity = 1
  Basis Set: AUG-CC-PVTZ
    Blend: AUG-CC-PVTZ
  Basis Set: (AUG-CC-PVTZ AUX)
    Blend: AUG-CC-PVTZ-JKFIT

    Orbital Energies [Eh]
    ---------------------

    Doubly Occupied:

       1A    -20.608883     2A    -20.541643     3A    -11.384725
       4A    -11.269047     5A    -11.243085     6A    -11.234370
       7A    -11.234290     8A    -11.219634     9A     -1.453038
      10A     -1.346469    11A     -1.123250    12A     -1.014379
      13A     -0.955096    14A     -0.907650    15A     -0.832357
      16A     -0.734163    17A     -0.699417    18A     -0.663011
      19A     -0.634781    20A     -0.608744    21A     -0.599267
      22A     -0.587117    23A     -0.563087    24A     -0.549131
      25A     -0.546904    26A     -0.541020    27A     -0.511463
      28A     -0.492848    29A     -0.475657    30A     -0.447429
      31A     -0.350550

  @DF-RHF Final Energy:  -382.89744847085262

   => Energetics <=

    Nuclear Repulsion Energy =            378.4608008470670484
    One-Electron Energy =               -1271.9714916290893143
    Two-Electron Energy =                 510.6132423111696426
    Total Energy =                       -382.8974484708526234
  Basis Set: (AUG-CC-PVTZ AUX)
    Blend: AUG-CC-PVTZ-RI
    Molecular point group: c1

    Geometry (in Angstrom), charge = 0, multiplicity = 1:

       Center              X                  Y                   Z               Mass
    ------------   -----------------  -----------------  -----------------  -----------------
         O           -1.363569028153    -1.349400488674     0.474086514410    15.994914619570
         O           -2.283738028153     0.504163511326    -0.420017485590    15.994914619570
         C            1.217544971847    -0.209408488674    -0.038803485590    12.000000000000
         C            0.074900971847     0.517117511326     0.034396514410    12.000000000000
         C            2.562125971847     0.463740511326     0.064485514410    12.000000000000
         C            1.316825971847    -1.697392488674    -0.256585485590    12.000000000000
         C            0.069824971847     2.026496511326     0.131419514410    12.000000000000
         C           -1.284683028153    -0.079788488674    -0.020199485590    12.000000000000
         H            3.013134971847     0.581354511326    -0.929074485590     1.007825032230
         H            2.514003971847     1.445876511326     0.535757514410     1.007825032230
         H            3.242949971847    -0.162687488674     0.650535514410     1.007825032230
         H            0.432471971847    -2.124361488674    -0.723498485590     1.007825032230
         H            1.472575971847    -2.214780488674     0.697125514410     1.007825032230
         H            2.227434071847    -1.917237188674    -0.915504685590     1.007825032230
         H            0.794994971847     2.476574511326    -0.550205485590     1.007825032230
         H            0.306742971847     2.363172511326     1.146914514410     1.007825032230
         H           -0.919929028153     2.402765511326    -0.128599485590     1.007825032230
         H           -2.308812028153    -1.590227488674     0.373931514410     1.007825032230

  Basis Set: AUG-CC-PVTZ
    Blend: AUG-CC-PVTZ
  Basis Set: (AUG-CC-PVTZ AUX)
    Blend: AUG-CC-PVTZ-JKFIT
	 Reference Energy          =    -382.8974484708526234 [Eh]
	 Singles Energy            =      -0.0000000000000000 [Eh]
	 Same-Spin Energy          =      -0.3880608840426988 [Eh]
	 Opposite-Spin Energy      =      -1.2608463224322686 [Eh]
	 Correlation Energy        =      -1.6489072064749672 [Eh]
	 Total Energy              =    -384.5463556773275968 [Eh]

	 ================> DF-SCS-MP2 Energies <==================
	-----------------------------------------------------------
	 SCS Same-Spin Scale       =       0.3333333333333333 [-]
	 SCS Opposite-Spin Scale   =       1.2000000000000000 [-]
	 SCS Same-Spin Energy      =      -0.1293536280142329 [Eh]
	 SCS Opposite-Spin Energy  =      -1.5130155869187223 [Eh]
	 SCS Correlation Energy    =      -1.6423692149329552 [Eh]
	 SCS Total Energy          =    -384.5398176857855788 [Eh]
	-----------------------------------------------------------

  Dipole Moment: [D]
     X:     2.0847      Y:    -0.9011      Z:     0.4824     Total:     2.3218

*** Psi4 exiting successfully. Buy a developer a beer!
