                               Psi4 1.4a3.dev225

  ==> Input File <==

--------------------------------------------------------------------------
#psi4
#
memory 32 gb

molecule  {
0 1
  O       -1.4489980    -1.3596060     0.4723610
  O       -2.3691670     0.4939580    -0.4217430
  C        1.1321160    -0.2196140    -0.0405290
  C       -0.0105280     0.5069120     0.0326710
  C        2.4766970     0.4535350     0.0627600
  C        1.2313970    -1.7075980    -0.2583110
  C       -0.0156040     2.0162910     0.1296940
  C       -1.3701120    -0.0899940    -0.0219250
  H        2.9277060     0.5711490    -0.9308000
  H        2.4285750     1.4356710     0.5340320
  H        3.1575210    -0.1728930     0.6488100
  H        0.3470430    -2.1345670    -0.7252240
  H        1.3703490    -2.2182531     0.7016040
  H        2.1022510    -1.9178450    -0.8884640
  H        0.7095660     2.4663690    -0.5519310
  H        0.2213140     2.3529670     1.1451890
  H       -1.0053580     2.3925600    -0.1303250
  H       -2.3942410    -1.6004330     0.3722060
units angstrom
no_reorient  #important for SAPT in psi4, default
symmetry c1  #important for SAPT in psi4, default
}

set PROPERTIES_ORIGIN ["COM"]
properties('MP2/aug-cc-pvtz', properties = ['dipole'])
--------------------------------------------------------------------------

    Molecular point group: c1
  Charge       = 0
  Multiplicity = 1
  Basis Set: AUG-CC-PVTZ
    Blend: AUG-CC-PVTZ
  Basis Set: (AUG-CC-PVTZ AUX)
    Blend: AUG-CC-PVTZ-JKFIT

    Orbital Energies [Eh]
    ---------------------

    Doubly Occupied:

       1A    -20.608500     2A    -20.541295     3A    -11.384359
       4A    -11.268463     5A    -11.242487     6A    -11.234383
       7A    -11.228325     8A    -11.219329     9A     -1.452673
      10A     -1.346123    11A     -1.123323    12A     -1.015290
      13A     -0.956609    14A     -0.908633    15A     -0.832629
      16A     -0.733936    17A     -0.699273    18A     -0.662749
      19A     -0.634479    20A     -0.610255    21A     -0.600497
      22A     -0.587496    23A     -0.563326    24A     -0.551003
      25A     -0.546982    26A     -0.542562    27A     -0.513496
      28A     -0.492634    29A     -0.475566    30A     -0.447085
      31A     -0.350232

  @DF-RHF Final Energy:  -382.89951050267695

   => Energetics <=

    Nuclear Repulsion Energy =            378.7068809735666832
    One-Electron Energy =               -1272.4647974687065926
    Two-Electron Energy =                 510.8584059924629059
    Total Energy =                       -382.8995105026769465
  Basis Set: (AUG-CC-PVTZ AUX)
    Blend: AUG-CC-PVTZ-RI
    Molecular point group: c1

    Geometry (in Angstrom), charge = 0, multiplicity = 1:

       Center              X                  Y                   Z               Mass
    ------------   -----------------  -----------------  -----------------  -----------------
         O           -1.363069373716    -1.349544774328     0.473777542408    15.994914619570
         O           -2.283238373716     0.504019225672    -0.420326457592    15.994914619570
         C            1.218044626284    -0.209552774328    -0.039112457592    12.000000000000
         C            0.075400626284     0.516973225672     0.034087542408    12.000000000000
         C            2.562625626284     0.463596225672     0.064176542408    12.000000000000
         C            1.317325626284    -1.697536774328    -0.256894457592    12.000000000000
         C            0.070324626284     2.026352225672     0.131110542408    12.000000000000
         C           -1.284183373716    -0.079932774328    -0.020508457592    12.000000000000
         H            3.013634626284     0.581210225672    -0.929383457592     1.007825032230
         H            2.514503626284     1.445732225672     0.535448542408     1.007825032230
         H            3.243449626284    -0.162831774328     0.650226542408     1.007825032230
         H            0.432971626284    -2.124505774328    -0.723807457592     1.007825032230
         H            1.456277626284    -2.208191874328     0.703020542408     1.007825032230
         H            2.188179626284    -1.907783774328    -0.887047457592     1.007825032230
         H            0.795494626284     2.476430225672    -0.550514457592     1.007825032230
         H            0.307242626284     2.363028225672     1.146605542408     1.007825032230
         H           -0.919429373716     2.402621225672    -0.128908457592     1.007825032230
         H           -2.308312373716    -1.590371774328     0.373622542408     1.007825032230

  Basis Set: AUG-CC-PVTZ
    Blend: AUG-CC-PVTZ
  Basis Set: (AUG-CC-PVTZ AUX)
    Blend: AUG-CC-PVTZ-JKFIT
	 Reference Energy          =    -382.8995105026769465 [Eh]
	 Singles Energy            =      -0.0000000000000000 [Eh]
	 Same-Spin Energy          =      -0.3880586270360100 [Eh]
	 Opposite-Spin Energy      =      -1.2604924906181814 [Eh]
	 Correlation Energy        =      -1.6485511176541914 [Eh]
	 Total Energy              =    -384.5480616203311115 [Eh]

	 ================> DF-SCS-MP2 Energies <==================
	-----------------------------------------------------------
	 SCS Same-Spin Scale       =       0.3333333333333333 [-]
	 SCS Opposite-Spin Scale   =       1.2000000000000000 [-]
	 SCS Same-Spin Energy      =      -0.1293528756786700 [Eh]
	 SCS Opposite-Spin Energy  =      -1.5125909887418176 [Eh]
	 SCS Correlation Energy    =      -1.6419438644204876 [Eh]
	 SCS Total Energy          =    -384.5414543670974581 [Eh]
	-----------------------------------------------------------

  Dipole Moment: [D]
     X:     2.1102      Y:    -0.9164      Z:     0.4665     Total:     2.3474

*** Psi4 exiting successfully. Buy a developer a beer!
