                               Psi4 1.4a3.dev225

  ==> Input File <==

--------------------------------------------------------------------------
#psi4
#
memory 32 gb

molecule  {
0 1
  O       -1.4489980    -1.3596060     0.4723610
  O       -2.3691670     0.4939580    -0.4217430
  C        1.1321160    -0.2196140    -0.0405290
  C       -0.0105280     0.5069120     0.0326710
  C        2.4766970     0.4535350     0.0627600
  C        1.2313970    -1.7075980    -0.2583110
  C       -0.0156040     2.0162910     0.1296940
  C       -1.3701120    -0.0899940    -0.0219250
  H        2.9277060     0.5711490    -0.9308000
  H        2.4285750     1.4356710     0.5340320
  H        3.1575210    -0.1728930     0.6488100
  H        0.3470430    -2.1345670    -0.7252240
  H        1.3871470    -2.2249860     0.6954000
  H        2.1022510    -1.9178450    -0.8884640
  H        0.7095660     2.4663690    -0.5519310
  H        0.2321246     2.3683295     1.1915261
  H       -1.0053580     2.3925600    -0.1303250
  H       -2.3942410    -1.6004330     0.3722060
units angstrom
no_reorient  #important for SAPT in psi4, default
symmetry c1  #important for SAPT in psi4, default
}

set PROPERTIES_ORIGIN ["COM"]
properties('MP2/aug-cc-pvtz', properties = ['dipole'])
--------------------------------------------------------------------------

    Molecular point group: c1
  Charge       = 0
  Multiplicity = 1
  Basis Set: AUG-CC-PVTZ
    Blend: AUG-CC-PVTZ
  Basis Set: (AUG-CC-PVTZ AUX)
    Blend: AUG-CC-PVTZ-JKFIT

    Orbital Energies [Eh]
    ---------------------

    Doubly Occupied:

       1A    -20.608673     2A    -20.541580     3A    -11.384681
       4A    -11.268911     5A    -11.243061     6A    -11.234403
       7A    -11.228541     8A    -11.225453     9A     -1.452882
      10A     -1.346366    11A     -1.123350    12A     -1.014377
      13A     -0.956494    14A     -0.905961    15A     -0.832833
      16A     -0.733400    17A     -0.699447    18A     -0.662988
      19A     -0.634964    20A     -0.609611    21A     -0.599959
      22A     -0.587970    23A     -0.557857    24A     -0.550500
      25A     -0.546693    26A     -0.540494    27A     -0.514358
      28A     -0.492457    29A     -0.475730    30A     -0.447386
      31A     -0.349996

  @DF-RHF Final Energy:  -382.89750822853244

   => Energetics <=

    Nuclear Repulsion Energy =            378.4634093758858739
    One-Electron Energy =               -1271.9790888971724598
    Two-Electron Energy =                 510.6181712927540843
    Total Energy =                       -382.8975082285324447
  Basis Set: (AUG-CC-PVTZ AUX)
    Blend: AUG-CC-PVTZ-RI
    Molecular point group: c1

    Geometry (in Angstrom), charge = 0, multiplicity = 1:

       Center              X                  Y                   Z               Mass
    ------------   -----------------  -----------------  -----------------  -----------------
         O           -1.363313303817    -1.349621019382     0.473422954666    15.994914619570
         O           -2.283482303817     0.503942980618    -0.420681045334    15.994914619570
         C            1.217800696183    -0.209629019382    -0.039467045334    12.000000000000
         C            0.075156696183     0.516896980618     0.033732954666    12.000000000000
         C            2.562381696183     0.463519980618     0.063821954666    12.000000000000
         C            1.317081696183    -1.697613019382    -0.257249045334    12.000000000000
         C            0.070080696183     2.026275980618     0.130755954666    12.000000000000
         C           -1.284427303817    -0.080009019382    -0.020863045334    12.000000000000
         H            3.013390696183     0.581133980618    -0.929738045334     1.007825032230
         H            2.514259696183     1.445655980618     0.535093954666     1.007825032230
         H            3.243205696183    -0.162908019382     0.649871954666     1.007825032230
         H            0.432727696183    -2.124582019382    -0.724162045334     1.007825032230
         H            1.472831696183    -2.215001019382     0.696461954666     1.007825032230
         H            2.187935696183    -1.907860019382    -0.887402045334     1.007825032230
         H            0.795250696183     2.476353980618    -0.550869045334     1.007825032230
         H            0.317809296183     2.378314480618     1.192588054666     1.007825032230
         H           -0.919673303817     2.402544980618    -0.129263045334     1.007825032230
         H           -2.308556303817    -1.590448019382     0.373267954666     1.007825032230

  Basis Set: AUG-CC-PVTZ
    Blend: AUG-CC-PVTZ
  Basis Set: (AUG-CC-PVTZ AUX)
    Blend: AUG-CC-PVTZ-JKFIT
	 Reference Energy          =    -382.8975082285324447 [Eh]
	 Singles Energy            =      -0.0000000000000000 [Eh]
	 Same-Spin Energy          =      -0.3880501637186322 [Eh]
	 Opposite-Spin Energy      =      -1.2607746233512074 [Eh]
	 Correlation Energy        =      -1.6488247870698396 [Eh]
	 Total Energy              =    -384.5463330156022721 [Eh]

	 ================> DF-SCS-MP2 Energies <==================
	-----------------------------------------------------------
	 SCS Same-Spin Scale       =       0.3333333333333333 [-]
	 SCS Opposite-Spin Scale   =       1.2000000000000000 [-]
	 SCS Same-Spin Energy      =      -0.1293500545728774 [Eh]
	 SCS Opposite-Spin Energy  =      -1.5129295480214489 [Eh]
	 SCS Correlation Energy    =      -1.6422796025943263 [Eh]
	 SCS Total Energy          =    -384.5397878311267732 [Eh]
	-----------------------------------------------------------

  Dipole Moment: [D]
     X:     2.1091      Y:    -0.9366      Z:     0.4451     Total:     2.3502

*** Psi4 exiting successfully. Buy a developer a beer!
