                               Psi4 1.4a3.dev225

  ==> Input File <==

--------------------------------------------------------------------------
#psi4
#
memory 32 gb

molecule  {
0 1
  O       -1.4019624    -1.3587219     0.4798432
  O       -2.3691670     0.4939580    -0.4217430
  C        1.1321160    -0.2196140    -0.0405290
  C       -0.0105280     0.5069120     0.0326710
  C        2.4766970     0.4535350     0.0627600
  C        1.2313970    -1.7075980    -0.2583110
  C       -0.0156040     2.0162910     0.1296940
  C       -1.3701120    -0.0899940    -0.0219250
  H        2.9277060     0.5711490    -0.9308000
  H        2.4285750     1.4356710     0.5340320
  H        3.1575210    -0.1728930     0.6488100
  H        0.3470430    -2.1345670    -0.7252240
  H        1.3871470    -2.2249860     0.6954000
  H        2.1022510    -1.9178450    -0.8884640
  H        0.7095660     2.4663690    -0.5519310
  H        0.2213140     2.3529670     1.1451890
  H       -1.0053580     2.3925600    -0.1303250
  H       -2.3942410    -1.6004330     0.3722060
units angstrom
no_reorient  #important for SAPT in psi4, default
symmetry c1  #important for SAPT in psi4, default
}

set PROPERTIES_ORIGIN ["COM"]
properties('MP2/aug-cc-pvtz', properties = ['dipole'])
--------------------------------------------------------------------------

    Molecular point group: c1
  Charge       = 0
  Multiplicity = 1
  Basis Set: AUG-CC-PVTZ
    Blend: AUG-CC-PVTZ
  Basis Set: (AUG-CC-PVTZ AUX)
    Blend: AUG-CC-PVTZ-JKFIT

    Orbital Energies [Eh]
    ---------------------

    Doubly Occupied:

       1A    -20.614343     2A    -20.543732     3A    -11.384674
       4A    -11.267255     5A    -11.240757     6A    -11.233607
       7A    -11.227293     8A    -11.218479     9A     -1.448624
      10A     -1.346373    11A     -1.121951    12A     -1.014318
      13A     -0.955299    14A     -0.906569    15A     -0.827679
      16A     -0.727439    17A     -0.698339    18A     -0.662096
      19A     -0.635328    20A     -0.611513    21A     -0.598904
      22A     -0.585719    23A     -0.562469    24A     -0.549925
      25A     -0.546087    26A     -0.541644    27A     -0.512976
      28A     -0.491855    29A     -0.476716    30A     -0.447432
      31A     -0.349252

  @DF-RHF Final Energy:  -382.89328414970544

   => Energetics <=

    Nuclear Repulsion Energy =            378.9208997131851220
    One-Electron Energy =               -1272.9310693271058881
    Two-Electron Energy =                 511.1168854642153292
    Total Energy =                       -382.8932841497054369
  Basis Set: (AUG-CC-PVTZ AUX)
    Blend: AUG-CC-PVTZ-RI
    Molecular point group: c1

    Geometry (in Angstrom), charge = 0, multiplicity = 1:

       Center              X                  Y                   Z               Mass
    ------------   -----------------  -----------------  -----------------  -----------------
         O           -1.322777639782    -1.348725157915     0.480265383565    15.994914619570
         O           -2.289982239782     0.503954742085    -0.421320816435    15.994914619570
         C            1.211300760218    -0.209617257915    -0.040106816435    12.000000000000
         C            0.068656760218     0.516908742085     0.033093183565    12.000000000000
         C            2.555881760218     0.463531742085     0.063182183565    12.000000000000
         C            1.310581760218    -1.697601257915    -0.257888816435    12.000000000000
         C            0.063580760218     2.026287742085     0.130116183565    12.000000000000
         C           -1.290927239782    -0.079997257915    -0.021502816435    12.000000000000
         H            3.006890760218     0.581145742085    -0.930377816435     1.007825032230
         H            2.507759760218     1.445667742085     0.534454183565     1.007825032230
         H            3.236705760218    -0.162896257915     0.649232183565     1.007825032230
         H            0.426227760218    -2.124570257915    -0.724801816435     1.007825032230
         H            1.466331760218    -2.214989257915     0.695822183565     1.007825032230
         H            2.181435760218    -1.907848257915    -0.888041816435     1.007825032230
         H            0.788750760218     2.476365742085    -0.551508816435     1.007825032230
         H            0.300498760218     2.362963742085     1.145611183565     1.007825032230
         H           -0.926173239782     2.402556742085    -0.129902816435     1.007825032230
         H           -2.315056239782    -1.590436257915     0.372628183565     1.007825032230

  Basis Set: AUG-CC-PVTZ
    Blend: AUG-CC-PVTZ
  Basis Set: (AUG-CC-PVTZ AUX)
    Blend: AUG-CC-PVTZ-JKFIT
	 Reference Energy          =    -382.8932841497054369 [Eh]
	 Singles Energy            =      -0.0000000000000000 [Eh]
	 Same-Spin Energy          =      -0.3891243697637520 [Eh]
	 Opposite-Spin Energy      =      -1.2627196865217014 [Eh]
	 Correlation Energy        =      -1.6518440562854535 [Eh]
	 Total Energy              =    -384.5451282059908635 [Eh]

	 ================> DF-SCS-MP2 Energies <==================
	-----------------------------------------------------------
	 SCS Same-Spin Scale       =       0.3333333333333333 [-]
	 SCS Opposite-Spin Scale   =       1.2000000000000000 [-]
	 SCS Same-Spin Energy      =      -0.1297081232545840 [Eh]
	 SCS Opposite-Spin Energy  =      -1.5152636238260417 [Eh]
	 SCS Correlation Energy    =      -1.6449717470806258 [Eh]
	 SCS Total Energy          =    -384.5382558967860405 [Eh]
	-----------------------------------------------------------

  Dipole Moment: [D]
     X:     2.0122      Y:    -0.9468      Z:     0.4702     Total:     2.2729

*** Psi4 exiting successfully. Buy a developer a beer!
