                               Psi4 1.4a3.dev225

  ==> Input File <==

--------------------------------------------------------------------------
#psi4
#
memory 32 gb

molecule  {
0 1
  O       -1.4489980    -1.3596060     0.4723610
  O       -2.3691670     0.4939580    -0.4217430
  C        1.1321160    -0.2196140    -0.0405290
  C       -0.0105280     0.5069120     0.0326710
  C        2.4766970     0.4535350     0.0627600
  C        1.2313970    -1.7075980    -0.2583110
  C       -0.0156040     2.0162910     0.1296940
  C       -1.4158631    -0.1100804    -0.0237622
  H        2.9277060     0.5711490    -0.9308000
  H        2.4285750     1.4356710     0.5340320
  H        3.1575210    -0.1728930     0.6488100
  H        0.3470430    -2.1345670    -0.7252240
  H        1.3871470    -2.2249860     0.6954000
  H        2.1022510    -1.9178450    -0.8884640
  H        0.7095660     2.4663690    -0.5519310
  H        0.2213140     2.3529670     1.1451890
  H       -1.0053580     2.3925600    -0.1303250
  H       -2.3942410    -1.6004330     0.3722060
units angstrom
no_reorient  #important for SAPT in psi4, default
symmetry c1  #important for SAPT in psi4, default
}

set PROPERTIES_ORIGIN ["COM"]
properties('MP2/aug-cc-pvtz', properties = ['dipole'])
--------------------------------------------------------------------------

    Molecular point group: c1
  Charge       = 0
  Multiplicity = 1
  Basis Set: AUG-CC-PVTZ
    Blend: AUG-CC-PVTZ
  Basis Set: (AUG-CC-PVTZ AUX)
    Blend: AUG-CC-PVTZ-JKFIT

    Orbital Energies [Eh]
    ---------------------

    Doubly Occupied:

       1A    -20.614977     2A    -20.546020     3A    -11.383567
       4A    -11.261128     5A    -11.241840     6A    -11.230713
       7A    -11.225469     8A    -11.217380     9A     -1.468682
      10A     -1.366886    11A     -1.116256    12A     -1.008730
      13A     -0.952041    14A     -0.903095    15A     -0.831463
      16A     -0.732800    17A     -0.708334    18A     -0.661294
      19A     -0.641351    20A     -0.617419    21A     -0.599567
      22A     -0.587354    23A     -0.561336    24A     -0.548690
      25A     -0.544838    26A     -0.539926    27A     -0.510814
      28A     -0.492372    29A     -0.485038    30A     -0.444606
      31A     -0.345815

  @DF-RHF Final Energy:  -382.89962260084570

   => Energetics <=

    Nuclear Repulsion Energy =            378.6042400340256222
    One-Electron Energy =               -1272.2281207814151003
    Two-Electron Energy =                 510.7242581465437183
    Total Energy =                       -382.8996226008457029
  Basis Set: (AUG-CC-PVTZ AUX)
    Blend: AUG-CC-PVTZ-RI
    Molecular point group: c1

    Geometry (in Angstrom), charge = 0, multiplicity = 1:

       Center              X                  Y                   Z               Mass
    ------------   -----------------  -----------------  -----------------  -----------------
         O           -1.358404758013    -1.347372191200     0.474025630625    15.994914619570
         O           -2.278573758013     0.506191808800    -0.420078369375    15.994914619570
         C            1.222709241987    -0.207380191200    -0.038864369375    12.000000000000
         C            0.080065241987     0.519145808800     0.034335630625    12.000000000000
         C            2.567290241987     0.465768808800     0.064424630625    12.000000000000
         C            1.321990241987    -1.695364191200    -0.256646369375    12.000000000000
         C            0.074989241987     2.028524808800     0.131358630625    12.000000000000
         C           -1.325269858013    -0.097846591200    -0.022097569375    12.000000000000
         H            3.018299241987     0.583382808800    -0.929135369375     1.007825032230
         H            2.519168241987     1.447904808800     0.535696630625     1.007825032230
         H            3.248114241987    -0.160659191200     0.650474630625     1.007825032230
         H            0.437636241987    -2.122333191200    -0.723559369375     1.007825032230
         H            1.477740241987    -2.212752191200     0.697064630625     1.007825032230
         H            2.192844241987    -1.905611191200    -0.886799369375     1.007825032230
         H            0.800159241987     2.478602808800    -0.550266369375     1.007825032230
         H            0.311907241987     2.365200808800     1.146853630625     1.007825032230
         H           -0.914764758013     2.404793808800    -0.128660369375     1.007825032230
         H           -2.303647758013    -1.588199191200     0.373870630625     1.007825032230

  Basis Set: AUG-CC-PVTZ
    Blend: AUG-CC-PVTZ
  Basis Set: (AUG-CC-PVTZ AUX)
    Blend: AUG-CC-PVTZ-JKFIT
	 Reference Energy          =    -382.8996226008457029 [Eh]
	 Singles Energy            =      -0.0000000000000000 [Eh]
	 Same-Spin Energy          =      -0.3871642922241685 [Eh]
	 Opposite-Spin Energy      =      -1.2588273015579883 [Eh]
	 Correlation Energy        =      -1.6459915937821568 [Eh]
	 Total Energy              =    -384.5456141946278876 [Eh]

	 ================> DF-SCS-MP2 Energies <==================
	-----------------------------------------------------------
	 SCS Same-Spin Scale       =       0.3333333333333333 [-]
	 SCS Opposite-Spin Scale   =       1.2000000000000000 [-]
	 SCS Same-Spin Energy      =      -0.1290547640747228 [Eh]
	 SCS Opposite-Spin Energy  =      -1.5105927618695858 [Eh]
	 SCS Correlation Energy    =      -1.6396475259443086 [Eh]
	 SCS Total Energy          =    -384.5392701267900293 [Eh]
	-----------------------------------------------------------

  Dipole Moment: [D]
     X:     1.7320      Y:    -1.0146      Z:     0.4719     Total:     2.0620

*** Psi4 exiting successfully. Buy a developer a beer!
