                               Psi4 1.4a3.dev225

  ==> Input File <==

--------------------------------------------------------------------------
#psi4
#
memory 32 gb

molecule  {
0 1
  O       -1.4489980    -1.3596060     0.4723610
  O       -2.3691670     0.4939580    -0.4217430
  C        1.1321160    -0.2196140    -0.0405290
  C       -0.0105280     0.5069120     0.0326710
  C        2.4766970     0.4535350     0.0627600
  C        1.2313970    -1.7075980    -0.2583110
  C       -0.0156040     2.0162910     0.1296940
  C       -1.3701120    -0.0899940    -0.0219250
  H        2.9277060     0.5711490    -0.9308000
  H        2.4285750     1.4356710     0.5340320
  H        3.1575210    -0.1728930     0.6488100
  H        0.4283720    -2.0953011    -0.6822847
  H        1.3871470    -2.2249860     0.6954000
  H        2.1022510    -1.9178450    -0.8884640
  H        0.7095660     2.4663690    -0.5519310
  H        0.2213140     2.3529670     1.1451890
  H       -1.0053580     2.3925600    -0.1303250
  H       -2.3942410    -1.6004330     0.3722060
units angstrom
no_reorient  #important for SAPT in psi4, default
symmetry c1  #important for SAPT in psi4, default
}

set PROPERTIES_ORIGIN ["COM"]
properties('MP2/aug-cc-pvtz', properties = ['dipole'])
--------------------------------------------------------------------------

    Molecular point group: c1
  Charge       = 0
  Multiplicity = 1
  Basis Set: AUG-CC-PVTZ
    Blend: AUG-CC-PVTZ
  Basis Set: (AUG-CC-PVTZ AUX)
    Blend: AUG-CC-PVTZ-JKFIT

    Orbital Energies [Eh]
    ---------------------

    Doubly Occupied:

       1A    -20.608786     2A    -20.541346     3A    -11.384419
       4A    -11.268019     5A    -11.242430     6A    -11.233768
       7A    -11.219245     8A    -11.216938     9A     -1.452741
      10A     -1.346174    11A     -1.124073    12A     -1.017297
      13A     -0.962282    14A     -0.910836    15A     -0.833473
      16A     -0.734499    17A     -0.699573    18A     -0.670108
      19A     -0.634601    20A     -0.609821    21A     -0.600558
      22A     -0.591125    23A     -0.564014    24A     -0.551639
      25A     -0.549233    26A     -0.545162    27A     -0.515165
      28A     -0.495560    29A     -0.476272    30A     -0.447053
      31A     -0.350346

  @DF-RHF Final Energy:  -382.89356566376716

   => Energetics <=

    Nuclear Repulsion Energy =            379.0783746352342405
    One-Electron Energy =               -1273.1507672899520003
    Two-Electron Energy =                 511.1788269909505971
    Total Energy =                       -382.8935656637671627
  Basis Set: (AUG-CC-PVTZ AUX)
    Blend: AUG-CC-PVTZ-RI
    Molecular point group: c1

    Geometry (in Angstrom), charge = 0, multiplicity = 1:

       Center              X                  Y                   Z               Mass
    ------------   -----------------  -----------------  -----------------  -----------------
         O           -1.363936354622    -1.349832212952     0.473452975228    15.994914619570
         O           -2.284105354622     0.503731787048    -0.420651024772    15.994914619570
         C            1.217177645378    -0.209840212952    -0.039437024772    12.000000000000
         C            0.074533645378     0.516685787048     0.033762975228    12.000000000000
         C            2.561758645378     0.463308787048     0.063851975228    12.000000000000
         C            1.316458645378    -1.697824212952    -0.257219024772    12.000000000000
         C            0.069457645378     2.026064787048     0.130785975228    12.000000000000
         C           -1.285050354622    -0.080220212952    -0.020833024772    12.000000000000
         H            3.012767645378     0.580922787048    -0.929708024772     1.007825032230
         H            2.513636645378     1.445444787048     0.535123975228     1.007825032230
         H            3.242582645378    -0.163119212952     0.649901975228     1.007825032230
         H            0.513433645378    -2.085527312952    -0.681192724772     1.007825032230
         H            1.472208645378    -2.215212212952     0.696491975228     1.007825032230
         H            2.187312645378    -1.908071212952    -0.887372024772     1.007825032230
         H            0.794627645378     2.476142787048    -0.550839024772     1.007825032230
         H            0.306375645378     2.362740787048     1.146280975228     1.007825032230
         H           -0.920296354622     2.402333787048    -0.129233024772     1.007825032230
         H           -2.309179354622    -1.590659212952     0.373297975228     1.007825032230

  Basis Set: AUG-CC-PVTZ
    Blend: AUG-CC-PVTZ
  Basis Set: (AUG-CC-PVTZ AUX)
    Blend: AUG-CC-PVTZ-JKFIT
	 Reference Energy          =    -382.8935656637671627 [Eh]
	 Singles Energy            =      -0.0000000000000000 [Eh]
	 Same-Spin Energy          =      -0.3878741548601687 [Eh]
	 Opposite-Spin Energy      =      -1.2597880666407228 [Eh]
	 Correlation Energy        =      -1.6476622215008916 [Eh]
	 Total Energy              =    -384.5412278852680288 [Eh]

	 ================> DF-SCS-MP2 Energies <==================
	-----------------------------------------------------------
	 SCS Same-Spin Scale       =       0.3333333333333333 [-]
	 SCS Opposite-Spin Scale   =       1.2000000000000000 [-]
	 SCS Same-Spin Energy      =      -0.1292913849533895 [Eh]
	 SCS Opposite-Spin Energy  =      -1.5117456799688673 [Eh]
	 SCS Correlation Energy    =      -1.6410370649222570 [Eh]
	 SCS Total Energy          =    -384.5346027286894355 [Eh]
	-----------------------------------------------------------

  Dipole Moment: [D]
     X:     2.1057      Y:    -0.9442      Z:     0.4476     Total:     2.3507

*** Psi4 exiting successfully. Buy a developer a beer!
