                               Psi4 1.4a3.dev225

  ==> Input File <==

--------------------------------------------------------------------------
#psi4
#
memory 32 gb

molecule  {
0 1
  O       -1.4489980    -1.3596060     0.4723610
  O       -2.3691670     0.4939580    -0.4217430
  C        1.1296069    -0.2180995    -0.0143872
  C       -0.0105280     0.5069120     0.0326710
  C        2.4766970     0.4535350     0.0627600
  C        1.2313970    -1.7075980    -0.2583110
  C       -0.0156040     2.0162910     0.1296940
  C       -1.3701120    -0.0899940    -0.0219250
  H        2.9277060     0.5711490    -0.9308000
  H        2.4285750     1.4356710     0.5340320
  H        3.1575210    -0.1728930     0.6488100
  H        0.3470430    -2.1345670    -0.7252240
  H        1.3871470    -2.2249860     0.6954000
  H        2.1022510    -1.9178450    -0.8884640
  H        0.7095660     2.4663690    -0.5519310
  H        0.2213140     2.3529670     1.1451890
  H       -1.0053580     2.3925600    -0.1303250
  H       -2.3942410    -1.6004330     0.3722060
units angstrom
no_reorient  #important for SAPT in psi4, default
symmetry c1  #important for SAPT in psi4, default
}

set PROPERTIES_ORIGIN ["COM"]
properties('MP2/aug-cc-pvtz', properties = ['dipole'])
--------------------------------------------------------------------------

    Molecular point group: c1
  Charge       = 0
  Multiplicity = 1
  Basis Set: AUG-CC-PVTZ
    Blend: AUG-CC-PVTZ
  Basis Set: (AUG-CC-PVTZ AUX)
    Blend: AUG-CC-PVTZ-JKFIT

    Orbital Energies [Eh]
    ---------------------

    Doubly Occupied:

       1A    -20.608504     2A    -20.541484     3A    -11.384541
       4A    -11.268173     5A    -11.242367     6A    -11.234339
       7A    -11.228476     8A    -11.219383     9A     -1.452756
      10A     -1.346248    11A     -1.123566    12A     -1.014893
      13A     -0.956115    14A     -0.908875    15A     -0.833396
      16A     -0.734074    17A     -0.699295    18A     -0.662402
      19A     -0.634580    20A     -0.610052    21A     -0.599837
      22A     -0.588012    23A     -0.563173    24A     -0.550777
      25A     -0.546565    26A     -0.542878    27A     -0.514128
      28A     -0.491370    29A     -0.475756    30A     -0.447117
      31A     -0.351422

  @DF-RHF Final Energy:  -382.89947379475581

   => Energetics <=

    Nuclear Repulsion Energy =            378.7120511101024363
    One-Electron Energy =               -1272.4739377305563721
    Two-Electron Energy =                 510.8624128256980725
    Total Energy =                       -382.8994737947558065
  Basis Set: (AUG-CC-PVTZ AUX)
    Blend: AUG-CC-PVTZ-RI
    Molecular point group: c1

    Geometry (in Angstrom), charge = 0, multiplicity = 1:

       Center              X                  Y                   Z               Mass
    ------------   -----------------  -----------------  -----------------  -----------------
         O           -1.362953830830    -1.349644613082     0.471082230497    15.994914619570
         O           -2.283122830830     0.503919386918    -0.423021769503    15.994914619570
         C            1.215651069170    -0.208138113082    -0.015665969503    12.000000000000
         C            0.075516169170     0.516873386918     0.031392230497    12.000000000000
         C            2.562741169170     0.463496386918     0.061481230497    12.000000000000
         C            1.317441169170    -1.697636613082    -0.259589769503    12.000000000000
         C            0.070440169170     2.026252386918     0.128415230497    12.000000000000
         C           -1.284067830830    -0.080032613082    -0.023203769503    12.000000000000
         H            3.013750169170     0.581110386918    -0.932078769503     1.007825032230
         H            2.514619169170     1.445632386918     0.532753230497     1.007825032230
         H            3.243565169170    -0.162931613082     0.647531230497     1.007825032230
         H            0.433087169170    -2.124605613082    -0.726502769503     1.007825032230
         H            1.473191169170    -2.215024613082     0.694121230497     1.007825032230
         H            2.188295169170    -1.907883613082    -0.889742769503     1.007825032230
         H            0.795610169170     2.476330386918    -0.553209769503     1.007825032230
         H            0.307358169170     2.362928386918     1.143910230497     1.007825032230
         H           -0.919313830830     2.402521386918    -0.131603769503     1.007825032230
         H           -2.308196830830    -1.590471613082     0.370927230497     1.007825032230

  Basis Set: AUG-CC-PVTZ
    Blend: AUG-CC-PVTZ
  Basis Set: (AUG-CC-PVTZ AUX)
    Blend: AUG-CC-PVTZ-JKFIT
	 Reference Energy          =    -382.8994737947558065 [Eh]
	 Singles Energy            =      -0.0000000000000000 [Eh]
	 Same-Spin Energy          =      -0.3879864423435480 [Eh]
	 Opposite-Spin Energy      =      -1.2604118735835579 [Eh]
	 Correlation Energy        =      -1.6483983159271058 [Eh]
	 Total Energy              =    -384.5478721106829312 [Eh]

	 ================> DF-SCS-MP2 Energies <==================
	-----------------------------------------------------------
	 SCS Same-Spin Scale       =       0.3333333333333333 [-]
	 SCS Opposite-Spin Scale   =       1.2000000000000000 [-]
	 SCS Same-Spin Energy      =      -0.1293288141145160 [Eh]
	 SCS Opposite-Spin Energy  =      -1.5124942483002695 [Eh]
	 SCS Correlation Energy    =      -1.6418230624147854 [Eh]
	 SCS Total Energy          =    -384.5412968571706074 [Eh]
	-----------------------------------------------------------

  Dipole Moment: [D]
     X:     2.1117      Y:    -0.9094      Z:     0.4507     Total:     2.3430

*** Psi4 exiting successfully. Buy a developer a beer!
