                               Psi4 1.4a3.dev225

  ==> Input File <==

--------------------------------------------------------------------------
#psi4
#
memory 32 gb

molecule  {
0 1
  O       -1.4489980    -1.3596060     0.4723610
  O       -2.3691670     0.4939580    -0.4217430
  C        1.1321160    -0.2196140    -0.0405290
  C       -0.0105280     0.5069120     0.0326710
  C        2.4766970     0.4535350     0.0627600
  C        1.2313970    -1.7075980    -0.2583110
  C       -0.0156040     2.0162910     0.1296940
  C       -1.3701120    -0.0899940    -0.0219250
  H        2.9277060     0.5711490    -0.9308000
  H        2.4285750     1.4356710     0.5340320
  H        3.1575210    -0.1728930     0.6488100
  H        0.3470430    -2.1345670    -0.7252240
  H        1.3871470    -2.2249860     0.6954000
  H        2.1022510    -1.9178450    -0.8884640
  H        0.6740961     2.4304941    -0.6090915
  H        0.2213140     2.3529670     1.1451890
  H       -1.0053580     2.3925600    -0.1303250
  H       -2.3942410    -1.6004330     0.3722060
units angstrom
no_reorient  #important for SAPT in psi4, default
symmetry c1  #important for SAPT in psi4, default
}

set PROPERTIES_ORIGIN ["COM"]
properties('MP2/aug-cc-pvtz', properties = ['dipole'])
--------------------------------------------------------------------------

    Molecular point group: c1
  Charge       = 0
  Multiplicity = 1
  Basis Set: AUG-CC-PVTZ
    Blend: AUG-CC-PVTZ
  Basis Set: (AUG-CC-PVTZ AUX)
    Blend: AUG-CC-PVTZ-JKFIT

    Orbital Energies [Eh]
    ---------------------

    Doubly Occupied:

       1A    -20.608213     2A    -20.541097     3A    -11.384000
       4A    -11.268259     5A    -11.242082     6A    -11.234152
       7A    -11.228195     8A    -11.219346     9A     -1.452420
      10A     -1.345897    11A     -1.123267    12A     -1.015461
      13A     -0.956301    14A     -0.908373    15A     -0.832490
      16A     -0.733026    17A     -0.699001    18A     -0.662531
      19A     -0.634672    20A     -0.609520    21A     -0.600679
      22A     -0.587597    23A     -0.568903    24A     -0.550256
      25A     -0.547197    26A     -0.538672    27A     -0.513291
      28A     -0.491112    29A     -0.475230    30A     -0.446843
      31A     -0.350626

  @DF-RHF Final Energy:  -382.89896181663119

   => Energetics <=

    Nuclear Repulsion Energy =            378.7377961785576304
    One-Electron Energy =               -1272.5360994324348667
    Two-Electron Energy =                 510.8993414372461075
    Total Energy =                       -382.8989618166311857
  Basis Set: (AUG-CC-PVTZ AUX)
    Blend: AUG-CC-PVTZ-RI
    Molecular point group: c1

    Geometry (in Angstrom), charge = 0, multiplicity = 1:

       Center              X                  Y                   Z               Mass
    ------------   -----------------  -----------------  -----------------  -----------------
         O           -1.362904401988    -1.349168321884     0.474337386402    15.994914619570
         O           -2.283073401988     0.504395678116    -0.419766613598    15.994914619570
         C            1.218209598012    -0.209176321884    -0.038552613598    12.000000000000
         C            0.075565598012     0.517349678116     0.034647386402    12.000000000000
         C            2.562790598012     0.463972678116     0.064736386402    12.000000000000
         C            1.317490598012    -1.697160321884    -0.256334613598    12.000000000000
         C            0.070489598012     2.026728678116     0.131670386402    12.000000000000
         C           -1.284018401988    -0.079556321884    -0.019948613598    12.000000000000
         H            3.013799598012     0.581586678116    -0.928823613598     1.007825032230
         H            2.514668598012     1.446108678116     0.536008386402     1.007825032230
         H            3.243614598012    -0.162455321884     0.650786386402     1.007825032230
         H            0.433136598012    -2.124129321884    -0.723247613598     1.007825032230
         H            1.473240598012    -2.214548321884     0.697376386402     1.007825032230
         H            2.188344598012    -1.907407321884    -0.886487613598     1.007825032230
         H            0.760189698012     2.440931778116    -0.607115113598     1.007825032230
         H            0.307407598012     2.363404678116     1.147165386402     1.007825032230
         H           -0.919264401988     2.402997678116    -0.128348613598     1.007825032230
         H           -2.308147401988    -1.589995321884     0.374182386402     1.007825032230

  Basis Set: AUG-CC-PVTZ
    Blend: AUG-CC-PVTZ
  Basis Set: (AUG-CC-PVTZ AUX)
    Blend: AUG-CC-PVTZ-JKFIT
	 Reference Energy          =    -382.8989618166311857 [Eh]
	 Singles Energy            =      -0.0000000000000000 [Eh]
	 Same-Spin Energy          =      -0.3880808746624133 [Eh]
	 Opposite-Spin Energy      =      -1.2605747908155780 [Eh]
	 Correlation Energy        =      -1.6486556654779911 [Eh]
	 Total Energy              =    -384.5476174821091604 [Eh]

	 ================> DF-SCS-MP2 Energies <==================
	-----------------------------------------------------------
	 SCS Same-Spin Scale       =       0.3333333333333333 [-]
	 SCS Opposite-Spin Scale   =       1.2000000000000000 [-]
	 SCS Same-Spin Energy      =      -0.1293602915541378 [Eh]
	 SCS Opposite-Spin Energy  =      -1.5126897489786935 [Eh]
	 SCS Correlation Energy    =      -1.6420500405328311 [Eh]
	 SCS Total Energy          =    -384.5410118571639941 [Eh]
	-----------------------------------------------------------

  Dipole Moment: [D]
     X:     2.0988      Y:    -0.9146      Z:     0.4548     Total:     2.3342

*** Psi4 exiting successfully. Buy a developer a beer!
