                               Psi4 1.4a3.dev225

  ==> Input File <==

--------------------------------------------------------------------------
#psi4
#
memory 32 gb

molecule  {
0 1
  O       -1.4489980    -1.3596060     0.4723610
  O       -2.3691670     0.4939580    -0.4217430
  C        1.1321160    -0.2196140    -0.0405290
  C       -0.0105280     0.5069120     0.0326710
  C        2.4766970     0.4535350     0.0627600
  C        1.2313970    -1.7075980    -0.2583110
  C       -0.0156040     2.0162910     0.1296940
  C       -1.4616142    -0.1301667    -0.0255994
  H        2.9277060     0.5711490    -0.9308000
  H        2.4285750     1.4356710     0.5340320
  H        3.1575210    -0.1728930     0.6488100
  H        0.3470430    -2.1345670    -0.7252240
  H        1.3871470    -2.2249860     0.6954000
  H        2.1022510    -1.9178450    -0.8884640
  H        0.7095660     2.4663690    -0.5519310
  H        0.2213140     2.3529670     1.1451890
  H       -1.0053580     2.3925600    -0.1303250
  H       -2.3942410    -1.6004330     0.3722060
units angstrom
no_reorient  #important for SAPT in psi4, default
symmetry c1  #important for SAPT in psi4, default
}

set PROPERTIES_ORIGIN ["COM"]
properties('MP2/aug-cc-pvtz', properties = ['dipole'])
--------------------------------------------------------------------------

    Molecular point group: c1
  Charge       = 0
  Multiplicity = 1
  Basis Set: AUG-CC-PVTZ
    Blend: AUG-CC-PVTZ
  Basis Set: (AUG-CC-PVTZ AUX)
    Blend: AUG-CC-PVTZ-JKFIT

    Orbital Energies [Eh]
    ---------------------

    Doubly Occupied:

       1A    -20.621523     2A    -20.550793     3A    -11.383214
       4A    -11.254182     5A    -11.239952     6A    -11.227187
       7A    -11.222757     8A    -11.215357     9A     -1.484437
      10A     -1.387722    11A     -1.109799    12A     -1.002896
      13A     -0.947802    14A     -0.897694    15A     -0.830892
      16A     -0.733724    17A     -0.715815    18A     -0.661144
      19A     -0.649147    20A     -0.624764    21A     -0.597728
      22A     -0.585475    23A     -0.559480    24A     -0.548228
      25A     -0.542495    26A     -0.537462    27A     -0.508487
      28A     -0.494942    29A     -0.492030    30A     -0.437371
      31A     -0.341102

  @DF-RHF Final Energy:  -382.89294121981942

   => Energetics <=

    Nuclear Repulsion Energy =            378.5430322106219023
    One-Electron Energy =               -1272.0607461613865325
    Two-Electron Energy =                 510.6247727309451534
    Total Energy =                       -382.8929412198194200
  Basis Set: (AUG-CC-PVTZ AUX)
    Blend: AUG-CC-PVTZ-RI
    Molecular point group: c1

    Geometry (in Angstrom), charge = 0, multiplicity = 1:

       Center              X                  Y                   Z               Mass
    ------------   -----------------  -----------------  -----------------  -----------------
         O           -1.353591727040    -1.345259105743     0.474218904678    15.994914619570
         O           -2.273760727040     0.508304894257    -0.419885095322    15.994914619570
         C            1.227522272960    -0.205267105743    -0.038671095322    12.000000000000
         C            0.084878272960     0.521258894257     0.034528904678    12.000000000000
         C            2.572103272960     0.467881894257     0.064617904678    12.000000000000
         C            1.326803272960    -1.693251105743    -0.256453095322    12.000000000000
         C            0.079802272960     2.030637894257     0.131551904678    12.000000000000
         C           -1.366207927040    -0.115819805743    -0.023741495322    12.000000000000
         H            3.023112272960     0.585495894257    -0.928942095322     1.007825032230
         H            2.523981272960     1.450017894257     0.535889904678     1.007825032230
         H            3.252927272960    -0.158546105743     0.650667904678     1.007825032230
         H            0.442449272960    -2.120220105743    -0.723366095322     1.007825032230
         H            1.482553272960    -2.210639105743     0.697257904678     1.007825032230
         H            2.197657272960    -1.903498105743    -0.886606095322     1.007825032230
         H            0.804972272960     2.480715894257    -0.550073095322     1.007825032230
         H            0.316720272960     2.367313894257     1.147046904678     1.007825032230
         H           -0.909951727040     2.406906894257    -0.128467095322     1.007825032230
         H           -2.298834727040    -1.586086105743     0.374063904678     1.007825032230

  Basis Set: AUG-CC-PVTZ
    Blend: AUG-CC-PVTZ
  Basis Set: (AUG-CC-PVTZ AUX)
    Blend: AUG-CC-PVTZ-JKFIT
	 Reference Energy          =    -382.8929412198194200 [Eh]
	 Singles Energy            =      -0.0000000000000000 [Eh]
	 Same-Spin Energy          =      -0.3865886021152345 [Eh]
	 Opposite-Spin Energy      =      -1.2577047550804559 [Eh]
	 Correlation Energy        =      -1.6442933571956904 [Eh]
	 Total Energy              =    -384.5372345770151128 [Eh]

	 ================> DF-SCS-MP2 Energies <==================
	-----------------------------------------------------------
	 SCS Same-Spin Scale       =       0.3333333333333333 [-]
	 SCS Opposite-Spin Scale   =       1.2000000000000000 [-]
	 SCS Same-Spin Energy      =      -0.1288628673717448 [Eh]
	 SCS Opposite-Spin Energy  =      -1.5092457060965470 [Eh]
	 SCS Correlation Energy    =      -1.6381085734682919 [Eh]
	 SCS Total Energy          =    -384.5310497932877070 [Eh]
	-----------------------------------------------------------

  Dipole Moment: [D]
     X:     1.3472      Y:    -1.1092      Z:     0.4741     Total:     1.8083

*** Psi4 exiting successfully. Buy a developer a beer!
