                               Psi4 1.4a3.dev225

  ==> Input File <==

--------------------------------------------------------------------------
#psi4
#
memory 32 gb

molecule  {
0 1
  O       -1.4489980    -1.3596060     0.4723610
  O       -2.3691670     0.4939580    -0.4217430
  C        1.1321160    -0.2196140    -0.0405290
  C       -0.0105280     0.5069120     0.0326710
  C        2.4766970     0.4535350     0.0627600
  C        1.2313970    -1.7075980    -0.2583110
  C       -0.0156040     2.0162910     0.1296940
  C       -1.3701120    -0.0899940    -0.0219250
  H        2.9688020     0.5818660    -1.0213332
  H        2.4285750     1.4356710     0.5340320
  H        3.1575210    -0.1728930     0.6488100
  H        0.3470430    -2.1345670    -0.7252240
  H        1.3871470    -2.2249860     0.6954000
  H        2.1022510    -1.9178450    -0.8884640
  H        0.7095660     2.4663690    -0.5519310
  H        0.2213140     2.3529670     1.1451890
  H       -1.0053580     2.3925600    -0.1303250
  H       -2.3942410    -1.6004330     0.3722060
units angstrom
no_reorient  #important for SAPT in psi4, default
symmetry c1  #important for SAPT in psi4, default
}

set PROPERTIES_ORIGIN ["COM"]
properties('MP2/aug-cc-pvtz', properties = ['dipole'])
--------------------------------------------------------------------------

    Molecular point group: c1
  Charge       = 0
  Multiplicity = 1
  Basis Set: AUG-CC-PVTZ
    Blend: AUG-CC-PVTZ
  Basis Set: (AUG-CC-PVTZ AUX)
    Blend: AUG-CC-PVTZ-JKFIT

    Orbital Energies [Eh]
    ---------------------

    Doubly Occupied:

       1A    -20.608833     2A    -20.541819     3A    -11.384905
       4A    -11.269303     5A    -11.245937     6A    -11.243524
       7A    -11.228305     8A    -11.219765     9A     -1.453068
      10A     -1.346560    11A     -1.123095    12A     -1.014342
      13A     -0.951793    14A     -0.909076    15A     -0.831129
      16A     -0.733724    17A     -0.699597    18A     -0.663192
      19A     -0.634466    20A     -0.608375    21A     -0.598629
      22A     -0.585056    23A     -0.563430    24A     -0.548719
      25A     -0.543329    26A     -0.536333    27A     -0.514135
      28A     -0.493387    29A     -0.475902    30A     -0.447591
      31A     -0.350071

  @DF-RHF Final Energy:  -382.89314704558819

   => Energetics <=

    Nuclear Repulsion Energy =            378.2647417447141152
    One-Electron Energy =               -1271.5809963745548430
    Two-Electron Energy =                 510.4231075842525343
    Total Energy =                       -382.8931470455881936
  Basis Set: (AUG-CC-PVTZ AUX)
    Blend: AUG-CC-PVTZ-RI
    Molecular point group: c1

    Geometry (in Angstrom), charge = 0, multiplicity = 1:

       Center              X                  Y                   Z               Mass
    ------------   -----------------  -----------------  -----------------  -----------------
         O           -1.363580884234    -1.349579975024     0.474632244022    15.994914619570
         O           -2.283749884234     0.503984024976    -0.419471755978    15.994914619570
         C            1.217533115766    -0.209587975024    -0.038257755978    12.000000000000
         C            0.074889115766     0.516938024976     0.034942244022    12.000000000000
         C            2.562114115766     0.463561024976     0.065031244022    12.000000000000
         C            1.316814115766    -1.697571975024    -0.256039755978    12.000000000000
         C            0.069813115766     2.026317024976     0.131965244022    12.000000000000
         C           -1.284694884234    -0.079967975024    -0.019653755978    12.000000000000
         H            3.054219115766     0.591892024976    -1.019061955978     1.007825032230
         H            2.513992115766     1.445697024976     0.536303244022     1.007825032230
         H            3.242938115766    -0.162866975024     0.651081244022     1.007825032230
         H            0.432460115766    -2.124540975024    -0.722952755978     1.007825032230
         H            1.472564115766    -2.214959975024     0.697671244022     1.007825032230
         H            2.187668115766    -1.907818975024    -0.886192755978     1.007825032230
         H            0.794983115766     2.476395024976    -0.549659755978     1.007825032230
         H            0.306731115766     2.362993024976     1.147460244022     1.007825032230
         H           -0.919940884234     2.402586024976    -0.128053755978     1.007825032230
         H           -2.308823884234    -1.590406975024     0.374477244022     1.007825032230

  Basis Set: AUG-CC-PVTZ
    Blend: AUG-CC-PVTZ
  Basis Set: (AUG-CC-PVTZ AUX)
    Blend: AUG-CC-PVTZ-JKFIT
	 Reference Energy          =    -382.8931470455881936 [Eh]
	 Singles Energy            =      -0.0000000000000000 [Eh]
	 Same-Spin Energy          =      -0.3880918948010459 [Eh]
	 Opposite-Spin Energy      =      -1.2611970254316205 [Eh]
	 Correlation Energy        =      -1.6492889202326664 [Eh]
	 Total Energy              =    -384.5424359658208573 [Eh]

	 ================> DF-SCS-MP2 Energies <==================
	-----------------------------------------------------------
	 SCS Same-Spin Scale       =       0.3333333333333333 [-]
	 SCS Opposite-Spin Scale   =       1.2000000000000000 [-]
	 SCS Same-Spin Energy      =      -0.1293639649336820 [Eh]
	 SCS Opposite-Spin Energy  =      -1.5134364305179446 [Eh]
	 SCS Correlation Energy    =      -1.6428003954516266 [Eh]
	 SCS Total Energy          =    -384.5359474410398093 [Eh]
	-----------------------------------------------------------

  Dipole Moment: [D]
     X:     2.0683      Y:    -0.9199      Z:     0.5037     Total:     2.3190

*** Psi4 exiting successfully. Buy a developer a beer!
