                               Psi4 1.4a3.dev225

  ==> Input File <==

--------------------------------------------------------------------------
#psi4
#
memory 32 gb

molecule  {
0 1
  O       -1.4254886    -1.3593573     0.4761779
  O       -2.3691670     0.4939580    -0.4217430
  C        1.1321160    -0.2196140    -0.0405290
  C       -0.0105280     0.5069120     0.0326710
  C        2.4766970     0.4535350     0.0627600
  C        1.2313970    -1.7075980    -0.2583110
  C       -0.0156040     2.0162910     0.1296940
  C       -1.3701120    -0.0899940    -0.0219250
  H        2.9277060     0.5711490    -0.9308000
  H        2.4285750     1.4356710     0.5340320
  H        3.1575210    -0.1728930     0.6488100
  H        0.3470430    -2.1345670    -0.7252240
  H        1.3871470    -2.2249860     0.6954000
  H        2.1022510    -1.9178450    -0.8884640
  H        0.7095660     2.4663690    -0.5519310
  H        0.2213140     2.3529670     1.1451890
  H       -1.0053580     2.3925600    -0.1303250
  H       -2.3942410    -1.6004330     0.3722060
units angstrom
no_reorient  #important for SAPT in psi4, default
symmetry c1  #important for SAPT in psi4, default
}

set PROPERTIES_ORIGIN ["COM"]
properties('MP2/aug-cc-pvtz', properties = ['dipole'])
--------------------------------------------------------------------------

    Molecular point group: c1
  Charge       = 0
  Multiplicity = 1
  Basis Set: AUG-CC-PVTZ
    Blend: AUG-CC-PVTZ
  Basis Set: (AUG-CC-PVTZ AUX)
    Blend: AUG-CC-PVTZ-JKFIT

    Orbital Energies [Eh]
    ---------------------

    Doubly Occupied:

       1A    -20.611481     2A    -20.542528     3A    -11.384505
       4A    -11.267898     5A    -11.241681     6A    -11.233990
       7A    -11.227805     8A    -11.218929     9A     -1.450547
      10A     -1.346210    11A     -1.122636    12A     -1.014812
      13A     -0.955914    14A     -0.907602    15A     -0.830078
      16A     -0.730443    17A     -0.699060    18A     -0.662431
      19A     -0.634999    20A     -0.610719    21A     -0.599612
      22A     -0.586874    23A     -0.562837    24A     -0.550209
      25A     -0.546504    26A     -0.542188    27A     -0.513405
      28A     -0.492245    29A     -0.476150    30A     -0.447313
      31A     -0.349791

  @DF-RHF Final Energy:  -382.89694823292757

   => Energetics <=

    Nuclear Repulsion Energy =            378.7961157004149868
    One-Electron Energy =               -1272.6633354365053492
    Two-Electron Energy =                 510.9702715031628486
    Total Energy =                       -382.8969482329275706
  Basis Set: (AUG-CC-PVTZ AUX)
    Blend: AUG-CC-PVTZ-RI
    Molecular point group: c1

    Geometry (in Angstrom), charge = 0, multiplicity = 1:

       Center              X                  Y                   Z               Mass
    ------------   -----------------  -----------------  -----------------  -----------------
         O           -1.343004936515    -1.349271460520     0.477114041201    15.994914619570
         O           -2.286683336515     0.504043839480    -0.420806858799    15.994914619570
         C            1.214599663485    -0.209528160520    -0.039592858799    12.000000000000
         C            0.071955663485     0.516997839480     0.033607141201    12.000000000000
         C            2.559180663485     0.463620839480     0.063696141201    12.000000000000
         C            1.313880663485    -1.697512160520    -0.257374858799    12.000000000000
         C            0.066879663485     2.026376839480     0.130630141201    12.000000000000
         C           -1.287628336515    -0.079908160520    -0.020988858799    12.000000000000
         H            3.010189663485     0.581234839480    -0.929863858799     1.007825032230
         H            2.511058663485     1.445756839480     0.534968141201     1.007825032230
         H            3.240004663485    -0.162807160520     0.649746141201     1.007825032230
         H            0.429526663485    -2.124481160520    -0.724287858799     1.007825032230
         H            1.469630663485    -2.214900160520     0.696336141201     1.007825032230
         H            2.184734663485    -1.907759160520    -0.887527858799     1.007825032230
         H            0.792049663485     2.476454839480    -0.550994858799     1.007825032230
         H            0.303797663485     2.363052839480     1.146125141201     1.007825032230
         H           -0.922874336515     2.402645839480    -0.129388858799     1.007825032230
         H           -2.311757336515    -1.590347160520     0.373142141201     1.007825032230

  Basis Set: AUG-CC-PVTZ
    Blend: AUG-CC-PVTZ
  Basis Set: (AUG-CC-PVTZ AUX)
    Blend: AUG-CC-PVTZ-JKFIT
	 Reference Energy          =    -382.8969482329275706 [Eh]
	 Singles Energy            =      -0.0000000000000000 [Eh]
	 Same-Spin Energy          =      -0.3885787090107534 [Eh]
	 Opposite-Spin Energy      =      -1.2615764757124346 [Eh]
	 Correlation Energy        =      -1.6501551847231881 [Eh]
	 Total Energy              =    -384.5471034176507601 [Eh]

	 ================> DF-SCS-MP2 Energies <==================
	-----------------------------------------------------------
	 SCS Same-Spin Scale       =       0.3333333333333333 [-]
	 SCS Opposite-Spin Scale   =       1.2000000000000000 [-]
	 SCS Same-Spin Energy      =      -0.1295262363369178 [Eh]
	 SCS Opposite-Spin Energy  =      -1.5138917708549215 [Eh]
	 SCS Correlation Energy    =      -1.6434180071918394 [Eh]
	 SCS Total Energy          =    -384.5403662401193969 [Eh]
	-----------------------------------------------------------

  Dipole Moment: [D]
     X:     2.0625      Y:    -0.9321      Z:     0.4684     Total:     2.3113

*** Psi4 exiting successfully. Buy a developer a beer!
