                               Psi4 1.4a3.dev225

  ==> Input File <==

--------------------------------------------------------------------------
#psi4
#
memory 32 gb

molecule  {
0 1
  O       -1.4489980    -1.3596060     0.4723610
  O       -2.3691670     0.4939580    -0.4217430
  C        1.1321160    -0.2196140    -0.0405290
  C       -0.0105280     0.5069120     0.0326710
  C        2.4766970     0.4535350     0.0627600
  C        1.2313970    -1.7075980    -0.2583110
  C       -0.0156040     2.0162910     0.1296940
  C       -1.3643316     0.0030371    -0.0581439
  H        2.9277060     0.5711490    -0.9308000
  H        2.4285750     1.4356710     0.5340320
  H        3.1575210    -0.1728930     0.6488100
  H        0.3470430    -2.1345670    -0.7252240
  H        1.3871470    -2.2249860     0.6954000
  H        2.1022510    -1.9178450    -0.8884640
  H        0.7095660     2.4663690    -0.5519310
  H        0.2213140     2.3529670     1.1451890
  H       -1.0053580     2.3925600    -0.1303250
  H       -2.3942410    -1.6004330     0.3722060
units angstrom
no_reorient  #important for SAPT in psi4, default
symmetry c1  #important for SAPT in psi4, default
}

set PROPERTIES_ORIGIN ["COM"]
properties('MP2/aug-cc-pvtz', properties = ['dipole'])
--------------------------------------------------------------------------

    Molecular point group: c1
  Charge       = 0
  Multiplicity = 1
  Basis Set: AUG-CC-PVTZ
    Blend: AUG-CC-PVTZ
  Basis Set: (AUG-CC-PVTZ AUX)
    Blend: AUG-CC-PVTZ-JKFIT

    Orbital Energies [Eh]
    ---------------------

    Doubly Occupied:

       1A    -20.578577     2A    -20.554773     3A    -11.381912
       4A    -11.275955     5A    -11.242733     6A    -11.237805
       7A    -11.227484     8A    -11.222310     9A     -1.447688
      10A     -1.335793    11A     -1.128793    12A     -1.023503
      13A     -0.957815    14A     -0.908554    15A     -0.829070
      16A     -0.719196    17A     -0.691136    18A     -0.664638
      19A     -0.630163    20A     -0.614692    21A     -0.598202
      22A     -0.585077    23A     -0.564003    24A     -0.554401
      25A     -0.549151    26A     -0.542792    27A     -0.519357
      28A     -0.495455    29A     -0.478683    30A     -0.446507
      31A     -0.355086

  @DF-RHF Final Energy:  -382.88927376042261

   => Energetics <=

    Nuclear Repulsion Energy =            378.7674508094564771
    One-Electron Energy =               -1272.5908376612042048
    Two-Electron Energy =                 510.9341130913251163
    Total Energy =                       -382.8892737604226113
  Basis Set: (AUG-CC-PVTZ AUX)
    Blend: AUG-CC-PVTZ-RI
    Molecular point group: c1

    Geometry (in Angstrom), charge = 0, multiplicity = 1:

       Center              X                  Y                   Z               Mass
    ------------   -----------------  -----------------  -----------------  -----------------
         O           -1.363825888994    -1.359272189913     0.477642596928    15.994914619570
         O           -2.283994888994     0.494291810087    -0.416461403072    15.994914619570
         C            1.217288111006    -0.219280189913    -0.035247403072    12.000000000000
         C            0.074644111006     0.507245810087     0.037952596928    12.000000000000
         C            2.561869111006     0.453868810087     0.068041596928    12.000000000000
         C            1.316569111006    -1.707264189913    -0.253029403072    12.000000000000
         C            0.069568111006     2.016624810087     0.134975596928    12.000000000000
         C           -1.279159488994     0.003370910087    -0.052862303072    12.000000000000
         H            3.012878111006     0.571482810087    -0.925518403072     1.007825032230
         H            2.513747111006     1.436004810087     0.539313596928     1.007825032230
         H            3.242693111006    -0.172559189913     0.654091596928     1.007825032230
         H            0.432215111006    -2.134233189913    -0.719942403072     1.007825032230
         H            1.472319111006    -2.224652189913     0.700681596928     1.007825032230
         H            2.187423111006    -1.917511189913    -0.883182403072     1.007825032230
         H            0.794738111006     2.466702810087    -0.546649403072     1.007825032230
         H            0.306486111006     2.353300810087     1.150470596928     1.007825032230
         H           -0.920185888994     2.392893810087    -0.125043403072     1.007825032230
         H           -2.309068888994    -1.600099189913     0.377487596928     1.007825032230

  Basis Set: AUG-CC-PVTZ
    Blend: AUG-CC-PVTZ
  Basis Set: (AUG-CC-PVTZ AUX)
    Blend: AUG-CC-PVTZ-JKFIT
	 Reference Energy          =    -382.8892737604226113 [Eh]
	 Singles Energy            =      -0.0000000000000000 [Eh]
	 Same-Spin Energy          =      -0.3882886201187765 [Eh]
	 Opposite-Spin Energy      =      -1.2614213418442046 [Eh]
	 Correlation Energy        =      -1.6497099619629811 [Eh]
	 Total Energy              =    -384.5389837223855807 [Eh]

	 ================> DF-SCS-MP2 Energies <==================
	-----------------------------------------------------------
	 SCS Same-Spin Scale       =       0.3333333333333333 [-]
	 SCS Opposite-Spin Scale   =       1.2000000000000000 [-]
	 SCS Same-Spin Energy      =      -0.1294295400395922 [Eh]
	 SCS Opposite-Spin Energy  =      -1.5137056102130455 [Eh]
	 SCS Correlation Energy    =      -1.6431351502526377 [Eh]
	 SCS Total Energy          =    -384.5324089106752581 [Eh]
	-----------------------------------------------------------

  Dipole Moment: [D]
     X:     2.2697      Y:    -0.2197      Z:     0.1567     Total:     2.2857

*** Psi4 exiting successfully. Buy a developer a beer!
