                               Psi4 1.4a3.dev225

  ==> Input File <==

--------------------------------------------------------------------------
#psi4
#
memory 32 gb

molecule  {
0 1
  O       -1.4489980    -1.3596060     0.4723610
  O       -2.3691670     0.4939580    -0.4217430
  C        1.1321160    -0.2196140    -0.0405290
  C       -0.0105280     0.5069120     0.0326710
  C        2.4766970     0.4535350     0.0627600
  C        1.2313970    -1.7075980    -0.2583110
  C       -0.0156040     2.0162910     0.1296940
  C       -1.3701120    -0.0899940    -0.0219250
  H        2.9277060     0.5711490    -0.9308000
  H        2.4285750     1.4356710     0.5340320
  H        3.1575210    -0.1728930     0.6488100
  H        0.3470430    -2.1345670    -0.7252240
  H        1.3871470    -2.2249860     0.6954000
  H        2.1022510    -1.9178450    -0.8884640
  H        0.6922623     2.4486950    -0.5809441
  H        0.2213140     2.3529670     1.1451890
  H       -1.0053580     2.3925600    -0.1303250
  H       -2.3942410    -1.6004330     0.3722060
units angstrom
no_reorient  #important for SAPT in psi4, default
symmetry c1  #important for SAPT in psi4, default
}

set PROPERTIES_ORIGIN ["COM"]
properties('MP2/aug-cc-pvtz', properties = ['dipole'])
--------------------------------------------------------------------------

    Molecular point group: c1
  Charge       = 0
  Multiplicity = 1
  Basis Set: AUG-CC-PVTZ
    Blend: AUG-CC-PVTZ
  Basis Set: (AUG-CC-PVTZ AUX)
    Blend: AUG-CC-PVTZ-JKFIT

    Orbital Energies [Eh]
    ---------------------

    Doubly Occupied:

       1A    -20.608337     2A    -20.541213     3A    -11.384193
       4A    -11.268410     5A    -11.242345     6A    -11.234268
       7A    -11.228262     8A    -11.219362     9A     -1.452540
      10A     -1.346013    11A     -1.123293    12A     -1.015381
      13A     -0.956427    14A     -0.908536    15A     -0.832605
      16A     -0.733494    17A     -0.699125    18A     -0.662655
      19A     -0.634680    20A     -0.609676    21A     -0.600459
      22A     -0.587759    23A     -0.566079    24A     -0.550369
      25A     -0.547097    26A     -0.540675    27A     -0.513591
      28A     -0.491918    29A     -0.475412    30A     -0.446981
      31A     -0.350492

  @DF-RHF Final Energy:  -382.89939682180852

   => Energetics <=

    Nuclear Repulsion Energy =            378.7095664173255614
    One-Electron Energy =               -1272.4746360606900453
    Two-Electron Energy =                 510.8656728215560179
    Total Energy =                       -382.8993968218085229
  Basis Set: (AUG-CC-PVTZ AUX)
    Blend: AUG-CC-PVTZ-RI
    Molecular point group: c1

    Geometry (in Angstrom), charge = 0, multiplicity = 1:

       Center              X                  Y                   Z               Mass
    ------------   -----------------  -----------------  -----------------  -----------------
         O           -1.363064905708    -1.349329132188     0.474088695845    15.994914619570
         O           -2.283233905708     0.504234867812    -0.420015304155    15.994914619570
         C            1.218049094292    -0.209337132188    -0.038801304155    12.000000000000
         C            0.075405094292     0.517188867812     0.034398695845    12.000000000000
         C            2.562630094292     0.463811867812     0.064487695845    12.000000000000
         C            1.317330094292    -1.697321132188    -0.256583304155    12.000000000000
         C            0.070329094292     2.026567867812     0.131421695845    12.000000000000
         C           -1.284178905708    -0.079717132188    -0.020197304155    12.000000000000
         H            3.013639094292     0.581425867812    -0.929072304155     1.007825032230
         H            2.514508094292     1.445947867812     0.535759695845     1.007825032230
         H            3.243454094292    -0.162616132188     0.650537695845     1.007825032230
         H            0.432976094292    -2.124290132188    -0.723496304155     1.007825032230
         H            1.473080094292    -2.214709132188     0.697127695845     1.007825032230
         H            2.188184094292    -1.907568132188    -0.886736304155     1.007825032230
         H            0.778195394292     2.458971867812    -0.579216404155     1.007825032230
         H            0.307247094292     2.363243867812     1.146916695845     1.007825032230
         H           -0.919424905708     2.402836867812    -0.128597304155     1.007825032230
         H           -2.308307905708    -1.590156132188     0.373933695845     1.007825032230

  Basis Set: AUG-CC-PVTZ
    Blend: AUG-CC-PVTZ
  Basis Set: (AUG-CC-PVTZ AUX)
    Blend: AUG-CC-PVTZ-JKFIT
	 Reference Energy          =    -382.8993968218085229 [Eh]
	 Singles Energy            =      -0.0000000000000000 [Eh]
	 Same-Spin Energy          =      -0.3880603005949397 [Eh]
	 Opposite-Spin Energy      =      -1.2605207017735518 [Eh]
	 Correlation Energy        =      -1.6485810023684915 [Eh]
	 Total Energy              =    -384.5479778241769964 [Eh]

	 ================> DF-SCS-MP2 Energies <==================
	-----------------------------------------------------------
	 SCS Same-Spin Scale       =       0.3333333333333333 [-]
	 SCS Opposite-Spin Scale   =       1.2000000000000000 [-]
	 SCS Same-Spin Energy      =      -0.1293534335316466 [Eh]
	 SCS Opposite-Spin Energy  =      -1.5126248421282622 [Eh]
	 SCS Correlation Energy    =      -1.6419782756599088 [Eh]
	 SCS Total Energy          =    -384.5413750974684035 [Eh]
	-----------------------------------------------------------

  Dipole Moment: [D]
     X:     2.1068      Y:    -0.9156      Z:     0.4603     Total:     2.3428

*** Psi4 exiting successfully. Buy a developer a beer!
