                               Psi4 1.4a3.dev225

  ==> Input File <==

--------------------------------------------------------------------------
#psi4
#
memory 32 gb

molecule  {
0 1
  O       -1.4489980    -1.3596060     0.4723610
  O       -2.3691670     0.4939580    -0.4217430
  C        1.1321160    -0.2196140    -0.0405290
  C       -0.0105280     0.5069120     0.0326710
  C        2.4766970     0.4535350     0.0627600
  C        1.2313970    -1.7075980    -0.2583110
  C       -0.0156040     2.0162910     0.1296940
  C       -1.3701120    -0.0899940    -0.0219250
  H        2.9277060     0.5711490    -0.9308000
  H        2.4285750     1.4356710     0.5340320
  H        3.1575210    -0.1728930     0.6488100
  H        0.3470430    -2.1345670    -0.7252240
  H        1.3871470    -2.2249860     0.6954000
  H        2.1022510    -1.9178450    -0.8884640
  H        0.7560972     2.5160183    -0.4600553
  H        0.2213140     2.3529670     1.1451890
  H       -1.0053580     2.3925600    -0.1303250
  H       -2.3942410    -1.6004330     0.3722060
units angstrom
no_reorient  #important for SAPT in psi4, default
symmetry c1  #important for SAPT in psi4, default
}

set PROPERTIES_ORIGIN ["COM"]
properties('MP2/aug-cc-pvtz', properties = ['dipole'])
--------------------------------------------------------------------------

    Molecular point group: c1
  Charge       = 0
  Multiplicity = 1
  Basis Set: AUG-CC-PVTZ
    Blend: AUG-CC-PVTZ
  Basis Set: (AUG-CC-PVTZ AUX)
    Blend: AUG-CC-PVTZ-JKFIT

    Orbital Energies [Eh]
    ---------------------

    Doubly Occupied:

       1A    -20.608863     2A    -20.541731     3A    -11.385026
       4A    -11.268847     5A    -11.243548     6A    -11.234685
       7A    -11.228471     8A    -11.219504     9A     -1.453056
      10A     -1.346524    11A     -1.123432    12A     -1.015254
      13A     -0.956892    14A     -0.909511    15A     -0.833079
      16A     -0.735500    17A     -0.699656    18A     -0.663122
      19A     -0.634902    20A     -0.610780    21A     -0.599829
      22A     -0.588622    23A     -0.555328    24A     -0.551433
      25A     -0.548442    26A     -0.545066    27A     -0.514239
      28A     -0.494472    29A     -0.475888    30A     -0.447516
      31A     -0.349645

  @DF-RHF Final Energy:  -382.89831200654419

   => Energetics <=

    Nuclear Repulsion Energy =            378.6099190658212592
    One-Electron Energy =               -1272.2507400591071018
    Two-Electron Energy =                 510.7425089867416546
    Total Energy =                       -382.8983120065441881
  Basis Set: (AUG-CC-PVTZ AUX)
    Blend: AUG-CC-PVTZ-RI
    Molecular point group: c1

    Geometry (in Angstrom), charge = 0, multiplicity = 1:

       Center              X                  Y                   Z               Mass
    ------------   -----------------  -----------------  -----------------  -----------------
         O           -1.363628905824    -1.349923953345     0.473020607741    15.994914619570
         O           -2.283797905824     0.503640046655    -0.421083392259    15.994914619570
         C            1.217485094176    -0.209931953345    -0.039869392259    12.000000000000
         C            0.074841094176     0.516594046655     0.033330607741    12.000000000000
         C            2.562066094176     0.463217046655     0.063419607741    12.000000000000
         C            1.316766094176    -1.697915953345    -0.257651392259    12.000000000000
         C            0.069765094176     2.025973046655     0.130353607741    12.000000000000
         C           -1.284742905824    -0.080311953345    -0.021265392259    12.000000000000
         H            3.013075094176     0.580831046655    -0.930140392259     1.007825032230
         H            2.513944094176     1.445353046655     0.534691607741     1.007825032230
         H            3.242890094176    -0.163210953345     0.649469607741     1.007825032230
         H            0.432412094176    -2.124884953345    -0.724564392259     1.007825032230
         H            1.472516094176    -2.215303953345     0.696059607741     1.007825032230
         H            2.187620094176    -1.908162953345    -0.887804392259     1.007825032230
         H            0.841466294176     2.525700346655    -0.459395692259     1.007825032230
         H            0.306683094176     2.362649046655     1.145848607741     1.007825032230
         H           -0.919988905824     2.402242046655    -0.129665392259     1.007825032230
         H           -2.308871905824    -1.590750953345     0.372865607741     1.007825032230

  Basis Set: AUG-CC-PVTZ
    Blend: AUG-CC-PVTZ
  Basis Set: (AUG-CC-PVTZ AUX)
    Blend: AUG-CC-PVTZ-JKFIT
	 Reference Energy          =    -382.8983120065441881 [Eh]
	 Singles Energy            =      -0.0000000000000000 [Eh]
	 Same-Spin Energy          =      -0.3881163653229964 [Eh]
	 Opposite-Spin Energy      =      -1.2605029521146693 [Eh]
	 Correlation Energy        =      -1.6486193174376658 [Eh]
	 Total Energy              =    -384.5469313239818803 [Eh]

	 ================> DF-SCS-MP2 Energies <==================
	-----------------------------------------------------------
	 SCS Same-Spin Scale       =       0.3333333333333333 [-]
	 SCS Opposite-Spin Scale   =       1.2000000000000000 [-]
	 SCS Same-Spin Energy      =      -0.1293721217743321 [Eh]
	 SCS Opposite-Spin Energy  =      -1.5126035425376032 [Eh]
	 SCS Correlation Energy    =      -1.6419756643119354 [Eh]
	 SCS Total Energy          =    -384.5402876708561166 [Eh]
	-----------------------------------------------------------

  Dipole Moment: [D]
     X:     2.1335      Y:    -0.9170      Z:     0.4891     Total:     2.3732

*** Psi4 exiting successfully. Buy a developer a beer!
