                               Psi4 1.4a3.dev225

  ==> Input File <==

--------------------------------------------------------------------------
#psi4
#
memory 32 gb

molecule  {
0 1
  O       -1.4489980    -1.3596060     0.4723610
  O       -2.3691670     0.4939580    -0.4217430
  C        1.1321160    -0.2196140    -0.0405290
  C       -0.0105280     0.5069120     0.0326710
  C        2.4766970     0.4535350     0.0627600
  C        1.2313970    -1.7075980    -0.2583110
  C       -0.0156040     2.0162910     0.1296940
  C       -1.3701120    -0.0899940    -0.0219250
  H        2.9277060     0.5711490    -0.9308000
  H        2.4285750     1.4356710     0.5340320
  H        3.1575210    -0.1728930     0.6488100
  H        0.3470430    -2.1345670    -0.7252240
  H        1.4038975    -2.2315613     0.6889055
  H        2.1022510    -1.9178450    -0.8884640
  H        0.7095660     2.4663690    -0.5519310
  H        0.2213140     2.3529670     1.1451890
  H       -1.0053580     2.3925600    -0.1303250
  H       -2.3942410    -1.6004330     0.3722060
units angstrom
no_reorient  #important for SAPT in psi4, default
symmetry c1  #important for SAPT in psi4, default
}

set PROPERTIES_ORIGIN ["COM"]
properties('MP2/aug-cc-pvtz', properties = ['dipole'])
--------------------------------------------------------------------------

    Molecular point group: c1
  Charge       = 0
  Multiplicity = 1
  Basis Set: AUG-CC-PVTZ
    Blend: AUG-CC-PVTZ
  Basis Set: (AUG-CC-PVTZ AUX)
    Blend: AUG-CC-PVTZ-JKFIT

    Orbital Energies [Eh]
    ---------------------

    Doubly Occupied:

       1A    -20.608431     2A    -20.541374     3A    -11.384427
       4A    -11.268634     5A    -11.242757     6A    -11.234377
       7A    -11.228325     8A    -11.219440     9A     -1.452657
      10A     -1.346147    11A     -1.123326    12A     -1.015353
      13A     -0.956496    14A     -0.908828    15A     -0.832815
      16A     -0.734016    17A     -0.699236    18A     -0.662809
      19A     -0.634945    20A     -0.609554    21A     -0.600030
      22A     -0.588413    23A     -0.563091    24A     -0.550030
      25A     -0.546841    26A     -0.542782    27A     -0.514157
      28A     -0.492667    29A     -0.475564    30A     -0.447151
      31A     -0.350415

  @DF-RHF Final Energy:  -382.89952170122649

   => Energetics <=

    Nuclear Repulsion Energy =            378.6590656152004044
    One-Electron Energy =               -1272.3669962031747218
    Two-Electron Energy =                 510.8084088867477703
    Total Energy =                       -382.8995217012264902
  Basis Set: (AUG-CC-PVTZ AUX)
    Blend: AUG-CC-PVTZ-RI
    Molecular point group: c1

    Geometry (in Angstrom), charge = 0, multiplicity = 1:

       Center              X                  Y                   Z               Mass
    ------------   -----------------  -----------------  -----------------  -----------------
         O           -1.363365784581    -1.349427192467     0.473889737391    15.994914619570
         O           -2.283534784581     0.504136807533    -0.420214262609    15.994914619570
         C            1.217748215419    -0.209435192467    -0.039000262609    12.000000000000
         C            0.075104215419     0.517090807533     0.034199737391    12.000000000000
         C            2.562329215419     0.463713807533     0.064288737391    12.000000000000
         C            1.317029215419    -1.697419192467    -0.256782262609    12.000000000000
         C            0.070028215419     2.026469807533     0.131222737391    12.000000000000
         C           -1.284479784581    -0.079815192467    -0.020396262609    12.000000000000
         H            3.013338215419     0.581327807533    -0.929271262609     1.007825032230
         H            2.514207215419     1.445849807533     0.535560737391     1.007825032230
         H            3.243153215419    -0.162714192467     0.650338737391     1.007825032230
         H            0.432675215419    -2.124388192467    -0.723695262609     1.007825032230
         H            1.489529715419    -2.221382492467     0.690434237391     1.007825032230
         H            2.187883215419    -1.907666192467    -0.886935262609     1.007825032230
         H            0.795198215419     2.476547807533    -0.550402262609     1.007825032230
         H            0.306946215419     2.363145807533     1.146717737391     1.007825032230
         H           -0.919725784581     2.402738807533    -0.128796262609     1.007825032230
         H           -2.308608784581    -1.590254192467     0.373734737391     1.007825032230

  Basis Set: AUG-CC-PVTZ
    Blend: AUG-CC-PVTZ
  Basis Set: (AUG-CC-PVTZ AUX)
    Blend: AUG-CC-PVTZ-JKFIT
	 Reference Energy          =    -382.8995217012264902 [Eh]
	 Singles Energy            =      -0.0000000000000000 [Eh]
	 Same-Spin Energy          =      -0.3880520539086524 [Eh]
	 Opposite-Spin Energy      =      -1.2604836175677281 [Eh]
	 Correlation Energy        =      -1.6485356714763806 [Eh]
	 Total Energy              =    -384.5480573727028855 [Eh]

	 ================> DF-SCS-MP2 Energies <==================
	-----------------------------------------------------------
	 SCS Same-Spin Scale       =       0.3333333333333333 [-]
	 SCS Opposite-Spin Scale   =       1.2000000000000000 [-]
	 SCS Same-Spin Energy      =      -0.1293506846362175 [Eh]
	 SCS Opposite-Spin Energy  =      -1.5125803410812737 [Eh]
	 SCS Correlation Energy    =      -1.6419310257174911 [Eh]
	 SCS Total Energy          =    -384.5414527269439873 [Eh]
	-----------------------------------------------------------

  Dipole Moment: [D]
     X:     2.1185      Y:    -0.9164      Z:     0.4662     Total:     2.3548

*** Psi4 exiting successfully. Buy a developer a beer!
