                               Psi4 1.4a3.dev225

  ==> Input File <==

--------------------------------------------------------------------------
#psi4
#
memory 32 gb

molecule  {
0 1
  O       -1.4489980    -1.3596060     0.4723610
  O       -2.3691670     0.4939580    -0.4217430
  C        1.1275082    -0.2163804     0.0117780
  C       -0.0105280     0.5069120     0.0326710
  C        2.4766970     0.4535350     0.0627600
  C        1.2313970    -1.7075980    -0.2583110
  C       -0.0156040     2.0162910     0.1296940
  C       -1.3701120    -0.0899940    -0.0219250
  H        2.9277060     0.5711490    -0.9308000
  H        2.4285750     1.4356710     0.5340320
  H        3.1575210    -0.1728930     0.6488100
  H        0.3470430    -2.1345670    -0.7252240
  H        1.3871470    -2.2249860     0.6954000
  H        2.1022510    -1.9178450    -0.8884640
  H        0.7095660     2.4663690    -0.5519310
  H        0.2213140     2.3529670     1.1451890
  H       -1.0053580     2.3925600    -0.1303250
  H       -2.3942410    -1.6004330     0.3722060
units angstrom
no_reorient  #important for SAPT in psi4, default
symmetry c1  #important for SAPT in psi4, default
}

set PROPERTIES_ORIGIN ["COM"]
properties('MP2/aug-cc-pvtz', properties = ['dipole'])
--------------------------------------------------------------------------

    Molecular point group: c1
  Charge       = 0
  Multiplicity = 1
  Basis Set: AUG-CC-PVTZ
    Blend: AUG-CC-PVTZ
  Basis Set: (AUG-CC-PVTZ AUX)
    Blend: AUG-CC-PVTZ-JKFIT

    Orbital Energies [Eh]
    ---------------------

    Doubly Occupied:

       1A    -20.608571     2A    -20.541694     3A    -11.384742
       4A    -11.267909     5A    -11.242317     6A    -11.234299
       7A    -11.228625     8A    -11.219411     9A     -1.452882
      10A     -1.346406    11A     -1.123718    12A     -1.014453
      13A     -0.955622    14A     -0.908990    15A     -0.833996
      16A     -0.734218    17A     -0.699369    18A     -0.661995
      19A     -0.634449    20A     -0.610212    21A     -0.599370
      22A     -0.588087    23A     -0.563179    24A     -0.551142
      25A     -0.546211    26A     -0.542926    27A     -0.514265
      28A     -0.489853    29A     -0.475967    30A     -0.447135
      31A     -0.352407

  @DF-RHF Final Energy:  -382.89874018128188

   => Energetics <=

    Nuclear Repulsion Energy =            378.7227630956397775
    One-Electron Energy =               -1272.4941670550035724
    Two-Electron Energy =                 510.8726637780819715
    Total Energy =                       -382.8987401812818803
  Basis Set: (AUG-CC-PVTZ AUX)
    Blend: AUG-CC-PVTZ-RI
    Molecular point group: c1

    Geometry (in Angstrom), charge = 0, multiplicity = 1:

       Center              X                  Y                   Z               Mass
    ------------   -----------------  -----------------  -----------------  -----------------
         O           -1.362733046891    -1.349825462975     0.468329642734    15.994914619570
         O           -2.282902046891     0.503738537025    -0.425774357266    15.994914619570
         C            1.213773153109    -0.206599862975     0.007746642734    12.000000000000
         C            0.075736953109     0.516692537025     0.028639642734    12.000000000000
         C            2.562961953109     0.463315537025     0.058728642734    12.000000000000
         C            1.317661953109    -1.697817462975    -0.262342357266    12.000000000000
         C            0.070660953109     2.026071537025     0.125662642734    12.000000000000
         C           -1.283847046891    -0.080213462975    -0.025956357266    12.000000000000
         H            3.013970953109     0.580929537025    -0.934831357266     1.007825032230
         H            2.514839953109     1.445451537025     0.530000642734     1.007825032230
         H            3.243785953109    -0.163112462975     0.644778642734     1.007825032230
         H            0.433307953109    -2.124786462975    -0.729255357266     1.007825032230
         H            1.473411953109    -2.215205462975     0.691368642734     1.007825032230
         H            2.188515953109    -1.908064462975    -0.892495357266     1.007825032230
         H            0.795830953109     2.476149537025    -0.555962357266     1.007825032230
         H            0.307578953109     2.362747537025     1.141157642734     1.007825032230
         H           -0.919093046891     2.402340537025    -0.134356357266     1.007825032230
         H           -2.307976046891    -1.590652462975     0.368174642734     1.007825032230

  Basis Set: AUG-CC-PVTZ
    Blend: AUG-CC-PVTZ
  Basis Set: (AUG-CC-PVTZ AUX)
    Blend: AUG-CC-PVTZ-JKFIT
	 Reference Energy          =    -382.8987401812818803 [Eh]
	 Singles Energy            =      -0.0000000000000000 [Eh]
	 Same-Spin Energy          =      -0.3879553979112184 [Eh]
	 Opposite-Spin Energy      =      -1.2604375070612317 [Eh]
	 Correlation Energy        =      -1.6483929049724502 [Eh]
	 Total Energy              =    -384.5471330862543482 [Eh]

	 ================> DF-SCS-MP2 Energies <==================
	-----------------------------------------------------------
	 SCS Same-Spin Scale       =       0.3333333333333333 [-]
	 SCS Opposite-Spin Scale   =       1.2000000000000000 [-]
	 SCS Same-Spin Energy      =      -0.1293184659704061 [Eh]
	 SCS Opposite-Spin Energy  =      -1.5125250084734780 [Eh]
	 SCS Correlation Energy    =      -1.6418434744438841 [Eh]
	 SCS Total Energy          =    -384.5405836557257544 [Eh]
	-----------------------------------------------------------

  Dipole Moment: [D]
     X:     2.1050      Y:    -0.8995      Z:     0.4353     Total:     2.3301

*** Psi4 exiting successfully. Buy a developer a beer!
