                               Psi4 1.3.2 release

  ==> Input File <==

--------------------------------------------------------------------------
#psi4
#
memory 32 gb

molecule  {
0 1
  O       -1.4055500    -1.0035560    -0.0001340
  N       -0.2319130     1.0048570     0.0000670
  C        1.1804460     0.6184860    -0.0000090
  C        1.4443320    -0.8809630     0.0000140
  C       -1.3478080     0.2225470     0.0001080
  H        1.6527880     1.0692100    -0.8813440
  H        1.6528850     1.0692530     0.8812520
  H        1.0221490    -1.3629470     0.8804920
  H        1.0220490    -1.3629920    -0.8803930
  H        2.5284630    -1.0297260    -0.0000450
  H       -0.4113470     2.0016670     0.0000610
  H       -2.2610381     0.8495425     0.2999020
units angstrom
no_reorient  #important for SAPT in psi4, default
symmetry c1  #important for SAPT in psi4, default
}

set PROPERTIES_ORIGIN ["COM"]
properties('MP2/aug-cc-pvtz', properties = ['dipole'])
--------------------------------------------------------------------------

    Molecular point group: c1
  Charge       = 0
  Multiplicity = 1
  Basis Set: AUG-CC-PVTZ
    Blend: AUG-CC-PVTZ
  Basis Set: (AUG-CC-PVTZ AUX)
    Blend: AUG-CC-PVTZ-JKFIT

    Orbital Energies [Eh]
    ---------------------

    Doubly Occupied:

       1A    -20.522442     2A    -15.595738     3A    -11.356878
       4A    -11.276214     5A    -11.215260     6A     -1.371246
       7A     -1.235749     8A     -1.026672     9A     -0.887178
      10A     -0.775810    11A     -0.734976    12A     -0.648297
      13A     -0.636983    14A     -0.599475    15A     -0.546866
      16A     -0.534455    17A     -0.521279    18A     -0.509915
      19A     -0.420362    20A     -0.391446

  @DF-RHF Final Energy:  -247.08009084500591

   => Energetics <=

    Nuclear Repulsion Energy =            179.2519565007103779
    One-Electron Energy =                -691.0496085939548720
    Two-Electron Energy =                 264.7175612482385532
    Total Energy =                       -247.0800908450059410
  Basis Set: (AUG-CC-PVTZ AUX)
    Blend: AUG-CC-PVTZ-RI
    Molecular point group: c1

    Geometry (in Angstrom), charge = 0, multiplicity = 1:

       Center              X                  Y                   Z               Mass
    ------------   -----------------  -----------------  -----------------  -----------------
         O           -1.334932253931    -0.986907732521    -0.004273786016    15.994914619570
         N           -0.161295253931     1.021505267479    -0.004072786016    14.003074004430
         C            1.251063746069     0.635134267479    -0.004148786016    12.000000000000
         C            1.514949746069    -0.864314732521    -0.004125786016    12.000000000000
         C           -1.277190253931     0.239195267479    -0.004031786016    12.000000000000
         H            1.723405746069     1.085858267479    -0.885483786016     1.007825032230
         H            1.723502746069     1.085901267479     0.877112213984     1.007825032230
         H            1.092766746069    -1.346298732521     0.876352213984     1.007825032230
         H            1.092666746069    -1.346343732521    -0.884532786016     1.007825032230
         H            2.599080746069    -1.013077732521    -0.004184786016     1.007825032230
         H           -0.340729253931     2.018315267479    -0.004078786016     1.007825032230
         H           -2.190420353931     0.866190767479     0.295762213984     1.007825032230

  Basis Set: AUG-CC-PVTZ
    Blend: AUG-CC-PVTZ
  Basis Set: (AUG-CC-PVTZ AUX)
    Blend: AUG-CC-PVTZ-JKFIT
	 Reference Energy          =    -247.0800908450059126 [Eh]
	 Singles Energy            =      -0.0000000000000000 [Eh]
	 Same-Spin Energy          =      -0.2466647455660067 [Eh]
	 Opposite-Spin Energy      =      -0.8132509441404210 [Eh]
	 Correlation Energy        =      -1.0599156897064277 [Eh]
	 Total Energy              =    -248.1400065347123416 [Eh]

	 ================> DF-SCS-MP2 Energies <==================
	-----------------------------------------------------------
	 SCS Same-Spin Scale       =       0.3333333333333333 [-]
	 SCS Opposite-Spin Scale   =       1.2000000000000000 [-]
	 SCS Same-Spin Energy      =      -0.0822215818553356 [Eh]
	 SCS Opposite-Spin Energy  =      -0.9759011329685051 [Eh]
	 SCS Correlation Energy    =      -1.0581227148238406 [Eh]
	 SCS Total Energy          =    -248.1382135598297509 [Eh]
	-----------------------------------------------------------

  Dipole Moment: [D]
     X:     1.8432      Y:     3.3832      Z:     0.1244     Total:     3.8548

*** Psi4 exiting successfully. Buy a developer a beer!
