                               Psi4 1.3.2 release

  ==> Input File <==

--------------------------------------------------------------------------
#psi4
#
memory 32 gb

molecule  {
0 1
  O       -1.4055500    -1.0035560    -0.0001340
  N       -0.2319130     1.0048570     0.0000670
  C        1.1804460     0.6184860    -0.0000090
  C        1.4443320    -0.8809630     0.0000140
  C       -1.3478080     0.2225470     0.0001080
  H        1.6527880     1.0692100    -0.8813440
  H        1.6528850     1.0692530     0.8812520
  H        1.0221490    -1.3629470     0.8804920
  H        1.0220490    -1.3629920    -0.8803930
  H        2.5284630    -1.0297260    -0.0000450
  H       -0.4113470     2.0016670     0.0000610
  H       -2.2610304     0.8495480     0.1999020
units angstrom
no_reorient  #important for SAPT in psi4, default
symmetry c1  #important for SAPT in psi4, default
}

set PROPERTIES_ORIGIN ["COM"]
properties('MP2/aug-cc-pvtz', properties = ['dipole'])
--------------------------------------------------------------------------

    Molecular point group: c1
  Charge       = 0
  Multiplicity = 1
  Basis Set: AUG-CC-PVTZ
    Blend: AUG-CC-PVTZ
  Basis Set: (AUG-CC-PVTZ AUX)
    Blend: AUG-CC-PVTZ-JKFIT

    Orbital Energies [Eh]
    ---------------------

    Doubly Occupied:

       1A    -20.521259     2A    -15.595526     3A    -11.354565
       4A    -11.275955     5A    -11.215017     6A     -1.370607
       7A     -1.235534     8A     -1.026711     9A     -0.887867
      10A     -0.777507    11A     -0.737616    12A     -0.647835
      13A     -0.636890    14A     -0.600302    15A     -0.547284
      16A     -0.534248    17A     -0.521209    18A     -0.509683
      19A     -0.421179    20A     -0.391368

  @DF-RHF Final Energy:  -247.08373504341947

   => Energetics <=

    Nuclear Repulsion Energy =            179.3339900077168920
    One-Electron Energy =                -691.2191239639702189
    Two-Electron Energy =                 264.8013989128338039
    Total Energy =                       -247.0837350434194946
  Basis Set: (AUG-CC-PVTZ AUX)
    Blend: AUG-CC-PVTZ-RI
    Molecular point group: c1

    Geometry (in Angstrom), charge = 0, multiplicity = 1:

       Center              X                  Y                   Z               Mass
    ------------   -----------------  -----------------  -----------------  -----------------
         O           -1.334932360159    -0.986907808398    -0.002894200933    15.994914619570
         N           -0.161295360159     1.021505191602    -0.002693200933    14.003074004430
         C            1.251063639841     0.635134191602    -0.002769200933    12.000000000000
         C            1.514949639841    -0.864314808398    -0.002746200933    12.000000000000
         C           -1.277190360159     0.239195191602    -0.002652200933    12.000000000000
         H            1.723405639841     1.085858191602    -0.884104200933     1.007825032230
         H            1.723502639841     1.085901191602     0.878491799067     1.007825032230
         H            1.092766639841    -1.346298808398     0.877731799067     1.007825032230
         H            1.092666639841    -1.346343808398    -0.883153200933     1.007825032230
         H            2.599080639841    -1.013077808398    -0.002805200933     1.007825032230
         H           -0.340729360159     2.018315191602    -0.002699200933     1.007825032230
         H           -2.190412760159     0.866196191602     0.197141799067     1.007825032230

  Basis Set: AUG-CC-PVTZ
    Blend: AUG-CC-PVTZ
  Basis Set: (AUG-CC-PVTZ AUX)
    Blend: AUG-CC-PVTZ-JKFIT
	 Reference Energy          =    -247.0837350434194661 [Eh]
	 Singles Energy            =      -0.0000000000000000 [Eh]
	 Same-Spin Energy          =      -0.2464468557400236 [Eh]
	 Opposite-Spin Energy      =      -0.8127652040302711 [Eh]
	 Correlation Energy        =      -1.0592120597702948 [Eh]
	 Total Energy              =    -248.1429471031897549 [Eh]

	 ================> DF-SCS-MP2 Energies <==================
	-----------------------------------------------------------
	 SCS Same-Spin Scale       =       0.3333333333333333 [-]
	 SCS Opposite-Spin Scale   =       1.2000000000000000 [-]
	 SCS Same-Spin Energy      =      -0.0821489519133412 [Eh]
	 SCS Opposite-Spin Energy  =      -0.9753182448363252 [Eh]
	 SCS Correlation Energy    =      -1.0574671967496665 [Eh]
	 SCS Total Energy          =    -248.1412022401691218 [Eh]
	-----------------------------------------------------------

  Dipole Moment: [D]
     X:     1.8074      Y:     3.4179      Z:     0.0863     Total:     3.8674

*** Psi4 exiting successfully. Buy a developer a beer!
