                               Psi4 1.3.2 release

  ==> Input File <==

--------------------------------------------------------------------------
#psi4
#
memory 32 gb

molecule  {
0 1
  O       -1.4055500    -1.0035560    -0.0001340
  N       -0.2319130     1.0048570     0.0000670
  C        1.1804460     0.6184860    -0.0000090
  C        1.4443320    -0.8809630     0.0000140
  C       -1.3478080     0.2225470     0.0001080
  H        1.6527880     1.0692100    -0.8813440
  H        1.6528850     1.0692530     0.8812520
  H        1.0221490    -1.3629470     0.8804920
  H        1.0220490    -1.3629920    -0.8803930
  H        2.5284630    -1.0297260    -0.0000450
  H       -0.4113562     2.0016666    -0.1999390
  H       -2.2610150     0.8495590    -0.0000980
units angstrom
no_reorient  #important for SAPT in psi4, default
symmetry c1  #important for SAPT in psi4, default
}

set PROPERTIES_ORIGIN ["COM"]
properties('MP2/aug-cc-pvtz', properties = ['dipole'])
--------------------------------------------------------------------------

    Molecular point group: c1
  Charge       = 0
  Multiplicity = 1
  Basis Set: AUG-CC-PVTZ
    Blend: AUG-CC-PVTZ
  Basis Set: (AUG-CC-PVTZ AUX)
    Blend: AUG-CC-PVTZ-JKFIT

    Orbital Energies [Eh]
    ---------------------

    Doubly Occupied:

       1A    -20.521087     2A    -15.596731     3A    -11.352791
       4A    -11.275484     5A    -11.214662     6A     -1.370476
       7A     -1.233303     8A     -1.026236     9A     -0.888217
      10A     -0.776970    11A     -0.736102    12A     -0.647417
      13A     -0.636932    14A     -0.600422    15A     -0.548885
      16A     -0.533012    17A     -0.519744    18A     -0.509350
      19A     -0.422238    20A     -0.391623

  @DF-RHF Final Energy:  -247.08466700651684

   => Energetics <=

    Nuclear Repulsion Energy =            179.3118699637063571
    One-Electron Energy =                -691.1897094077927477
    Two-Electron Energy =                 264.7931724375695239
    Total Energy =                       -247.0846670065168382
  Basis Set: (AUG-CC-PVTZ AUX)
    Blend: AUG-CC-PVTZ-RI
    Molecular point group: c1

    Geometry (in Angstrom), charge = 0, multiplicity = 1:

       Center              X                  Y                   Z               Mass
    ------------   -----------------  -----------------  -----------------  -----------------
         O           -1.334932445693    -0.986907954634     0.002624139396    15.994914619570
         N           -0.161295445693     1.021505045366     0.002825139396    14.003074004430
         C            1.251063554307     0.635134045366     0.002749139396    12.000000000000
         C            1.514949554307    -0.864314954634     0.002772139396    12.000000000000
         C           -1.277190445693     0.239195045366     0.002866139396    12.000000000000
         H            1.723405554307     1.085858045366    -0.878585860604     1.007825032230
         H            1.723502554307     1.085901045366     0.884010139396     1.007825032230
         H            1.092766554307    -1.346298954634     0.883250139396     1.007825032230
         H            1.092666554307    -1.346343954634    -0.877634860604     1.007825032230
         H            2.599080554307    -1.013077954634     0.002713139396     1.007825032230
         H           -0.340738645693     2.018314645366    -0.197180860604     1.007825032230
         H           -2.190397445693     0.866207045366     0.002660139396     1.007825032230

  Basis Set: AUG-CC-PVTZ
    Blend: AUG-CC-PVTZ
  Basis Set: (AUG-CC-PVTZ AUX)
    Blend: AUG-CC-PVTZ-JKFIT
	 Reference Energy          =    -247.0846670065168382 [Eh]
	 Singles Energy            =      -0.0000000000000000 [Eh]
	 Same-Spin Energy          =      -0.2463973939526850 [Eh]
	 Opposite-Spin Energy      =      -0.8127770815071378 [Eh]
	 Correlation Energy        =      -1.0591744754598227 [Eh]
	 Total Energy              =    -248.1438414819766649 [Eh]

	 ================> DF-SCS-MP2 Energies <==================
	-----------------------------------------------------------
	 SCS Same-Spin Scale       =       0.3333333333333333 [-]
	 SCS Opposite-Spin Scale   =       1.2000000000000000 [-]
	 SCS Same-Spin Energy      =      -0.0821324646508950 [Eh]
	 SCS Opposite-Spin Energy  =      -0.9753324978085653 [Eh]
	 SCS Correlation Energy    =      -1.0574649624594603 [Eh]
	 SCS Total Energy          =    -248.1421319689762868 [Eh]
	-----------------------------------------------------------

  Dipole Moment: [D]
     X:     1.7675      Y:     3.4163      Z:    -0.2768     Total:     3.8564

*** Psi4 exiting successfully. Buy a developer a beer!
