                               Psi4 1.3.2 release

  ==> Input File <==

--------------------------------------------------------------------------
#psi4
#
memory 32 gb

molecule  {
0 1
  O       -1.4055500    -1.0035560    -0.0001340
  N       -0.2319130     1.0048570     0.0000670
  C        1.1804460     0.6184860    -0.0000090
  C        1.4443320    -0.8809630     0.0000140
  C       -1.3478080     0.2225470     0.0001080
  H        1.6527880     1.0692100    -0.8813440
  H        1.6528850     1.0692530     0.8812520
  H        1.0221490    -1.3629470     0.8804920
  H        1.0220490    -1.3629920    -0.8803930
  H        2.5284630    -1.0297260    -0.0000450
  H       -0.4113470     2.0016670     0.0000610
  H       -2.2610266     0.8495507     0.1499020
units angstrom
no_reorient  #important for SAPT in psi4, default
symmetry c1  #important for SAPT in psi4, default
}

set PROPERTIES_ORIGIN ["COM"]
properties('MP2/aug-cc-pvtz', properties = ['dipole'])
--------------------------------------------------------------------------

    Molecular point group: c1
  Charge       = 0
  Multiplicity = 1
  Basis Set: AUG-CC-PVTZ
    Blend: AUG-CC-PVTZ
  Basis Set: (AUG-CC-PVTZ AUX)
    Blend: AUG-CC-PVTZ-JKFIT

    Orbital Energies [Eh]
    ---------------------

    Doubly Occupied:

       1A    -20.520844     2A    -15.595458     3A    -11.353739
       4A    -11.275867     5A    -11.214933     6A     -1.370385
       7A     -1.235464     8A     -1.026734     9A     -0.888143
      10A     -0.778203    11A     -0.738524    12A     -0.647666
      13A     -0.636875    14A     -0.600579    15A     -0.547446
      16A     -0.534177    17A     -0.521185    18A     -0.509604
      19A     -0.421460    20A     -0.391337

  @DF-RHF Final Energy:  -247.08493893369351

   => Energetics <=

    Nuclear Repulsion Energy =            179.3635637779564149
    One-Electron Energy =                -691.2797579624433411
    Two-Electron Energy =                 264.8312552507934470
    Total Energy =                       -247.0849389336934792
  Basis Set: (AUG-CC-PVTZ AUX)
    Blend: AUG-CC-PVTZ-RI
    Molecular point group: c1

    Geometry (in Angstrom), charge = 0, multiplicity = 1:

       Center              X                  Y                   Z               Mass
    ------------   -----------------  -----------------  -----------------  -----------------
         O           -1.334932412583    -0.986907845647    -0.002204408392    15.994914619570
         N           -0.161295412583     1.021505154353    -0.002003408392    14.003074004430
         C            1.251063587417     0.635134154353    -0.002079408392    12.000000000000
         C            1.514949587417    -0.864314845647    -0.002056408392    12.000000000000
         C           -1.277190412583     0.239195154353    -0.001962408392    12.000000000000
         H            1.723405587417     1.085858154353    -0.883414408392     1.007825032230
         H            1.723502587417     1.085901154353     0.879181591608     1.007825032230
         H            1.092766587417    -1.346298845647     0.878421591608     1.007825032230
         H            1.092666587417    -1.346343845647    -0.882463408392     1.007825032230
         H            2.599080587417    -1.013077845647    -0.002115408392     1.007825032230
         H           -0.340729412583     2.018315154353    -0.002009408392     1.007825032230
         H           -2.190409012583     0.866198854353     0.147831591608     1.007825032230

  Basis Set: AUG-CC-PVTZ
    Blend: AUG-CC-PVTZ
  Basis Set: (AUG-CC-PVTZ AUX)
    Blend: AUG-CC-PVTZ-JKFIT
	 Reference Energy          =    -247.0849389336935076 [Eh]
	 Singles Energy            =      -0.0000000000000000 [Eh]
	 Same-Spin Energy          =      -0.2463698749258726 [Eh]
	 Opposite-Spin Energy      =      -0.8126011852771542 [Eh]
	 Correlation Energy        =      -1.0589710602030267 [Eh]
	 Total Energy              =    -248.1439099938965285 [Eh]

	 ================> DF-SCS-MP2 Energies <==================
	-----------------------------------------------------------
	 SCS Same-Spin Scale       =       0.3333333333333333 [-]
	 SCS Opposite-Spin Scale   =       1.2000000000000000 [-]
	 SCS Same-Spin Energy      =      -0.0821232916419575 [Eh]
	 SCS Opposite-Spin Energy  =      -0.9751214223325850 [Eh]
	 SCS Correlation Energy    =      -1.0572447139745424 [Eh]
	 SCS Total Energy          =    -248.1421836476680483 [Eh]
	-----------------------------------------------------------

  Dipole Moment: [D]
     X:     1.7950      Y:     3.4302      Z:     0.0656     Total:     3.8720

*** Psi4 exiting successfully. Buy a developer a beer!
