                               Psi4 1.3.2 release

  ==> Input File <==

--------------------------------------------------------------------------
#psi4
#
memory 32 gb

molecule  {
0 1
  O       -1.4055500    -1.0035560    -0.0001340
  N       -0.2319130     1.0048570     0.0000670
  C        1.1804460     0.6184860    -0.0000090
  C        1.4443320    -0.8809630     0.0000140
  C       -1.3478080     0.2225470     0.0001080
  H        1.6527880     1.0692100    -0.8813440
  H        1.6528850     1.0692530     0.8812520
  H        1.0221490    -1.3629470     0.8804920
  H        1.0220490    -1.3629920    -0.8803930
  H        2.5284630    -1.0297260    -0.0000450
  H       -0.4113516     2.0016668    -0.0999390
  H       -2.2610150     0.8495590    -0.0000980
units angstrom
no_reorient  #important for SAPT in psi4, default
symmetry c1  #important for SAPT in psi4, default
}

set PROPERTIES_ORIGIN ["COM"]
properties('MP2/aug-cc-pvtz', properties = ['dipole'])
--------------------------------------------------------------------------

    Molecular point group: c1
  Charge       = 0
  Multiplicity = 1
  Basis Set: AUG-CC-PVTZ
    Blend: AUG-CC-PVTZ
  Basis Set: (AUG-CC-PVTZ AUX)
    Blend: AUG-CC-PVTZ-JKFIT

    Orbital Energies [Eh]
    ---------------------

    Doubly Occupied:

       1A    -20.520510     2A    -15.595719     3A    -11.352699
       4A    -11.275685     5A    -11.214783     6A     -1.370197
       7A     -1.234843     8A     -1.026633     9A     -0.888447
      10A     -0.778580    11A     -0.738800    12A     -0.647434
      13A     -0.636884    14A     -0.600805    15A     -0.548007
      16A     -0.533775    17A     -0.520803    18A     -0.509470
      19A     -0.421924    20A     -0.391377

  @DF-RHF Final Energy:  -247.08603049367639

   => Energetics <=

    Nuclear Repulsion Energy =            179.3792585789572911
    One-Electron Energy =                -691.3158290633639353
    Two-Electron Energy =                 264.8505399907302262
    Total Energy =                       -247.0860304936763896
  Basis Set: (AUG-CC-PVTZ AUX)
    Blend: AUG-CC-PVTZ-RI
    Molecular point group: c1

    Geometry (in Angstrom), charge = 0, multiplicity = 1:

       Center              X                  Y                   Z               Mass
    ------------   -----------------  -----------------  -----------------  -----------------
         O           -1.334932509154    -0.986907957394     0.001244554313    15.994914619570
         N           -0.161295509154     1.021505042606     0.001445554313    14.003074004430
         C            1.251063490846     0.635134042606     0.001369554313    12.000000000000
         C            1.514949490846    -0.864314957394     0.001392554313    12.000000000000
         C           -1.277190509154     0.239195042606     0.001486554313    12.000000000000
         H            1.723405490846     1.085858042606    -0.879965445687     1.007825032230
         H            1.723502490846     1.085901042606     0.882630554313     1.007825032230
         H            1.092766490846    -1.346298957394     0.881870554313     1.007825032230
         H            1.092666490846    -1.346343957394    -0.879014445687     1.007825032230
         H            2.599080490846    -1.013077957394     0.001333554313     1.007825032230
         H           -0.340734109154     2.018314842606    -0.098560445687     1.007825032230
         H           -2.190397509154     0.866207042606     0.001280554313     1.007825032230

  Basis Set: AUG-CC-PVTZ
    Blend: AUG-CC-PVTZ
  Basis Set: (AUG-CC-PVTZ AUX)
    Blend: AUG-CC-PVTZ-JKFIT
	 Reference Energy          =    -247.0860304936763896 [Eh]
	 Singles Energy            =      -0.0000000000000000 [Eh]
	 Same-Spin Energy          =      -0.2463025173885820 [Eh]
	 Opposite-Spin Energy      =      -0.8124913345296014 [Eh]
	 Correlation Energy        =      -1.0587938519181834 [Eh]
	 Total Energy              =    -248.1448243455945715 [Eh]

	 ================> DF-SCS-MP2 Energies <==================
	-----------------------------------------------------------
	 SCS Same-Spin Scale       =       0.3333333333333333 [-]
	 SCS Opposite-Spin Scale   =       1.2000000000000000 [-]
	 SCS Same-Spin Energy      =      -0.0821008391295273 [Eh]
	 SCS Opposite-Spin Energy  =      -0.9749896014355217 [Eh]
	 SCS Correlation Energy    =      -1.0570904405650490 [Eh]
	 SCS Total Energy          =    -248.1431209342414377 [Eh]
	-----------------------------------------------------------

  Dipole Moment: [D]
     X:     1.7762      Y:     3.4384      Z:    -0.1395     Total:     3.8726

*** Psi4 exiting successfully. Buy a developer a beer!
