                               Psi4 1.3.2 release

  ==> Input File <==

--------------------------------------------------------------------------
#psi4
#
memory 32 gb

molecule  {
0 1
  O       -1.4055500    -1.0035560    -0.0001340
  N       -0.2319130     1.0048570     0.0000670
  C        1.1804460     0.6184860    -0.0000090
  C        1.4443320    -0.8809630     0.0000140
  C       -1.3478080     0.2225470     0.0001080
  H        1.6527880     1.0692100    -0.8813440
  H        1.6528850     1.0692530     0.8812520
  H        1.0221490    -1.3629470     0.8804920
  H        1.0220490    -1.3629920    -0.8803930
  H        2.5284630    -1.0297260    -0.0000450
  H       -0.4113493     2.0016669    -0.0499390
  H       -2.2610150     0.8495590    -0.0000980
units angstrom
no_reorient  #important for SAPT in psi4, default
symmetry c1  #important for SAPT in psi4, default
}

set PROPERTIES_ORIGIN ["COM"]
properties('MP2/aug-cc-pvtz', properties = ['dipole'])
--------------------------------------------------------------------------

    Molecular point group: c1
  Charge       = 0
  Multiplicity = 1
  Basis Set: AUG-CC-PVTZ
    Blend: AUG-CC-PVTZ
  Basis Set: (AUG-CC-PVTZ AUX)
    Blend: AUG-CC-PVTZ-JKFIT

    Orbital Energies [Eh]
    ---------------------

    Doubly Occupied:

       1A    -20.520361     2A    -15.595462     3A    -11.352675
       4A    -11.275738     5A    -11.214815     6A     -1.370125
       7A     -1.235242     8A     -1.026737     9A     -0.888507
      10A     -0.779030    11A     -0.739455    12A     -0.647440
      13A     -0.636873    14A     -0.600896    15A     -0.547753
      16A     -0.534006    17A     -0.521066    18A     -0.509496
      19A     -0.421843    20A     -0.391314

  @DF-RHF Final Energy:  -247.08632564102288

   => Energetics <=

    Nuclear Repulsion Energy =            179.3964785227013579
    One-Electron Energy =                -691.3479381829214390
    Two-Electron Energy =                 264.8651340191971713
    Total Energy =                       -247.0863256410228814
  Basis Set: (AUG-CC-PVTZ AUX)
    Blend: AUG-CC-PVTZ-RI
    Molecular point group: c1

    Geometry (in Angstrom), charge = 0, multiplicity = 1:

       Center              X                  Y                   Z               Mass
    ------------   -----------------  -----------------  -----------------  -----------------
         O           -1.334932540884    -0.986907958773     0.000554761772    15.994914619570
         N           -0.161295540884     1.021505041227     0.000755761772    14.003074004430
         C            1.251063459116     0.635134041227     0.000679761772    12.000000000000
         C            1.514949459116    -0.864314958773     0.000702761772    12.000000000000
         C           -1.277190540884     0.239195041227     0.000796761772    12.000000000000
         H            1.723405459116     1.085858041227    -0.880655238228     1.007825032230
         H            1.723502459116     1.085901041227     0.881940761772     1.007825032230
         H            1.092766459116    -1.346298958773     0.881180761772     1.007825032230
         H            1.092666459116    -1.346343958773    -0.879704238228     1.007825032230
         H            2.599080459116    -1.013077958773     0.000643761772     1.007825032230
         H           -0.340731840884     2.018314941227    -0.049250238228     1.007825032230
         H           -2.190397540884     0.866207041227     0.000590761772     1.007825032230

  Basis Set: AUG-CC-PVTZ
    Blend: AUG-CC-PVTZ
  Basis Set: (AUG-CC-PVTZ AUX)
    Blend: AUG-CC-PVTZ-JKFIT
	 Reference Energy          =    -247.0863256410228814 [Eh]
	 Singles Energy            =      -0.0000000000000000 [Eh]
	 Same-Spin Energy          =      -0.2462785914639651 [Eh]
	 Opposite-Spin Energy      =      -0.8124204266489334 [Eh]
	 Correlation Energy        =      -1.0586990181128986 [Eh]
	 Total Energy              =    -248.1450246591357711 [Eh]

	 ================> DF-SCS-MP2 Energies <==================
	-----------------------------------------------------------
	 SCS Same-Spin Scale       =       0.3333333333333333 [-]
	 SCS Opposite-Spin Scale   =       1.2000000000000000 [-]
	 SCS Same-Spin Energy      =      -0.0820928638213217 [Eh]
	 SCS Opposite-Spin Energy  =      -0.9749045119787201 [Eh]
	 SCS Correlation Energy    =      -1.0569973758000417 [Eh]
	 SCS Total Energy          =    -248.1433230168229329 [Eh]
	-----------------------------------------------------------

  Dipole Moment: [D]
     X:     1.7784      Y:     3.4440      Z:    -0.0698     Total:     3.8767

*** Psi4 exiting successfully. Buy a developer a beer!
