                               Psi4 1.3.2 release

  ==> Input File <==

--------------------------------------------------------------------------
#psi4
#
memory 32 gb

molecule  {
0 1
  O       -1.4055500    -1.0035560    -0.0001340
  N       -0.2319130     1.0048570     0.0000670
  C        1.1804460     0.6184860    -0.0000090
  C        1.4443320    -0.8809630     0.0000140
  C       -1.3478080     0.2225470     0.0001080
  H        1.6527880     1.0692100    -0.8813440
  H        1.6528850     1.0692530     0.8812520
  H        1.0221490    -1.3629470     0.8804920
  H        1.0220490    -1.3629920    -0.8803930
  H        2.5284630    -1.0297260    -0.0000450
  H       -0.4113470     2.0016670     0.0000610
  H       -2.2610227     0.8495535     0.0999020
units angstrom
no_reorient  #important for SAPT in psi4, default
symmetry c1  #important for SAPT in psi4, default
}

set PROPERTIES_ORIGIN ["COM"]
properties('MP2/aug-cc-pvtz', properties = ['dipole'])
--------------------------------------------------------------------------

    Molecular point group: c1
  Charge       = 0
  Multiplicity = 1
  Basis Set: AUG-CC-PVTZ
    Blend: AUG-CC-PVTZ
  Basis Set: (AUG-CC-PVTZ AUX)
    Blend: AUG-CC-PVTZ-JKFIT

    Orbital Energies [Eh]
    ---------------------

    Doubly Occupied:

       1A    -20.520548     2A    -15.595412     3A    -11.353145
       4A    -11.275805     5A    -11.214873     6A     -1.370227
       7A     -1.235415     8A     -1.026754     9A     -0.888352
      10A     -0.778736    11A     -0.739165    12A     -0.647542
      13A     -0.636870    14A     -0.600774    15A     -0.547566
      16A     -0.534127    17A     -0.521167    18A     -0.509548
      19A     -0.421658    20A     -0.391313

  @DF-RHF Final Energy:  -247.08577247451382

   => Energetics <=

    Nuclear Repulsion Energy =            179.3849715364067094
    One-Electron Energy =                -691.3234910772659987
    Two-Electron Energy =                 264.8527470663454437
    Total Energy =                       -247.0857724745138171
  Basis Set: (AUG-CC-PVTZ AUX)
    Blend: AUG-CC-PVTZ-RI
    Molecular point group: c1

    Geometry (in Angstrom), charge = 0, multiplicity = 1:

       Center              X                  Y                   Z               Mass
    ------------   -----------------  -----------------  -----------------  -----------------
         O           -1.334932466387    -0.986907884276    -0.001514615851    15.994914619570
         N           -0.161295466387     1.021505115724    -0.001313615851    14.003074004430
         C            1.251063533613     0.635134115724    -0.001389615851    12.000000000000
         C            1.514949533613    -0.864314884276    -0.001366615851    12.000000000000
         C           -1.277190466387     0.239195115724    -0.001272615851    12.000000000000
         H            1.723405533613     1.085858115724    -0.882724615851     1.007825032230
         H            1.723502533613     1.085901115724     0.879871384149     1.007825032230
         H            1.092766533613    -1.346298884276     0.879111384149     1.007825032230
         H            1.092666533613    -1.346343884276    -0.881773615851     1.007825032230
         H            2.599080533613    -1.013077884276    -0.001425615851     1.007825032230
         H           -0.340729466387     2.018315115724    -0.001319615851     1.007825032230
         H           -2.190405166387     0.866201615724     0.098521384149     1.007825032230

  Basis Set: AUG-CC-PVTZ
    Blend: AUG-CC-PVTZ
  Basis Set: (AUG-CC-PVTZ AUX)
    Blend: AUG-CC-PVTZ-JKFIT
	 Reference Energy          =    -247.0857724745138171 [Eh]
	 Singles Energy            =      -0.0000000000000000 [Eh]
	 Same-Spin Energy          =      -0.2463146980527907 [Eh]
	 Opposite-Spin Energy      =      -0.8124865446405867 [Eh]
	 Correlation Energy        =      -1.0588012426933775 [Eh]
	 Total Energy              =    -248.1445737172072086 [Eh]

	 ================> DF-SCS-MP2 Energies <==================
	-----------------------------------------------------------
	 SCS Same-Spin Scale       =       0.3333333333333333 [-]
	 SCS Opposite-Spin Scale   =       1.2000000000000000 [-]
	 SCS Same-Spin Energy      =      -0.0821048993509302 [Eh]
	 SCS Opposite-Spin Energy  =      -0.9749838535687040 [Eh]
	 SCS Correlation Energy    =      -1.0570887529196342 [Eh]
	 SCS Total Energy          =    -248.1428612274334569 [Eh]
	-----------------------------------------------------------

  Dipole Moment: [D]
     X:     1.7862      Y:     3.4389      Z:     0.0442     Total:     3.8754

*** Psi4 exiting successfully. Buy a developer a beer!
