                               Psi4 1.3.2 release

  ==> Input File <==

--------------------------------------------------------------------------
#psi4
#
memory 32 gb

molecule  {
0 1
  O       -1.4055500    -1.0035560    -0.0001340
  N       -0.2319130     1.0048570     0.0000670
  C        1.1804460     0.6184860    -0.0000090
  C        1.4443320    -0.8809630     0.0000140
  C       -1.3478080     0.2225470     0.0001080
  H        1.6527880     1.0692100    -0.8813440
  H        1.6528850     1.0692530     0.8812520
  H        1.0221490    -1.3629470     0.8804920
  H        1.0220490    -1.3629920    -0.8803930
  H        2.5284630    -1.0297260    -0.0000450
  H       -0.4113608     2.0016663    -0.2999390
  H       -2.2610150     0.8495590    -0.0000980
units angstrom
no_reorient  #important for SAPT in psi4, default
symmetry c1  #important for SAPT in psi4, default
}

set PROPERTIES_ORIGIN ["COM"]
properties('MP2/aug-cc-pvtz', properties = ['dipole'])
--------------------------------------------------------------------------

    Molecular point group: c1
  Charge       = 0
  Multiplicity = 1
  Basis Set: AUG-CC-PVTZ
    Blend: AUG-CC-PVTZ
  Basis Set: (AUG-CC-PVTZ AUX)
    Blend: AUG-CC-PVTZ-JKFIT

    Orbital Energies [Eh]
    ---------------------

    Doubly Occupied:

       1A    -20.521991     2A    -15.598356     3A    -11.352939
       4A    -11.275182     5A    -11.214479     6A     -1.370923
       7A     -1.230932     8A     -1.025633     9A     -0.887872
      10A     -0.774853    11A     -0.731413    12A     -0.647410
      13A     -0.637023    14A     -0.599724    15A     -0.550010
      16A     -0.532137    17A     -0.518011    18A     -0.509070
      19A     -0.422729    20A     -0.392019

  @DF-RHF Final Energy:  -247.08182948664663

   => Energetics <=

    Nuclear Repulsion Energy =            179.2045232215192812
    One-Electron Energy =                -690.9872936089385576
    Two-Electron Energy =                 264.7009409007727072
    Total Energy =                       -247.0818294866465976
  Basis Set: (AUG-CC-PVTZ AUX)
    Blend: AUG-CC-PVTZ-RI
    Molecular point group: c1

    Geometry (in Angstrom), charge = 0, multiplicity = 1:

       Center              X                  Y                   Z               Mass
    ------------   -----------------  -----------------  -----------------  -----------------
         O           -1.334932382232    -0.986907950496     0.004003724478    15.994914619570
         N           -0.161295382232     1.021505049504     0.004204724478    14.003074004430
         C            1.251063617768     0.635134049504     0.004128724478    12.000000000000
         C            1.514949617768    -0.864314950496     0.004151724478    12.000000000000
         C           -1.277190382232     0.239195049504     0.004245724478    12.000000000000
         H            1.723405617768     1.085858049504    -0.877206275522     1.007825032230
         H            1.723502617768     1.085901049504     0.885389724478     1.007825032230
         H            1.092766617768    -1.346298950496     0.884629724478     1.007825032230
         H            1.092666617768    -1.346343950496    -0.876255275522     1.007825032230
         H            2.599080617768    -1.013077950496     0.004092724478     1.007825032230
         H           -0.340743182232     2.018314349504    -0.295801275522     1.007825032230
         H           -2.190397382232     0.866207049504     0.004039724478     1.007825032230

  Basis Set: AUG-CC-PVTZ
    Blend: AUG-CC-PVTZ
  Basis Set: (AUG-CC-PVTZ AUX)
    Blend: AUG-CC-PVTZ-JKFIT
	 Reference Energy          =    -247.0818294866466260 [Eh]
	 Singles Energy            =      -0.0000000000000000 [Eh]
	 Same-Spin Energy          =      -0.2465521530431769 [Eh]
	 Opposite-Spin Energy      =      -0.8132573940594681 [Eh]
	 Correlation Energy        =      -1.0598095471026450 [Eh]
	 Total Energy              =    -248.1416390337492714 [Eh]

	 ================> DF-SCS-MP2 Energies <==================
	-----------------------------------------------------------
	 SCS Same-Spin Scale       =       0.3333333333333333 [-]
	 SCS Opposite-Spin Scale   =       1.2000000000000000 [-]
	 SCS Same-Spin Energy      =      -0.0821840510143923 [Eh]
	 SCS Opposite-Spin Energy  =      -0.9759088728713616 [Eh]
	 SCS Correlation Energy    =      -1.0580929238857539 [Eh]
	 SCS Total Energy          =    -248.1399224105323924 [Eh]
	-----------------------------------------------------------

  Dipole Moment: [D]
     X:     1.7543      Y:     3.3810      Z:    -0.4097     Total:     3.8310

*** Psi4 exiting successfully. Buy a developer a beer!
