                               Psi4 1.3.2 release

  ==> Input File <==

--------------------------------------------------------------------------
#psi4
#
memory 32 gb

molecule  {
0 1
  O       -1.4055500    -1.0035560    -0.0001340
  N       -0.2319130     1.0048570     0.0000670
  C        1.1804460     0.6184860    -0.0000090
  C        1.4443320    -0.8809630     0.0000140
  C       -1.3478080     0.2225470     0.0001080
  H        1.6527880     1.0692100    -0.8813440
  H        1.6528850     1.0692530     0.8812520
  H        1.0221490    -1.3629470     0.8804920
  H        1.0220490    -1.3629920    -0.8803930
  H        2.5284630    -1.0297260    -0.0000450
  H       -0.4113470     2.0016670     0.0000610
  H       -2.2610343     0.8495452     0.2499020
units angstrom
no_reorient  #important for SAPT in psi4, default
symmetry c1  #important for SAPT in psi4, default
}

set PROPERTIES_ORIGIN ["COM"]
properties('MP2/aug-cc-pvtz', properties = ['dipole'])
--------------------------------------------------------------------------

    Molecular point group: c1
  Charge       = 0
  Multiplicity = 1
  Basis Set: AUG-CC-PVTZ
    Blend: AUG-CC-PVTZ
  Basis Set: (AUG-CC-PVTZ AUX)
    Blend: AUG-CC-PVTZ-JKFIT

    Orbital Energies [Eh]
    ---------------------

    Doubly Occupied:

       1A    -20.521792     2A    -15.595618     3A    -11.355614
       4A    -11.276070     5A    -11.215126     6A     -1.370894
       7A     -1.235629     8A     -1.026689     9A     -0.887540
      10A     -0.776692    11A     -0.736434    12A     -0.648047
      13A     -0.636923    14A     -0.599935    15A     -0.547089
      16A     -0.534340    17A     -0.521240    18A     -0.509786
      19A     -0.420814    20A     -0.391405

  @DF-RHF Final Energy:  -247.08213001582152

   => Energetics <=

    Nuclear Repulsion Energy =            179.2966328702249825
    One-Electron Energy =                -691.1421700840120366
    Two-Electron Energy =                 264.7634071979655346
    Total Energy =                       -247.0821300158215195
  Basis Set: (AUG-CC-PVTZ AUX)
    Blend: AUG-CC-PVTZ-RI
    Molecular point group: c1

    Geometry (in Angstrom), charge = 0, multiplicity = 1:

       Center              X                  Y                   Z               Mass
    ------------   -----------------  -----------------  -----------------  -----------------
         O           -1.334932306355    -0.986907769770    -0.003583993475    15.994914619570
         N           -0.161295306355     1.021505230230    -0.003382993475    14.003074004430
         C            1.251063693645     0.635134230230    -0.003458993475    12.000000000000
         C            1.514949693645    -0.864314769770    -0.003435993475    12.000000000000
         C           -1.277190306355     0.239195230230    -0.003341993475    12.000000000000
         H            1.723405693645     1.085858230230    -0.884793993475     1.007825032230
         H            1.723502693645     1.085901230230     0.877802006525     1.007825032230
         H            1.092766693645    -1.346298769770     0.877042006525     1.007825032230
         H            1.092666693645    -1.346343769770    -0.883842993475     1.007825032230
         H            2.599080693645    -1.013077769770    -0.003494993475     1.007825032230
         H           -0.340729306355     2.018315230230    -0.003388993475     1.007825032230
         H           -2.190416606355     0.866193430230     0.246452006525     1.007825032230

  Basis Set: AUG-CC-PVTZ
    Blend: AUG-CC-PVTZ
  Basis Set: (AUG-CC-PVTZ AUX)
    Blend: AUG-CC-PVTZ-JKFIT
	 Reference Energy          =    -247.0821300158215195 [Eh]
	 Singles Energy            =      -0.0000000000000000 [Eh]
	 Same-Spin Energy          =      -0.2465452971447707 [Eh]
	 Opposite-Spin Energy      =      -0.8129810589640546 [Eh]
	 Correlation Energy        =      -1.0595263561088253 [Eh]
	 Total Energy              =    -248.1416563719303383 [Eh]

	 ================> DF-SCS-MP2 Energies <==================
	-----------------------------------------------------------
	 SCS Same-Spin Scale       =       0.3333333333333333 [-]
	 SCS Opposite-Spin Scale   =       1.2000000000000000 [-]
	 SCS Same-Spin Energy      =      -0.0821817657149236 [Eh]
	 SCS Opposite-Spin Energy  =      -0.9755772707568655 [Eh]
	 SCS Correlation Energy    =      -1.0577590364717890 [Eh]
	 SCS Total Energy          =    -248.1398890522933129 [Eh]
	-----------------------------------------------------------

  Dipole Moment: [D]
     X:     1.8235      Y:     3.4023      Z:     0.1060     Total:     3.8616

*** Psi4 exiting successfully. Buy a developer a beer!
