                               Psi4 1.3.2 release

  ==> Input File <==

--------------------------------------------------------------------------
#psi4
#
memory 32 gb

molecule  {
0 1
  O       -1.4055500    -1.0035560    -0.0001340
  N       -0.2319130     1.0048570     0.0000670
  C        1.1804460     0.6184860    -0.0000090
  C        1.4443320    -0.8809630     0.0000140
  C       -1.3478080     0.2225470     0.0001080
  H        1.6527880     1.0692100    -0.8813440
  H        1.6528850     1.0692530     0.8812520
  H        1.0221490    -1.3629470     0.8804920
  H        1.0220490    -1.3629920    -0.8803930
  H        2.5284630    -1.0297260    -0.0000450
  H       -0.4113470     2.0016670     0.0000610
  H       -2.2610189     0.8495562     0.0499020
units angstrom
no_reorient  #important for SAPT in psi4, default
symmetry c1  #important for SAPT in psi4, default
}

set PROPERTIES_ORIGIN ["COM"]
properties('MP2/aug-cc-pvtz', properties = ['dipole'])
--------------------------------------------------------------------------

    Molecular point group: c1
  Charge       = 0
  Multiplicity = 1
  Basis Set: AUG-CC-PVTZ
    Blend: AUG-CC-PVTZ
  Basis Set: (AUG-CC-PVTZ AUX)
    Blend: AUG-CC-PVTZ-JKFIT

    Orbital Energies [Eh]
    ---------------------

    Doubly Occupied:

       1A    -20.520370     2A    -15.595385     3A    -11.352787
       4A    -11.275768     5A    -11.214838     6A     -1.370132
       7A     -1.235386     8A     -1.026768     9A     -0.888483
      10A     -0.779070    11A     -0.739545    12A     -0.647467
      13A     -0.636869    14A     -0.600889    15A     -0.547640
      16A     -0.534098    17A     -0.521157    18A     -0.509515
      19A     -0.421776    20A     -0.391298

  @DF-RHF Final Energy:  -247.08626068149218

   => Energetics <=

    Nuclear Repulsion Energy =            179.3979267181672412
    One-Electron Energy =                -691.3498913953969804
    Two-Electron Energy =                 264.8657039957375332
    Total Energy =                       -247.0862606814922060
  Basis Set: (AUG-CC-PVTZ AUX)
    Blend: AUG-CC-PVTZ-RI
    Molecular point group: c1

    Geometry (in Angstrom), charge = 0, multiplicity = 1:

       Center              X                  Y                   Z               Mass
    ------------   -----------------  -----------------  -----------------  -----------------
         O           -1.334932518811    -0.986907921524    -0.000824823310    15.994914619570
         N           -0.161295518811     1.021505078476    -0.000623823310    14.003074004430
         C            1.251063481189     0.635134078476    -0.000699823310    12.000000000000
         C            1.514949481189    -0.864314921524    -0.000676823310    12.000000000000
         C           -1.277190518811     0.239195078476    -0.000582823310    12.000000000000
         H            1.723405481189     1.085858078476    -0.882034823310     1.007825032230
         H            1.723502481189     1.085901078476     0.880561176690     1.007825032230
         H            1.092766481189    -1.346298921524     0.879801176690     1.007825032230
         H            1.092666481189    -1.346343921524    -0.881083823310     1.007825032230
         H            2.599080481189    -1.013077921524    -0.000735823310     1.007825032230
         H           -0.340729518811     2.018315078476    -0.000629823310     1.007825032230
         H           -2.190401418811     0.866204278476     0.049211176690     1.007825032230

  Basis Set: AUG-CC-PVTZ
    Blend: AUG-CC-PVTZ
  Basis Set: (AUG-CC-PVTZ AUX)
    Blend: AUG-CC-PVTZ-JKFIT
	 Reference Energy          =    -247.0862606814921776 [Eh]
	 Singles Energy            =      -0.0000000000000000 [Eh]
	 Same-Spin Energy          =      -0.2462815614809559 [Eh]
	 Opposite-Spin Energy      =      -0.8124189841987544 [Eh]
	 Correlation Energy        =      -1.0587005456797103 [Eh]
	 Total Energy              =    -248.1449612271718763 [Eh]

	 ================> DF-SCS-MP2 Energies <==================
	-----------------------------------------------------------
	 SCS Same-Spin Scale       =       0.3333333333333333 [-]
	 SCS Opposite-Spin Scale   =       1.2000000000000000 [-]
	 SCS Same-Spin Energy      =      -0.0820938538269853 [Eh]
	 SCS Opposite-Spin Energy  =      -0.9749027810385051 [Eh]
	 SCS Correlation Energy    =      -1.0569966348654904 [Eh]
	 SCS Total Energy          =    -248.1432573163576762 [Eh]
	-----------------------------------------------------------

  Dipole Moment: [D]
     X:     1.7809      Y:     3.4442      Z:     0.0223     Total:     3.8774

*** Psi4 exiting successfully. Buy a developer a beer!
