                               Psi4 1.3.2 release

  ==> Input File <==

--------------------------------------------------------------------------
#psi4
#
memory 32 gb

molecule  {
0 1
  O       -1.4055500    -1.0035560    -0.0001340
  N       -0.2319130     1.0048570     0.0000670
  C        1.1804460     0.6184860    -0.0000090
  C        1.4443320    -0.8809630     0.0000140
  C       -1.3478080     0.2225470     0.0001080
  H        1.6527880     1.0692100    -0.8813440
  H        1.6528850     1.0692530     0.8812520
  H        1.0221490    -1.3629470     0.8804920
  H        1.0220490    -1.3629920    -0.8803930
  H        2.5284630    -1.0297260    -0.0000450
  H       -0.4113585     2.0016664    -0.2499390
  H       -2.2610150     0.8495590    -0.0000980
units angstrom
no_reorient  #important for SAPT in psi4, default
symmetry c1  #important for SAPT in psi4, default
}

set PROPERTIES_ORIGIN ["COM"]
properties('MP2/aug-cc-pvtz', properties = ['dipole'])
--------------------------------------------------------------------------

    Molecular point group: c1
  Charge       = 0
  Multiplicity = 1
  Basis Set: AUG-CC-PVTZ
    Blend: AUG-CC-PVTZ
  Basis Set: (AUG-CC-PVTZ AUX)
    Blend: AUG-CC-PVTZ-JKFIT

    Orbital Energies [Eh]
    ---------------------

    Doubly Occupied:

       1A    -20.521502     2A    -15.597471     3A    -11.352859
       4A    -11.275343     5A    -11.214577     6A     -1.370680
       7A     -1.232207     8A     -1.025956     9A     -0.888057
      10A     -0.775939    11A     -0.734014    12A     -0.647411
      13A     -0.636971    14A     -0.600117    15A     -0.549433
      16A     -0.532570    17A     -0.518954    18A     -0.509238
      19A     -0.422464    20A     -0.391803

  @DF-RHF Final Energy:  -247.08347005427879

   => Energetics <=

    Nuclear Repulsion Energy =            179.2628254120554914
    One-Electron Energy =                -691.0974592402220651
    Two-Electron Energy =                 264.7511637738878107
    Total Energy =                       -247.0834700542787914
  Basis Set: (AUG-CC-PVTZ AUX)
    Blend: AUG-CC-PVTZ-RI
    Molecular point group: c1

    Geometry (in Angstrom), charge = 0, multiplicity = 1:

       Center              X                  Y                   Z               Mass
    ------------   -----------------  -----------------  -----------------  -----------------
         O           -1.334932413963    -0.986907951875     0.003313931937    15.994914619570
         N           -0.161295413963     1.021505048125     0.003514931937    14.003074004430
         C            1.251063586037     0.635134048125     0.003438931937    12.000000000000
         C            1.514949586037    -0.864314951875     0.003461931937    12.000000000000
         C           -1.277190413963     0.239195048125     0.003555931937    12.000000000000
         H            1.723405586037     1.085858048125    -0.877896068063     1.007825032230
         H            1.723502586037     1.085901048125     0.884699931937     1.007825032230
         H            1.092766586037    -1.346298951875     0.883939931937     1.007825032230
         H            1.092666586037    -1.346343951875    -0.876945068063     1.007825032230
         H            2.599080586037    -1.013077951875     0.003402931937     1.007825032230
         H           -0.340740913963     2.018314448125    -0.246491068063     1.007825032230
         H           -2.190397413963     0.866207048125     0.003349931937     1.007825032230

  Basis Set: AUG-CC-PVTZ
    Blend: AUG-CC-PVTZ
  Basis Set: (AUG-CC-PVTZ AUX)
    Blend: AUG-CC-PVTZ-JKFIT
	 Reference Energy          =    -247.0834700542787914 [Eh]
	 Singles Energy            =      -0.0000000000000000 [Eh]
	 Same-Spin Energy          =      -0.2464675870988410 [Eh]
	 Opposite-Spin Energy      =      -0.8129928365570191 [Eh]
	 Correlation Energy        =      -1.0594604236558602 [Eh]
	 Total Energy              =    -248.1429304779346410 [Eh]

	 ================> DF-SCS-MP2 Energies <==================
	-----------------------------------------------------------
	 SCS Same-Spin Scale       =       0.3333333333333333 [-]
	 SCS Opposite-Spin Scale   =       1.2000000000000000 [-]
	 SCS Same-Spin Energy      =      -0.0821558623662803 [Eh]
	 SCS Opposite-Spin Energy  =      -0.9755914038684229 [Eh]
	 SCS Correlation Energy    =      -1.0577472662347032 [Eh]
	 SCS Total Energy          =    -248.1412173205135048 [Eh]
	-----------------------------------------------------------

  Dipole Moment: [D]
     X:     1.7614      Y:     3.4002      Z:    -0.3439     Total:     3.8448

*** Psi4 exiting successfully. Buy a developer a beer!
