                               Psi4 1.3.2 release

  ==> Input File <==

--------------------------------------------------------------------------
#psi4
#
memory 32 gb

molecule  {
0 1
  O       -1.4055500    -1.0035560    -0.0001340
  N       -0.2319130     1.0048570     0.0000670
  C        1.1804460     0.6184860    -0.0000090
  C        1.4443320    -0.8809630     0.0000140
  C       -1.3478080     0.2225470     0.0001080
  H        1.6527880     1.0692100    -0.8813440
  H        1.6528850     1.0692530     0.8812520
  H        1.0221490    -1.3629470     0.8804920
  H        1.0220490    -1.3629920    -0.8803930
  H        2.5284630    -1.0297260    -0.0000450
  H       -0.4113539     2.0016667    -0.1499390
  H       -2.2610150     0.8495590    -0.0000980
units angstrom
no_reorient  #important for SAPT in psi4, default
symmetry c1  #important for SAPT in psi4, default
}

set PROPERTIES_ORIGIN ["COM"]
properties('MP2/aug-cc-pvtz', properties = ['dipole'])
--------------------------------------------------------------------------

    Molecular point group: c1
  Charge       = 0
  Multiplicity = 1
  Basis Set: AUG-CC-PVTZ
    Blend: AUG-CC-PVTZ
  Basis Set: (AUG-CC-PVTZ AUX)
    Blend: AUG-CC-PVTZ-JKFIT

    Orbital Energies [Eh]
    ---------------------

    Doubly Occupied:

       1A    -20.520753     2A    -15.596144     3A    -11.352738
       4A    -11.275599     5A    -11.214732     6A     -1.370314
       7A     -1.234190     8A     -1.026464     9A     -0.888349
      10A     -0.777874    11A     -0.737690    12A     -0.647426
      13A     -0.636903    14A     -0.600649    15A     -0.548397
      16A     -0.533428    17A     -0.520362    18A     -0.509424
      19A     -0.422057    20A     -0.391480

  @DF-RHF Final Energy:  -247.08549682526905

   => Energetics <=

    Nuclear Repulsion Energy =            179.3508944757102483
    One-Electron Energy =                -691.2628347479632112
    Two-Electron Energy =                 264.8264434469839443
    Total Energy =                       -247.0854968252690469
  Basis Set: (AUG-CC-PVTZ AUX)
    Blend: AUG-CC-PVTZ-RI
    Molecular point group: c1

    Geometry (in Angstrom), charge = 0, multiplicity = 1:

       Center              X                  Y                   Z               Mass
    ------------   -----------------  -----------------  -----------------  -----------------
         O           -1.334932477423    -0.986907956014     0.001934346854    15.994914619570
         N           -0.161295477423     1.021505043986     0.002135346854    14.003074004430
         C            1.251063522577     0.635134043986     0.002059346854    12.000000000000
         C            1.514949522577    -0.864314956014     0.002082346854    12.000000000000
         C           -1.277190477423     0.239195043986     0.002176346854    12.000000000000
         H            1.723405522577     1.085858043986    -0.879275653146     1.007825032230
         H            1.723502522577     1.085901043986     0.883320346854     1.007825032230
         H            1.092766522577    -1.346298956014     0.882560346854     1.007825032230
         H            1.092666522577    -1.346343956014    -0.878324653146     1.007825032230
         H            2.599080522577    -1.013077956014     0.002023346854     1.007825032230
         H           -0.340736377423     2.018314743986    -0.147870653146     1.007825032230
         H           -2.190397477423     0.866207043986     0.001970346854     1.007825032230

  Basis Set: AUG-CC-PVTZ
    Blend: AUG-CC-PVTZ
  Basis Set: (AUG-CC-PVTZ AUX)
    Blend: AUG-CC-PVTZ-JKFIT
	 Reference Energy          =    -247.0854968252690469 [Eh]
	 Singles Energy            =      -0.0000000000000000 [Eh]
	 Same-Spin Energy          =      -0.2463422174793242 [Eh]
	 Opposite-Spin Energy      =      -0.8126100417398371 [Eh]
	 Correlation Energy        =      -1.0589522592191614 [Eh]
	 Total Energy              =    -248.1444490844882012 [Eh]

	 ================> DF-SCS-MP2 Energies <==================
	-----------------------------------------------------------
	 SCS Same-Spin Scale       =       0.3333333333333333 [-]
	 SCS Opposite-Spin Scale   =       1.2000000000000000 [-]
	 SCS Same-Spin Energy      =      -0.0821140724931081 [Eh]
	 SCS Opposite-Spin Energy  =      -0.9751320500878045 [Eh]
	 SCS Correlation Energy    =      -1.0572461225809124 [Eh]
	 SCS Total Energy          =    -248.1427429478499675 [Eh]
	-----------------------------------------------------------

  Dipole Moment: [D]
     X:     1.7725      Y:     3.4291      Z:    -0.2086     Total:     3.8657

*** Psi4 exiting successfully. Buy a developer a beer!
