                               Psi4 1.4a3.dev225

  ==> Input File <==

--------------------------------------------------------------------------
#psi4
#
memory 32 gb

molecule  {
0 1
 Br        2.8415020    -0.6219390     0.0000430
 Br       -2.8415020    -0.6219380    -0.0000580
  C        0.0000000    -0.3851670    -0.0000040
  C        1.1774690     0.3247068     0.0000256
  C       -1.1945960     0.3350330    -0.0000150
  C        1.2148590     1.7299900     0.0000420
  C       -1.2148570     1.7299910    -0.0000010
  C        0.0000010     2.4176760     0.0000290
  H        0.0000000    -1.4703640    -0.0000170
  H        2.1606700     2.2629480     0.0000660
  H       -2.1606680     2.2629490    -0.0000110
  H        0.0000020     3.5048130     0.0000400
units angstrom
no_reorient  #important for SAPT in psi4, default
symmetry c1  #important for SAPT in psi4, default
}

set PROPERTIES_ORIGIN ["COM"]
properties('MP2/aug-cc-pvtz', properties = ['dipole'])
--------------------------------------------------------------------------

    Molecular point group: c1
  Charge       = 0
  Multiplicity = 1
  Basis Set: AUG-CC-PVTZ
    Blend: AUG-CC-PVTZ
  Basis Set: (AUG-CC-PVTZ AUX)
    Blend: AUG-CC-PVTZ-JKFIT

    Orbital Energies [Eh]
    ---------------------

    Doubly Occupied:

       1A   -490.034619     2A   -490.033397     3A    -65.174336
       4A    -65.173080     5A    -58.529663     6A    -58.528411
       7A    -58.528248     8A    -58.528219     9A    -58.526992
      10A    -58.526965    11A    -11.318081    12A    -11.317462
      13A    -11.269862    14A    -11.268795    15A    -11.267688
      16A    -11.266550    17A     -9.847061    18A     -9.845744
      19A     -7.458715    20A     -7.457372    21A     -7.451809
      22A     -7.451765    23A     -7.450488    24A     -7.450454
      25A     -3.202514    26A     -3.201157    27A     -3.198930
      28A     -3.198714    29A     -3.197596    30A     -3.197397
      31A     -3.189900    32A     -3.189892    33A     -3.188590
      34A     -3.188583    35A     -1.197543    36A     -1.097490
      37A     -1.069410    38A     -1.001514    39A     -0.978962
      40A     -0.850903    41A     -0.819066    42A     -0.718410
      43A     -0.669274    44A     -0.639813    45A     -0.594587
      46A     -0.589689    47A     -0.557735    48A     -0.517643
      49A     -0.498268    50A     -0.469201    51A     -0.431477
      52A     -0.428047    53A     -0.422494    54A     -0.359412
      55A     -0.341521

  @DF-RHF Final Energy: -5374.53212795056970

   => Energetics <=

    Nuclear Repulsion Energy =            764.3941949984817938
    One-Electron Energy =               -8998.0296259591614216
    Two-Electron Energy =                2859.1033030101098120
    Total Energy =                      -5374.5321279505697021
  Basis Set: (AUG-CC-PVTZ AUX)
    Blend: AUG-CC-PVTZ-RI
    Molecular point group: c1

    Geometry (in Angstrom), charge = 0, multiplicity = 1:

       Center              X                  Y                   Z               Mass
    ------------   -----------------  -----------------  -----------------  -----------------
         BR           2.842380632350    -0.546142959627     0.000043795170    78.918337600000
         BR          -2.840623367650    -0.546141959627    -0.000057204830    78.918337600000
         C            0.000878632350    -0.309370959627    -0.000003204830    12.000000000000
         C            1.178347632350     0.400502840373     0.000026395170    12.000000000000
         C           -1.193717367650     0.410829040373    -0.000014204830    12.000000000000
         C            1.215737632350     1.805786040373     0.000042795170    12.000000000000
         C           -1.213978367650     1.805787040373    -0.000000204830    12.000000000000
         C            0.000879632350     2.493472040373     0.000029795170    12.000000000000
         H            0.000878632350    -1.394567959627    -0.000016204830     1.007825032230
         H            2.161548632350     2.338744040373     0.000066795170     1.007825032230
         H           -2.159789367650     2.338745040373    -0.000010204830     1.007825032230
         H            0.000880632350     3.580609040373     0.000040795170     1.007825032230

  Basis Set: AUG-CC-PVTZ
    Blend: AUG-CC-PVTZ
  Basis Set: (AUG-CC-PVTZ AUX)
    Blend: AUG-CC-PVTZ-JKFIT
	 Reference Energy          =   -5374.5321279505697021 [Eh]
	 Singles Energy            =      -0.0000000000000000 [Eh]
	 Same-Spin Energy          =      -0.4435666177185607 [Eh]
	 Opposite-Spin Energy      =      -1.2071093870765184 [Eh]
	 Correlation Energy        =      -1.6506760047950790 [Eh]
	 Total Energy              =   -5376.1828039553647614 [Eh]

	 ================> DF-SCS-MP2 Energies <==================
	-----------------------------------------------------------
	 SCS Same-Spin Scale       =       0.3333333333333333 [-]
	 SCS Opposite-Spin Scale   =       1.2000000000000000 [-]
	 SCS Same-Spin Energy      =      -0.1478555392395202 [Eh]
	 SCS Opposite-Spin Energy  =      -1.4485312644918220 [Eh]
	 SCS Correlation Energy    =      -1.5963868037313422 [Eh]
	 SCS Total Energy          =   -5376.1285147543012499 [Eh]
	-----------------------------------------------------------

  Dipole Moment: [D]
     X:    -0.0477      Y:     1.6372      Z:     0.0000     Total:     1.6379

*** Psi4 exiting successfully. Buy a developer a beer!
