                               Psi4 1.3.2 release

  ==> Input File <==

--------------------------------------------------------------------------
#psi4
#
memory 32 gb

molecule  {
0 1
 Br       -2.8410010     0.6223350     0.0000430
 Br        2.8410110     0.6223260    -0.0000690
  C        0.0000010     0.3842340     0.0000060
  C       -1.1947360    -0.3356120     0.0000280
  C        1.1947310    -0.3356150     0.0000060
  C       -1.2149130    -1.7308340     0.0000450
  C        1.2148860    -1.7308340     0.0000120
  C       -0.0000170    -2.4179180     0.0000370
  H        0.0000075     1.2694240    -0.0000054
  H       -2.1604800    -2.2639390     0.0000780
  H        2.1604490    -2.2639450     0.0000000
  H       -0.0000260    -3.5052070     0.0000330
units angstrom
no_reorient  #important for SAPT in psi4, default
symmetry c1  #important for SAPT in psi4, default
}

set PROPERTIES_ORIGIN ["COM"]
properties('MP2/aug-cc-pvtz', properties = ['dipole'])
--------------------------------------------------------------------------

    Molecular point group: c1
  Charge       = 0
  Multiplicity = 1
  Basis Set: AUG-CC-PVTZ
    Blend: AUG-CC-PVTZ
  Basis Set: (AUG-CC-PVTZ AUX)
    Blend: AUG-CC-PVTZ-JKFIT

    Orbital Energies [Eh]
    ---------------------

    Doubly Occupied:

       1A   -490.034772     2A   -490.034772     3A    -65.174488
       4A    -65.174488     5A    -58.529814     6A    -58.529814
       7A    -58.528402     8A    -58.528401     9A    -58.528376
      10A    -58.528375    11A    -11.317258    12A    -11.317251
      13A    -11.268369    14A    -11.266073    15A    -11.265743
      16A    -11.249602    17A     -9.847212    18A     -9.847212
      19A     -7.458857    20A     -7.458856    21A     -7.451963
      22A     -7.451962    23A     -7.451930    24A     -7.451930
      25A     -3.202649    26A     -3.202648    27A     -3.199065
      28A     -3.199065    29A     -3.198868    30A     -3.198867
      31A     -3.190070    32A     -3.190070    33A     -3.190062
      34A     -3.190062    35A     -1.198259    36A     -1.098737
      37A     -1.074042    38A     -1.007189    39A     -0.980141
      40A     -0.867960    41A     -0.816389    42A     -0.740352
      43A     -0.668473    44A     -0.657153    45A     -0.598820
      46A     -0.589930    47A     -0.556547    48A     -0.525546
      49A     -0.498702    50A     -0.470276    51A     -0.431962
      52A     -0.428919    53A     -0.422669    54A     -0.357214
      55A     -0.342028

  @DF-RHF Final Energy: -5374.49759970811374

   => Energetics <=

    Nuclear Repulsion Energy =            765.6886303283554298
    One-Electron Energy =               -9000.3951499987088027
    Two-Electron Energy =                2860.2089199622387241
    Total Energy =                      -5374.4975997081146488
  Basis Set: (AUG-CC-PVTZ AUX)
    Blend: AUG-CC-PVTZ-RI
    Molecular point group: c1

    Geometry (in Angstrom), charge = 0, multiplicity = 1:

       Center              X                  Y                   Z               Mass
    ------------   -----------------  -----------------  -----------------  -----------------
         BR          -2.841001698240     0.547886858655     0.000044442910    78.918337600000
         BR           2.841010301760     0.547877858655    -0.000067557090    78.918337600000
         C            0.000000301760     0.309785858655     0.000007442910    12.000000000000
         C           -1.194736698240    -0.410060141345     0.000029442910    12.000000000000
         C            1.194730301760    -0.410063141345     0.000007442910    12.000000000000
         C           -1.214913698240    -1.805282141345     0.000046442910    12.000000000000
         C            1.214885301760    -1.805282141345     0.000013442910    12.000000000000
         C           -0.000017698240    -2.492366141345     0.000038442910    12.000000000000
         H            0.000006801760     1.194975858655    -0.000003957090     1.007825032230
         H           -2.160480698240    -2.338387141345     0.000079442910     1.007825032230
         H            2.160448301760    -2.338393141345     0.000001442910     1.007825032230
         H           -0.000026698240    -3.579655141345     0.000034442910     1.007825032230

  Basis Set: AUG-CC-PVTZ
    Blend: AUG-CC-PVTZ
  Basis Set: (AUG-CC-PVTZ AUX)
    Blend: AUG-CC-PVTZ-JKFIT
	 Reference Energy          =   -5374.4975997081137393 [Eh]
	 Singles Energy            =      -0.0000000000000000 [Eh]
	 Same-Spin Energy          =      -0.4432558800135883 [Eh]
	 Opposite-Spin Energy      =      -1.2067684145348867 [Eh]
	 Correlation Energy        =      -1.6500242945484751 [Eh]
	 Total Energy              =   -5376.1476240026622690 [Eh]

	 ================> DF-SCS-MP2 Energies <==================
	-----------------------------------------------------------
	 SCS Same-Spin Scale       =       0.3333333333333333 [-]
	 SCS Opposite-Spin Scale   =       1.2000000000000000 [-]
	 SCS Same-Spin Energy      =      -0.1477519600045294 [Eh]
	 SCS Opposite-Spin Energy  =      -1.4481220974418640 [Eh]
	 SCS Correlation Energy    =      -1.5958740574463934 [Eh]
	 SCS Total Energy          =   -5376.0934737655597928 [Eh]
	-----------------------------------------------------------

  Dipole Moment: [D]
     X:    -0.0000      Y:    -1.6693      Z:     0.0000     Total:     1.6693

*** Psi4 exiting successfully. Buy a developer a beer!
