                               Psi4 1.3.2 release

  ==> Input File <==

--------------------------------------------------------------------------
#psi4
#
memory 32 gb

molecule  {
0 1
 Br       -2.9038138     0.5051638     0.0000448
 Br        2.8410110     0.6223260    -0.0000690
  C        0.0000010     0.3842340     0.0000060
  C       -1.1947360    -0.3356120     0.0000280
  C        1.1947310    -0.3356150     0.0000060
  C       -1.2149130    -1.7308340     0.0000450
  C        1.2148860    -1.7308340     0.0000120
  C       -0.0000170    -2.4179180     0.0000370
  H        0.0000090     1.4694240    -0.0000080
  H       -2.1604800    -2.2639390     0.0000780
  H        2.1604490    -2.2639450     0.0000000
  H       -0.0000260    -3.5052070     0.0000330
units angstrom
no_reorient  #important for SAPT in psi4, default
symmetry c1  #important for SAPT in psi4, default
}

set PROPERTIES_ORIGIN ["COM"]
properties('MP2/aug-cc-pvtz', properties = ['dipole'])
--------------------------------------------------------------------------

    Molecular point group: c1
  Charge       = 0
  Multiplicity = 1
  Basis Set: AUG-CC-PVTZ
    Blend: AUG-CC-PVTZ
  Basis Set: (AUG-CC-PVTZ AUX)
    Blend: AUG-CC-PVTZ-JKFIT

    Orbital Energies [Eh]
    ---------------------

    Doubly Occupied:

       1A   -490.034724     2A   -490.034316     3A    -65.174436
       4A    -65.174040     5A    -58.529766     6A    -58.529368
       7A    -58.528346     8A    -58.528319     9A    -58.527949
      10A    -58.527920    11A    -11.318200    12A    -11.317612
      13A    -11.272938    14A    -11.267616    15A    -11.266297
      16A    -11.265017    17A     -9.847158    18A     -9.846773
      19A     -7.458819    20A     -7.458434    21A     -7.451897
      22A     -7.451860    23A     -7.451514    24A     -7.451471
      25A     -3.202623    26A     -3.202237    27A     -3.199028
      28A     -3.198820    29A     -3.198647    30A     -3.198431
      31A     -3.189985    32A     -3.189977    33A     -3.189596
      34A     -3.189588    35A     -1.196191    36A     -1.099624
      37A     -1.067427    38A     -1.001931    39A     -0.978750
      40A     -0.851310    41A     -0.817266    42A     -0.717851
      43A     -0.668552    44A     -0.639385    45A     -0.593618
      46A     -0.589716    47A     -0.556794    48A     -0.518049
      49A     -0.499545    50A     -0.470517    51A     -0.431227
      52A     -0.428194    53A     -0.422767    54A     -0.357695
      55A     -0.341629

  @DF-RHF Final Energy: -5374.53144388581313

   => Energetics <=

    Nuclear Repulsion Energy =            763.3097392433749064
    One-Electron Energy =               -8995.8388457143246342
    Two-Electron Energy =                2857.9976625851363679
    Total Energy =                      -5374.5314438858131325
  Basis Set: (AUG-CC-PVTZ AUX)
    Blend: AUG-CC-PVTZ-RI
    Molecular point group: c1

    Geometry (in Angstrom), charge = 0, multiplicity = 1:

       Center              X                  Y                   Z               Mass
    ------------   -----------------  -----------------  -----------------  -----------------
         BR          -2.882618435644     0.469392999148     0.000045646708    78.918337600000
         BR           2.862206364356     0.586555199148    -0.000068153292    78.918337600000
         C            0.021196364356     0.348463199148     0.000006846708    12.000000000000
         C           -1.173540635644    -0.371382800852     0.000028846708    12.000000000000
         C            1.215926364356    -0.371385800852     0.000006846708    12.000000000000
         C           -1.193717635644    -1.766604800852     0.000045846708    12.000000000000
         C            1.236081364356    -1.766604800852     0.000012846708    12.000000000000
         C            0.021178364356    -2.453688800852     0.000037846708    12.000000000000
         H            0.021204364356     1.433653199148    -0.000007153292     1.007825032230
         H           -2.139284635644    -2.299709800852     0.000078846708     1.007825032230
         H            2.181644364356    -2.299715800852     0.000000846708     1.007825032230
         H            0.021169364356    -3.540977800852     0.000033846708     1.007825032230

  Basis Set: AUG-CC-PVTZ
    Blend: AUG-CC-PVTZ
  Basis Set: (AUG-CC-PVTZ AUX)
    Blend: AUG-CC-PVTZ-JKFIT
	 Reference Energy          =   -5374.5314438858131325 [Eh]
	 Singles Energy            =      -0.0000000000000000 [Eh]
	 Same-Spin Energy          =      -0.4437137193808608 [Eh]
	 Opposite-Spin Energy      =      -1.2073554653990779 [Eh]
	 Correlation Energy        =      -1.6510691847799386 [Eh]
	 Total Energy              =   -5376.1825130705929041 [Eh]

	 ================> DF-SCS-MP2 Energies <==================
	-----------------------------------------------------------
	 SCS Same-Spin Scale       =       0.3333333333333333 [-]
	 SCS Opposite-Spin Scale   =       1.2000000000000000 [-]
	 SCS Same-Spin Energy      =      -0.1479045731269536 [Eh]
	 SCS Opposite-Spin Energy  =      -1.4488265584788935 [Eh]
	 SCS Correlation Energy    =      -1.5967311316058472 [Eh]
	 SCS Total Energy          =   -5376.1281750174193803 [Eh]
	-----------------------------------------------------------

  Dipole Moment: [D]
     X:     0.0271      Y:    -1.5856      Z:     0.0000     Total:     1.5858

*** Psi4 exiting successfully. Buy a developer a beer!
