                               Psi4 1.4a3.dev225

  ==> Input File <==

--------------------------------------------------------------------------
#psi4
#
memory 32 gb

molecule  {
0 1
 Br        2.8415020    -0.6219390     0.0000430
 Br       -2.8415020    -0.6219380    -0.0000580
  C        0.0000000    -0.3851670    -0.0000040
  C        1.2374171     0.3608484     0.0000271
  C       -1.1945960     0.3350330    -0.0000150
  C        1.2148590     1.7299900     0.0000420
  C       -1.2148570     1.7299910    -0.0000010
  C        0.0000010     2.4176760     0.0000290
  H        0.0000000    -1.4703640    -0.0000170
  H        2.1606700     2.2629480     0.0000660
  H       -2.1606680     2.2629490    -0.0000110
  H        0.0000020     3.5048130     0.0000400
units angstrom
no_reorient  #important for SAPT in psi4, default
symmetry c1  #important for SAPT in psi4, default
}

set PROPERTIES_ORIGIN ["COM"]
properties('MP2/aug-cc-pvtz', properties = ['dipole'])
--------------------------------------------------------------------------

    Molecular point group: c1
  Charge       = 0
  Multiplicity = 1
  Basis Set: AUG-CC-PVTZ
    Blend: AUG-CC-PVTZ
  Basis Set: (AUG-CC-PVTZ AUX)
    Blend: AUG-CC-PVTZ-JKFIT

    Orbital Energies [Eh]
    ---------------------

    Doubly Occupied:

       1A   -490.036654     2A   -490.033723     3A    -65.176463
       4A    -65.173443     5A    -58.531779     6A    -58.530374
       7A    -58.530343     8A    -58.528771     9A    -58.527354
      10A    -58.527329    11A    -11.317881    12A    -11.316700
      13A    -11.275723    14A    -11.267879    15A    -11.266099
      16A    -11.262864    17A     -9.849352    18A     -9.846172
      19A     -7.461072    20A     -7.457828    21A     -7.454104
      22A     -7.454048    23A     -7.450912    24A     -7.450885
      25A     -3.204905    26A     -3.201626    27A     -3.201250
      28A     -3.201012    29A     -3.198030    30A     -3.197835
      31A     -3.192173    32A     -3.192165    33A     -3.189011
      34A     -3.189003    35A     -1.193362    36A     -1.102213
      37A     -1.067518    38A     -0.995414    39A     -0.983166
      40A     -0.854759    41A     -0.810763    42A     -0.716499
      43A     -0.666620    44A     -0.639934    45A     -0.591614
      46A     -0.587366    47A     -0.554725    48A     -0.524651
      49A     -0.497922    50A     -0.472485    51A     -0.432291
      52A     -0.429679    53A     -0.422051    54A     -0.351891
      55A     -0.343413

  @DF-RHF Final Energy: -5374.52945069511861

   => Energetics <=

    Nuclear Repulsion Energy =            764.3982826370648809
    One-Electron Energy =               -8997.9892712896416924
    Two-Electron Energy =                2859.0615379574583130
    Total Energy =                      -5374.5294506951186122
  Basis Set: (AUG-CC-PVTZ AUX)
    Blend: AUG-CC-PVTZ-RI
    Molecular point group: c1

    Geometry (in Angstrom), charge = 0, multiplicity = 1:

       Center              X                  Y                   Z               Mass
    ------------   -----------------  -----------------  -----------------  -----------------
         BR           2.839304635309    -0.547997421314     0.000043718203    78.918337600000
         BR          -2.843699364691    -0.547996421314    -0.000057281797    78.918337600000
         C           -0.002197364691    -0.311225421314    -0.000003281797    12.000000000000
         C            1.235219735309     0.434789978686     0.000027818203    12.000000000000
         C           -1.196793364691     0.408974578686    -0.000014281797    12.000000000000
         C            1.212661635309     1.803931578686     0.000042718203    12.000000000000
         C           -1.217054364691     1.803932578686    -0.000000281797    12.000000000000
         C           -0.002196364691     2.491617578686     0.000029718203    12.000000000000
         H           -0.002197364691    -1.396422421314    -0.000016281797     1.007825032230
         H            2.158472635309     2.336889578686     0.000066718203     1.007825032230
         H           -2.162865364691     2.336890578686    -0.000010281797     1.007825032230
         H           -0.002195364691     3.578754578686     0.000040718203     1.007825032230

  Basis Set: AUG-CC-PVTZ
    Blend: AUG-CC-PVTZ
  Basis Set: (AUG-CC-PVTZ AUX)
    Blend: AUG-CC-PVTZ-JKFIT
	 Reference Energy          =   -5374.5294506951186122 [Eh]
	 Singles Energy            =      -0.0000000000000000 [Eh]
	 Same-Spin Energy          =      -0.4438284082779697 [Eh]
	 Opposite-Spin Energy      =      -1.2077086755684472 [Eh]
	 Correlation Energy        =      -1.6515370838464167 [Eh]
	 Total Energy              =   -5376.1809877789646634 [Eh]

	 ================> DF-SCS-MP2 Energies <==================
	-----------------------------------------------------------
	 SCS Same-Spin Scale       =       0.3333333333333333 [-]
	 SCS Opposite-Spin Scale   =       1.2000000000000000 [-]
	 SCS Same-Spin Energy      =      -0.1479428027593232 [Eh]
	 SCS Opposite-Spin Energy  =      -1.4492504106821367 [Eh]
	 SCS Correlation Energy    =      -1.5971932134414599 [Eh]
	 SCS Total Energy          =   -5376.1266439085602542 [Eh]
	-----------------------------------------------------------

  Dipole Moment: [D]
     X:     0.1146      Y:     1.5653      Z:     0.0000     Total:     1.5695

*** Psi4 exiting successfully. Buy a developer a beer!
