                               Psi4 1.3.2 release

  ==> Input File <==

--------------------------------------------------------------------------
#psi4
#
memory 32 gb

molecule  {
0 1
 Br       -2.8734300     0.5642976     0.0000439
 Br        2.8410110     0.6223260    -0.0000690
  C        0.0000010     0.3842340     0.0000060
  C       -1.1947360    -0.3356120     0.0000280
  C        1.1947310    -0.3356150     0.0000060
  C       -1.2149130    -1.7308340     0.0000450
  C        1.2148860    -1.7308340     0.0000120
  C       -0.0000170    -2.4179180     0.0000370
  H        0.0000090     1.4694240    -0.0000080
  H       -2.1604800    -2.2639390     0.0000780
  H        2.1604490    -2.2639450     0.0000000
  H       -0.0000260    -3.5052070     0.0000330
units angstrom
no_reorient  #important for SAPT in psi4, default
symmetry c1  #important for SAPT in psi4, default
}

set PROPERTIES_ORIGIN ["COM"]
properties('MP2/aug-cc-pvtz', properties = ['dipole'])
--------------------------------------------------------------------------

    Molecular point group: c1
  Charge       = 0
  Multiplicity = 1
  Basis Set: AUG-CC-PVTZ
    Blend: AUG-CC-PVTZ
  Basis Set: (AUG-CC-PVTZ AUX)
    Blend: AUG-CC-PVTZ-JKFIT

    Orbital Energies [Eh]
    ---------------------

    Doubly Occupied:

       1A   -490.034550     2A   -490.034353     3A    -65.174265
       4A    -65.174072     5A    -58.529594     6A    -58.529400
       7A    -58.528176     8A    -58.528149     9A    -58.527983
      10A    -58.527955    11A    -11.317952    12A    -11.317655
      13A    -11.272277    14A    -11.267939    15A    -11.266441
      16A    -11.265680    17A     -9.846989    18A     -9.846799
      19A     -7.458647    20A     -7.458456    21A     -7.451732
      22A     -7.451693    23A     -7.451544    24A     -7.451504
      25A     -3.202449    26A     -3.202256    27A     -3.198857
      28A     -3.198668    29A     -3.198648    30A     -3.198456
      31A     -3.189822    32A     -3.189814    33A     -3.189635
      34A     -3.189627    35A     -1.196169    36A     -1.099144
      37A     -1.068079    38A     -1.000900    39A     -0.979485
      40A     -0.851583    41A     -0.817064    42A     -0.717850
      43A     -0.668536    44A     -0.639532    45A     -0.593198
      46A     -0.589921    47A     -0.556763    48A     -0.518624
      49A     -0.499239    50A     -0.470286    51A     -0.431497
      52A     -0.428385    53A     -0.422696    54A     -0.357282
      55A     -0.341962

  @DF-RHF Final Energy: -5374.53219071955118

   => Energetics <=

    Nuclear Repulsion Energy =            763.8009310204024587
    One-Electron Energy =               -8996.8257773189070576
    Two-Electron Energy =                2858.4926555789525082
    Total Energy =                      -5374.5321907195511812
  Basis Set: (AUG-CC-PVTZ AUX)
    Blend: AUG-CC-PVTZ-RI
    Molecular point group: c1

    Geometry (in Angstrom), charge = 0, multiplicity = 1:

       Center              X                  Y                   Z               Mass
    ------------   -----------------  -----------------  -----------------  -----------------
         BR          -2.862487595600     0.508572202178     0.000045050411    78.918337600000
         BR           2.851953404400     0.566600602178    -0.000067849589    78.918337600000
         C            0.010943404400     0.328508602178     0.000007150411    12.000000000000
         C           -1.183793595600    -0.391337397822     0.000029150411    12.000000000000
         C            1.205673404400    -0.391340397822     0.000007150411    12.000000000000
         C           -1.203970595600    -1.786559397822     0.000046150411    12.000000000000
         C            1.225828404400    -1.786559397822     0.000013150411    12.000000000000
         C            0.010925404400    -2.473643397822     0.000038150411    12.000000000000
         H            0.010951404400     1.413698602178    -0.000006849589     1.007825032230
         H           -2.149537595600    -2.319664397822     0.000079150411     1.007825032230
         H            2.171391404400    -2.319670397822     0.000001150411     1.007825032230
         H            0.010916404400    -3.560932397822     0.000034150411     1.007825032230

  Basis Set: AUG-CC-PVTZ
    Blend: AUG-CC-PVTZ
  Basis Set: (AUG-CC-PVTZ AUX)
    Blend: AUG-CC-PVTZ-JKFIT
	 Reference Energy          =   -5374.5321907195511812 [Eh]
	 Singles Energy            =      -0.0000000000000000 [Eh]
	 Same-Spin Energy          =      -0.4436755010043232 [Eh]
	 Opposite-Spin Energy      =      -1.2072667678592701 [Eh]
	 Correlation Energy        =      -1.6509422688635933 [Eh]
	 Total Energy              =   -5376.1831329884143997 [Eh]

	 ================> DF-SCS-MP2 Energies <==================
	-----------------------------------------------------------
	 SCS Same-Spin Scale       =       0.3333333333333333 [-]
	 SCS Opposite-Spin Scale   =       1.2000000000000000 [-]
	 SCS Same-Spin Energy      =      -0.1478918336681077 [Eh]
	 SCS Opposite-Spin Energy  =      -1.4487201214311241 [Eh]
	 SCS Correlation Energy    =      -1.5966119550992317 [Eh]
	 SCS Total Energy          =   -5376.1288026746506148 [Eh]
	-----------------------------------------------------------

  Dipole Moment: [D]
     X:     0.0133      Y:    -1.6010      Z:     0.0000     Total:     1.6010

*** Psi4 exiting successfully. Buy a developer a beer!
