                               Psi4 1.3.2 release

  ==> Input File <==

--------------------------------------------------------------------------
#psi4
#
memory 32 gb

molecule  {
0 1
 Br       -2.8410010     0.6223350     0.0000430
 Br        2.8410110     0.6223260    -0.0000690
  C        0.0000010     0.3842340     0.0000060
  C       -1.3676002    -0.2350239     0.0000296
  C        1.1947310    -0.3356150     0.0000060
  C       -1.2149130    -1.7308340     0.0000450
  C        1.2148860    -1.7308340     0.0000120
  C       -0.0000170    -2.4179180     0.0000370
  H        0.0000090     1.4694240    -0.0000080
  H       -2.1604800    -2.2639390     0.0000780
  H        2.1604490    -2.2639450     0.0000000
  H       -0.0000260    -3.5052070     0.0000330
units angstrom
no_reorient  #important for SAPT in psi4, default
symmetry c1  #important for SAPT in psi4, default
}

set PROPERTIES_ORIGIN ["COM"]
properties('MP2/aug-cc-pvtz', properties = ['dipole'])
--------------------------------------------------------------------------

    Molecular point group: c1
  Charge       = 0
  Multiplicity = 1
  Basis Set: AUG-CC-PVTZ
    Blend: AUG-CC-PVTZ
  Basis Set: (AUG-CC-PVTZ AUX)
    Blend: AUG-CC-PVTZ-JKFIT

    Orbital Energies [Eh]
    ---------------------

    Doubly Occupied:

       1A   -490.050071     2A   -490.031136     3A    -65.191152
       4A    -65.170821     5A    -58.546228     6A    -58.545062
       7A    -58.544993     8A    -58.526161     9A    -58.524727
      10A    -58.524709    11A    -11.325532    12A    -11.312214
      13A    -11.275950    14A    -11.272133    15A    -11.263583
      16A    -11.262314    17A     -9.866097    18A     -9.843523
      19A     -7.478336    20A     -7.471052    21A     -7.470785
      22A     -7.455211    23A     -7.448230    24A     -7.448226
      25A     -3.222343    26A     -3.218164    27A     -3.217581
      28A     -3.209092    29A     -3.209080    30A     -3.199028
      31A     -3.195395    32A     -3.195229    33A     -3.186312
      34A     -3.186304    35A     -1.182377    36A     -1.128295
      37A     -1.065627    38A     -0.991540    39A     -0.971467
      40A     -0.837104    41A     -0.808495    42A     -0.704430
      43A     -0.657235    44A     -0.644645    45A     -0.598942
      46A     -0.569908    47A     -0.548016    48A     -0.535681
      49A     -0.501100    50A     -0.487195    51A     -0.431566
      52A     -0.430191    53A     -0.419503    54A     -0.346886
      55A     -0.320657

  @DF-RHF Final Energy: -5374.48640190405331

   => Energetics <=

    Nuclear Repulsion Energy =            766.7277822796711462
    One-Electron Energy =               -9002.2931133328402211
    Two-Electron Energy =                2861.0789291491155382
    Total Energy =                      -5374.4864019040533094
  Basis Set: (AUG-CC-PVTZ AUX)
    Blend: AUG-CC-PVTZ-RI
    Molecular point group: c1

    Geometry (in Angstrom), charge = 0, multiplicity = 1:

       Center              X                  Y                   Z               Mass
    ------------   -----------------  -----------------  -----------------  -----------------
         BR          -2.832131869503     0.541863707326     0.000044372017    78.918337600000
         BR           2.849880130497     0.541854707326    -0.000067627983    78.918337600000
         C            0.008870130497     0.303762707326     0.000007372017    12.000000000000
         C           -1.358731069503    -0.315495192674     0.000030972017    12.000000000000
         C            1.203600130497    -0.416086292674     0.000007372017    12.000000000000
         C           -1.206043869503    -1.811305292674     0.000046372017    12.000000000000
         C            1.223755130497    -1.811305292674     0.000013372017    12.000000000000
         C            0.008852130497    -2.498389292674     0.000038372017    12.000000000000
         H            0.008878130497     1.388952707326    -0.000006627983     1.007825032230
         H           -2.151610869503    -2.344410292674     0.000079372017     1.007825032230
         H            2.169318130497    -2.344416292674     0.000001372017     1.007825032230
         H            0.008843130497    -3.585678292674     0.000034372017     1.007825032230

  Basis Set: AUG-CC-PVTZ
    Blend: AUG-CC-PVTZ
  Basis Set: (AUG-CC-PVTZ AUX)
    Blend: AUG-CC-PVTZ-JKFIT
	 Reference Energy          =   -5374.4864019040533094 [Eh]
	 Singles Energy            =      -0.0000000000000000 [Eh]
	 Same-Spin Energy          =      -0.4476313177829264 [Eh]
	 Opposite-Spin Energy      =      -1.2136678830741454 [Eh]
	 Correlation Energy        =      -1.6612992008570719 [Eh]
	 Total Energy              =   -5376.1477011049100838 [Eh]

	 ================> DF-SCS-MP2 Energies <==================
	-----------------------------------------------------------
	 SCS Same-Spin Scale       =       0.3333333333333333 [-]
	 SCS Opposite-Spin Scale   =       1.2000000000000000 [-]
	 SCS Same-Spin Energy      =      -0.1492104392609755 [Eh]
	 SCS Opposite-Spin Energy  =      -1.4564014596889745 [Eh]
	 SCS Correlation Energy    =      -1.6056118989499499 [Eh]
	 SCS Total Energy          =   -5376.0920138030032831 [Eh]
	-----------------------------------------------------------

  Dipole Moment: [D]
     X:    -0.8668      Y:    -1.1439      Z:     0.0000     Total:     1.4352

*** Psi4 exiting successfully. Buy a developer a beer!
