                               Psi4 1.3.2 release

  ==> Input File <==

--------------------------------------------------------------------------
#psi4
#
memory 32 gb

molecule  {
0 1
 Br       -2.8410010     0.6223350     0.0000430
 Br        2.8410110     0.6223260    -0.0000690
  C        0.0000010     0.3842340     0.0000060
  C       -1.1688859    -0.3768692     0.0000283
  C        1.1947310    -0.3356150     0.0000060
  C       -1.2149130    -1.7308340     0.0000450
  C        1.2148860    -1.7308340     0.0000120
  C       -0.0000170    -2.4179180     0.0000370
  H        0.0000090     1.4694240    -0.0000080
  H       -2.1604800    -2.2639390     0.0000780
  H        2.1604490    -2.2639450     0.0000000
  H       -0.0000260    -3.5052070     0.0000330
units angstrom
no_reorient  #important for SAPT in psi4, default
symmetry c1  #important for SAPT in psi4, default
}

set PROPERTIES_ORIGIN ["COM"]
properties('MP2/aug-cc-pvtz', properties = ['dipole'])
--------------------------------------------------------------------------

    Molecular point group: c1
  Charge       = 0
  Multiplicity = 1
  Basis Set: AUG-CC-PVTZ
    Blend: AUG-CC-PVTZ
  Basis Set: (AUG-CC-PVTZ AUX)
    Blend: AUG-CC-PVTZ-JKFIT

    Orbital Energies [Eh]
    ---------------------

    Doubly Occupied:

       1A   -490.035190     2A   -490.029958     3A    -65.174917
       4A    -65.169541     5A    -58.530242     6A    -58.528830
       7A    -58.528800     8A    -58.524882     9A    -58.523457
      10A    -58.523434    11A    -11.319261    12A    -11.317283
      13A    -11.273440    14A    -11.269916    15A    -11.267343
      16A    -11.263658    17A     -9.847650    18A     -9.842018
      19A     -7.459299    20A     -7.453552    21A     -7.452403
      22A     -7.452356    23A     -7.446763    24A     -7.446750
      25A     -3.203094    26A     -3.199513    27A     -3.199297
      28A     -3.197285    29A     -3.193818    30A     -3.193656
      31A     -3.190497    32A     -3.190490    33A     -3.184910
      34A     -3.184903    35A     -1.201449    36A     -1.099022
      37A     -1.067534    38A     -0.998996    39A     -0.982514
      40A     -0.857458    41A     -0.815752    42A     -0.721338
      43A     -0.672517    44A     -0.641041    45A     -0.596881
      46A     -0.589914    47A     -0.560252    48A     -0.520758
      49A     -0.490294    50A     -0.468864    51A     -0.430510
      52A     -0.427808    53A     -0.420703    54A     -0.357374
      55A     -0.347954

  @DF-RHF Final Energy: -5374.53079412001716

   => Energetics <=

    Nuclear Repulsion Energy =            764.0014469558622068
    One-Electron Energy =               -8997.2897974516872637
    Two-Electron Energy =                2858.7575563758068711
    Total Energy =                      -5374.5307941200171626
  Basis Set: (AUG-CC-PVTZ AUX)
    Blend: AUG-CC-PVTZ-RI
    Molecular point group: c1

    Geometry (in Angstrom), charge = 0, multiplicity = 1:

       Center              X                  Y                   Z               Mass
    ------------   -----------------  -----------------  -----------------  -----------------
         BR          -2.842328099221     0.549141931707     0.000044438721    78.918337600000
         BR           2.839683900779     0.549132931707    -0.000067561279    78.918337600000
         C           -0.001326099221     0.311040931707     0.000007438721    12.000000000000
         C           -1.170212999221    -0.450062268293     0.000029738721    12.000000000000
         C            1.193403900779    -0.408808068293     0.000007438721    12.000000000000
         C           -1.216240099221    -1.804027068293     0.000046438721    12.000000000000
         C            1.213558900779    -1.804027068293     0.000013438721    12.000000000000
         C           -0.001344099221    -2.491111068293     0.000038438721    12.000000000000
         H           -0.001318099221     1.396230931707    -0.000006561279     1.007825032230
         H           -2.161807099221    -2.337132068293     0.000079438721     1.007825032230
         H            2.159121900779    -2.337138068293     0.000001438721     1.007825032230
         H           -0.001353099221    -3.578400068293     0.000034438721     1.007825032230

  Basis Set: AUG-CC-PVTZ
    Blend: AUG-CC-PVTZ
  Basis Set: (AUG-CC-PVTZ AUX)
    Blend: AUG-CC-PVTZ-JKFIT
	 Reference Energy          =   -5374.5307941200171626 [Eh]
	 Singles Energy            =      -0.0000000000000000 [Eh]
	 Same-Spin Energy          =      -0.4433408322352845 [Eh]
	 Opposite-Spin Energy      =      -1.2066749215102615 [Eh]
	 Correlation Energy        =      -1.6500157537455460 [Eh]
	 Total Energy              =   -5376.1808098737628825 [Eh]

	 ================> DF-SCS-MP2 Energies <==================
	-----------------------------------------------------------
	 SCS Same-Spin Scale       =       0.3333333333333333 [-]
	 SCS Opposite-Spin Scale   =       1.2000000000000000 [-]
	 SCS Same-Spin Energy      =      -0.1477802774117615 [Eh]
	 SCS Opposite-Spin Energy  =      -1.4480099058123137 [Eh]
	 SCS Correlation Energy    =      -1.5957901832240753 [Eh]
	 SCS Total Energy          =   -5376.1265843032415432 [Eh]
	-----------------------------------------------------------

  Dipole Moment: [D]
     X:     0.1931      Y:    -1.7323      Z:     0.0000     Total:     1.7431

*** Psi4 exiting successfully. Buy a developer a beer!
