                               Psi4 1.3.2 release

  ==> Input File <==

--------------------------------------------------------------------------
#psi4
#
memory 32 gb

molecule  {
0 1
 Br       -2.8410010     0.6223350     0.0000430
 Br        2.8410110     0.6223260    -0.0000690
  C        0.0000010     0.3842340     0.0000060
  C       -1.2071171    -0.3146513     0.0000279
  C        1.1947310    -0.3356150     0.0000060
  C       -1.2149130    -1.7308340     0.0000450
  C        1.2148860    -1.7308340     0.0000120
  C       -0.0000170    -2.4179180     0.0000370
  H        0.0000090     1.4694240    -0.0000080
  H       -2.1604800    -2.2639390     0.0000780
  H        2.1604490    -2.2639450     0.0000000
  H       -0.0000260    -3.5052070     0.0000330
units angstrom
no_reorient  #important for SAPT in psi4, default
symmetry c1  #important for SAPT in psi4, default
}

set PROPERTIES_ORIGIN ["COM"]
properties('MP2/aug-cc-pvtz', properties = ['dipole'])
--------------------------------------------------------------------------

    Molecular point group: c1
  Charge       = 0
  Multiplicity = 1
  Basis Set: AUG-CC-PVTZ
    Blend: AUG-CC-PVTZ
  Basis Set: (AUG-CC-PVTZ AUX)
    Blend: AUG-CC-PVTZ-JKFIT

    Orbital Energies [Eh]
    ---------------------

    Doubly Occupied:

       1A   -490.036356     2A   -490.034002     3A    -65.176158
       4A    -65.173715     5A    -58.531474     6A    -58.530069
       7A    -58.530039     8A    -58.529044     9A    -58.527626
      10A    -58.527600    11A    -11.318027    12A    -11.316982
      13A    -11.270813    14A    -11.268436    15A    -11.267106
      16A    -11.265906    17A     -9.849032    18A     -9.846438
      19A     -7.460744    20A     -7.458095    21A     -7.453785
      22A     -7.453730    23A     -7.451180    24A     -7.451144
      25A     -3.204572    26A     -3.201897    27A     -3.200927
      28A     -3.200689    29A     -3.198306    30A     -3.198098
      31A     -3.191857    32A     -3.191849    33A     -3.189271
      34A     -3.189264    35A     -1.193894    36A     -1.099596
      37A     -1.068972    38A     -1.000541    39A     -0.978582
      40A     -0.849013    41A     -0.817438    42A     -0.716223
      43A     -0.666765    44A     -0.639176    45A     -0.593581
      46A     -0.587801    47A     -0.555282    48A     -0.518655
      49A     -0.502157    50A     -0.471067    51A     -0.432099
      52A     -0.429078    53A     -0.422887    54A     -0.356659
      55A     -0.339464

  @DF-RHF Final Energy: -5374.53145948922247

   => Energetics <=

    Nuclear Repulsion Energy =            764.6272354814781238
    One-Electron Energy =               -8998.4510793443005241
    Two-Electron Energy =                2859.2923843736002709
    Total Energy =                      -5374.5314594892224704
  Basis Set: (AUG-CC-PVTZ AUX)
    Blend: AUG-CC-PVTZ-RI
    Molecular point group: c1

    Geometry (in Angstrom), charge = 0, multiplicity = 1:

       Center              X                  Y                   Z               Mass
    ------------   -----------------  -----------------  -----------------  -----------------
         BR          -2.840366418065     0.545949468956     0.000044459246    78.918337600000
         BR           2.841645581935     0.545940468956    -0.000067540754    78.918337600000
         C            0.000635581935     0.307848468956     0.000007459246    12.000000000000
         C           -1.206482518065    -0.391036831044     0.000029359246    12.000000000000
         C            1.195365581935    -0.412000531044     0.000007459246    12.000000000000
         C           -1.214278418065    -1.807219531044     0.000046459246    12.000000000000
         C            1.215520581935    -1.807219531044     0.000013459246    12.000000000000
         C            0.000617581935    -2.494303531044     0.000038459246    12.000000000000
         H            0.000643581935     1.393038468956    -0.000006540754     1.007825032230
         H           -2.159845418065    -2.340324531044     0.000079459246     1.007825032230
         H            2.161083581935    -2.340330531044     0.000001459246     1.007825032230
         H            0.000608581935    -3.581592531044     0.000034459246     1.007825032230

  Basis Set: AUG-CC-PVTZ
    Blend: AUG-CC-PVTZ
  Basis Set: (AUG-CC-PVTZ AUX)
    Blend: AUG-CC-PVTZ-JKFIT
	 Reference Energy          =   -5374.5314594892224704 [Eh]
	 Singles Energy            =      -0.0000000000000000 [Eh]
	 Same-Spin Energy          =      -0.4438723586440434 [Eh]
	 Opposite-Spin Energy      =      -1.2076151669123547 [Eh]
	 Correlation Energy        =      -1.6514875255563981 [Eh]
	 Total Energy              =   -5376.1829470147786196 [Eh]

	 ================> DF-SCS-MP2 Energies <==================
	-----------------------------------------------------------
	 SCS Same-Spin Scale       =       0.3333333333333333 [-]
	 SCS Opposite-Spin Scale   =       1.2000000000000000 [-]
	 SCS Same-Spin Energy      =      -0.1479574528813478 [Eh]
	 SCS Opposite-Spin Energy  =      -1.4491382002948257 [Eh]
	 SCS Correlation Energy    =      -1.5970956531761735 [Eh]
	 SCS Total Energy          =   -5376.1285551423989091 [Eh]
	-----------------------------------------------------------

  Dipole Moment: [D]
     X:    -0.0923      Y:    -1.5631      Z:     0.0000     Total:     1.5659

*** Psi4 exiting successfully. Buy a developer a beer!
