                               Psi4 1.4a3.dev225

  ==> Input File <==

--------------------------------------------------------------------------
#psi4
#
memory 32 gb

molecule  {
0 1
 Br        2.8415020    -0.6219390     0.0000430
 Br       -2.8415020    -0.6219380    -0.0000580
  C        0.0000000    -0.3851670    -0.0000040
  C        1.1513656     0.3601536     0.0000256
  C       -1.1945960     0.3350330    -0.0000150
  C        1.2148590     1.7299900     0.0000420
  C       -1.2148570     1.7299910    -0.0000010
  C        0.0000010     2.4176760     0.0000290
  H        0.0000000    -1.4703640    -0.0000170
  H        2.1606700     2.2629480     0.0000660
  H       -2.1606680     2.2629490    -0.0000110
  H        0.0000020     3.5048130     0.0000400
units angstrom
no_reorient  #important for SAPT in psi4, default
symmetry c1  #important for SAPT in psi4, default
}

set PROPERTIES_ORIGIN ["COM"]
properties('MP2/aug-cc-pvtz', properties = ['dipole'])
--------------------------------------------------------------------------

    Molecular point group: c1
  Charge       = 0
  Multiplicity = 1
  Basis Set: AUG-CC-PVTZ
    Blend: AUG-CC-PVTZ
  Basis Set: (AUG-CC-PVTZ AUX)
    Blend: AUG-CC-PVTZ-JKFIT

    Orbital Energies [Eh]
    ---------------------

    Doubly Occupied:

       1A   -490.035437     2A   -490.029171     3A    -65.175161
       4A    -65.168738     5A    -58.530486     6A    -58.529074
       7A    -58.529043     8A    -58.524079     9A    -58.522654
      10A    -58.522631    11A    -11.319629    12A    -11.317339
      13A    -11.271284    14A    -11.270021    15A    -11.267471
      16A    -11.265905    17A     -9.847892    18A     -9.841181
      19A     -7.459540    20A     -7.452696    21A     -7.452647
      22A     -7.452595    23A     -7.445928    24A     -7.445919
      25A     -3.203336    26A     -3.199759    27A     -3.199536
      28A     -3.196417    29A     -3.192970    30A     -3.192814
      31A     -3.190738    32A     -3.190730    33A     -3.184086
      34A     -3.184079    35A     -1.202517    36A     -1.097465
      37A     -1.068876    38A     -1.000780    39A     -0.980787
      40A     -0.855796    41A     -0.818520    42A     -0.721628
      43A     -0.673198    44A     -0.641177    45A     -0.597948
      46A     -0.590014    47A     -0.561084    48A     -0.519612
      49A     -0.489740    50A     -0.468000    51A     -0.430243
      52A     -0.427643    53A     -0.420530    54A     -0.360346
      55A     -0.346269

  @DF-RHF Final Energy: -5374.53094200468422

   => Energetics <=

    Nuclear Repulsion Energy =            764.0442661489132661
    One-Electron Energy =               -8997.3840936676369893
    Two-Electron Energy =                2858.8088855140395026
    Total Energy =                      -5374.5309420046851301
  Basis Set: (AUG-CC-PVTZ AUX)
    Blend: AUG-CC-PVTZ-RI
    Molecular point group: c1

    Geometry (in Angstrom), charge = 0, multiplicity = 1:

       Center              X                  Y                   Z               Mass
    ------------   -----------------  -----------------  -----------------  -----------------
         BR           2.843720023943    -0.547961770430     0.000043795170    78.918337600000
         BR          -2.839283976057    -0.547960770430    -0.000057204830    78.918337600000
         C            0.002218023943    -0.311189770430    -0.000003204830    12.000000000000
         C            1.153583623943     0.434130829570     0.000026395170    12.000000000000
         C           -1.192377976057     0.409010229570    -0.000014204830    12.000000000000
         C            1.217077023943     1.803967229570     0.000042795170    12.000000000000
         C           -1.212638976057     1.803968229570    -0.000000204830    12.000000000000
         C            0.002219023943     2.491653229570     0.000029795170    12.000000000000
         H            0.002218023943    -1.396386770430    -0.000016204830     1.007825032230
         H            2.162888023943     2.336925229570     0.000066795170     1.007825032230
         H           -2.158449976057     2.336926229570    -0.000010204830     1.007825032230
         H            0.002220023943     3.578790229570     0.000040795170     1.007825032230

  Basis Set: AUG-CC-PVTZ
    Blend: AUG-CC-PVTZ
  Basis Set: (AUG-CC-PVTZ AUX)
    Blend: AUG-CC-PVTZ-JKFIT
	 Reference Energy          =   -5374.5309420046842206 [Eh]
	 Singles Energy            =      -0.0000000000000000 [Eh]
	 Same-Spin Energy          =      -0.4433337944066799 [Eh]
	 Opposite-Spin Energy      =      -1.2066065536671156 [Eh]
	 Correlation Energy        =      -1.6499403480737955 [Eh]
	 Total Energy              =   -5376.1808823527580898 [Eh]

	 ================> DF-SCS-MP2 Energies <==================
	-----------------------------------------------------------
	 SCS Same-Spin Scale       =       0.3333333333333333 [-]
	 SCS Opposite-Spin Scale   =       1.2000000000000000 [-]
	 SCS Same-Spin Energy      =      -0.1477779314688933 [Eh]
	 SCS Opposite-Spin Energy  =      -1.4479278644005387 [Eh]
	 SCS Correlation Energy    =      -1.5957057958694318 [Eh]
	 SCS Total Energy          =   -5376.1266478005536555 [Eh]
	-----------------------------------------------------------

  Dipole Moment: [D]
     X:    -0.2316      Y:     1.7437      Z:     0.0000     Total:     1.7590

*** Psi4 exiting successfully. Buy a developer a beer!
