                               Psi4 1.3.2 release

  ==> Input File <==

--------------------------------------------------------------------------
#psi4
#
memory 32 gb

molecule  {
0 1
 Br       -2.8410010     0.6223350     0.0000430
 Br        2.8410110     0.6223260    -0.0000690
  C        0.0473046     0.2991399     0.0000065
  C       -1.1947360    -0.3356120     0.0000280
  C        1.1947310    -0.3356150     0.0000060
  C       -1.2149130    -1.7308340     0.0000450
  C        1.2148860    -1.7308340     0.0000120
  C       -0.0000170    -2.4179180     0.0000370
  H        0.0000090     1.4694240    -0.0000080
  H       -2.1604800    -2.2639390     0.0000780
  H        2.1604490    -2.2639450     0.0000000
  H       -0.0000260    -3.5052070     0.0000330
units angstrom
no_reorient  #important for SAPT in psi4, default
symmetry c1  #important for SAPT in psi4, default
}

set PROPERTIES_ORIGIN ["COM"]
properties('MP2/aug-cc-pvtz', properties = ['dipole'])
--------------------------------------------------------------------------

    Molecular point group: c1
  Charge       = 0
  Multiplicity = 1
  Basis Set: AUG-CC-PVTZ
    Blend: AUG-CC-PVTZ
  Basis Set: (AUG-CC-PVTZ AUX)
    Blend: AUG-CC-PVTZ-JKFIT

    Orbital Energies [Eh]
    ---------------------

    Doubly Occupied:

       1A   -490.038020     2A   -490.034631     3A    -65.177614
       4A    -65.174331     5A    -58.532975     6A    -58.531517
       7A    -58.531491     8A    -58.529673     9A    -58.528233
      10A    -58.528208    11A    -11.315710    12A    -11.306371
      13A    -11.267193    14A    -11.266648    15A    -11.266209
      16A    -11.264561    17A     -9.850227    18A     -9.847031
      19A     -7.461950    20A     -7.458739    21A     -7.454900
      22A     -7.454860    23A     -7.451733    24A     -7.451700
      25A     -3.205816    26A     -3.202560    27A     -3.202155
      28A     -3.201942    29A     -3.198924    30A     -3.198722
      31A     -3.192919    32A     -3.192913    33A     -3.189782
      34A     -3.189775    35A     -1.204829    36A     -1.101905
      37A     -1.067613    38A     -1.004848    39A     -0.981022
      40A     -0.846177    41A     -0.827854    42A     -0.711629
      43A     -0.672713    44A     -0.626246    45A     -0.590316
      46A     -0.586858    47A     -0.563389    48A     -0.511425
      49A     -0.499473    50A     -0.471389    51A     -0.432450
      52A     -0.429436    53A     -0.424811    54A     -0.362930
      55A     -0.341875

  @DF-RHF Final Energy: -5374.52051697788193

   => Energetics <=

    Nuclear Repulsion Energy =            765.6022330136876235
    One-Electron Energy =               -9000.3270636672095861
    Two-Electron Energy =                2860.2043136756401509
    Total Energy =                      -5374.5205169778819254
  Basis Set: (AUG-CC-PVTZ AUX)
    Blend: AUG-CC-PVTZ-RI
    Molecular point group: c1

    Geometry (in Angstrom), charge = 0, multiplicity = 1:

       Center              X                  Y                   Z               Mass
    ------------   -----------------  -----------------  -----------------  -----------------
         BR          -2.843428899788     0.551391246943     0.000044428459    78.918337600000
         BR           2.838583100212     0.551382246943    -0.000067571541    78.918337600000
         C            0.044876700212     0.228196146943     0.000007928459    12.000000000000
         C           -1.197163899788    -0.406555753057     0.000029428459    12.000000000000
         C            1.192303100212    -0.406558753057     0.000007428459    12.000000000000
         C           -1.217340899788    -1.801777753057     0.000046428459    12.000000000000
         C            1.212458100212    -1.801777753057     0.000013428459    12.000000000000
         C           -0.002444899788    -2.488861753057     0.000038428459    12.000000000000
         H           -0.002418899788     1.398480246943    -0.000006571541     1.007825032230
         H           -2.162907899788    -2.334882753057     0.000079428459     1.007825032230
         H            2.158021100212    -2.334888753057     0.000001428459     1.007825032230
         H           -0.002453899788    -3.576150753057     0.000034428459     1.007825032230

  Basis Set: AUG-CC-PVTZ
    Blend: AUG-CC-PVTZ
  Basis Set: (AUG-CC-PVTZ AUX)
    Blend: AUG-CC-PVTZ-JKFIT
	 Reference Energy          =   -5374.5205169778819254 [Eh]
	 Singles Energy            =      -0.0000000000000000 [Eh]
	 Same-Spin Energy          =      -0.4437762007386995 [Eh]
	 Opposite-Spin Energy      =      -1.2075082689594210 [Eh]
	 Correlation Energy        =      -1.6512844696981204 [Eh]
	 Total Energy              =   -5376.1718014475800373 [Eh]

	 ================> DF-SCS-MP2 Energies <==================
	-----------------------------------------------------------
	 SCS Same-Spin Scale       =       0.3333333333333333 [-]
	 SCS Opposite-Spin Scale   =       1.2000000000000000 [-]
	 SCS Same-Spin Energy      =      -0.1479254002462332 [Eh]
	 SCS Opposite-Spin Energy  =      -1.4490099227513051 [Eh]
	 SCS Correlation Energy    =      -1.5969353229975383 [Eh]
	 SCS Total Energy          =   -5376.1174523008794495 [Eh]
	-----------------------------------------------------------

  Dipole Moment: [D]
     X:    -0.1296      Y:    -1.5739      Z:     0.0000     Total:     1.5792

*** Psi4 exiting successfully. Buy a developer a beer!
