                               Psi4 1.3.2 release

  ==> Input File <==

--------------------------------------------------------------------------
#psi4
#
memory 32 gb

molecule  {
0 1
 Br       -2.8410010     0.6223350     0.0000430
 Br        2.8410110     0.6223260    -0.0000690
  C        0.0000010     0.3842340     0.0000060
  C       -1.0218718    -0.4362001     0.0000264
  C        1.1947310    -0.3356150     0.0000060
  C       -1.2149130    -1.7308340     0.0000450
  C        1.2148860    -1.7308340     0.0000120
  C       -0.0000170    -2.4179180     0.0000370
  H        0.0000090     1.4694240    -0.0000080
  H       -2.1604800    -2.2639390     0.0000780
  H        2.1604490    -2.2639450     0.0000000
  H       -0.0000260    -3.5052070     0.0000330
units angstrom
no_reorient  #important for SAPT in psi4, default
symmetry c1  #important for SAPT in psi4, default
}

set PROPERTIES_ORIGIN ["COM"]
properties('MP2/aug-cc-pvtz', properties = ['dipole'])
--------------------------------------------------------------------------

    Molecular point group: c1
  Charge       = 0
  Multiplicity = 1
  Basis Set: AUG-CC-PVTZ
    Blend: AUG-CC-PVTZ
  Basis Set: (AUG-CC-PVTZ AUX)
    Blend: AUG-CC-PVTZ-JKFIT

    Orbital Energies [Eh]
    ---------------------

    Doubly Occupied:

       1A   -490.040009     2A   -490.008610     3A    -65.179744
       4A    -65.148078     5A    -58.535067     6A    -58.533657
       7A    -58.533617     8A    -58.503364     9A    -58.502028
      10A    -58.502015    11A    -11.327756    12A    -11.322090
      13A    -11.277913    14A    -11.273465    15A    -11.271708
      16A    -11.267355    17A     -9.852483    18A     -9.820129
      19A     -7.464128    20A     -7.457247    21A     -7.457157
      22A     -7.431143    23A     -7.425094    24A     -7.425048
      25A     -3.207923    26A     -3.204360    27A     -3.204099
      28A     -3.195321    29A     -3.195312    30A     -3.174535
      31A     -3.171582    32A     -3.171528    33A     -3.163564
      34A     -3.163557    35A     -1.226904    36A     -1.104201
      37A     -1.073493    38A     -1.008138    39A     -0.971740
      40A     -0.867993    41A     -0.823679    42A     -0.734620
      43A     -0.693032    44A     -0.647843    45A     -0.616137
      46A     -0.590374    47A     -0.579013    48A     -0.526419
      49A     -0.468670    50A     -0.451505    51A     -0.428389
      52A     -0.421121    53A     -0.405771    54A     -0.371160
      55A     -0.356794

  @DF-RHF Final Energy: -5374.50183909360749

   => Energetics <=

    Nuclear Repulsion Energy =            763.4379616479888000
    One-Electron Energy =               -8996.3242388738235604
    Two-Electron Energy =                2858.3844381322269328
    Total Energy =                      -5374.5018390936074866
  Basis Set: (AUG-CC-PVTZ AUX)
    Blend: AUG-CC-PVTZ-RI
    Molecular point group: c1

    Geometry (in Angstrom), charge = 0, multiplicity = 1:

       Center              X                  Y                   Z               Mass
    ------------   -----------------  -----------------  -----------------  -----------------
         BR          -2.849871539906     0.552186259598     0.000044536212    78.918337600000
         BR           2.832140460094     0.552177259598    -0.000067463788    78.918337600000
         C           -0.008869539906     0.314085259598     0.000007536212    12.000000000000
         C           -1.030742339906    -0.506348840402     0.000027936212    12.000000000000
         C            1.185860460094    -0.405763740402     0.000007536212    12.000000000000
         C           -1.223783539906    -1.800982740402     0.000046536212    12.000000000000
         C            1.206015460094    -1.800982740402     0.000013536212    12.000000000000
         C           -0.008887539906    -2.488066740402     0.000038536212    12.000000000000
         H           -0.008861539906     1.399275259598    -0.000006463788     1.007825032230
         H           -2.169350539906    -2.334087740402     0.000079536212     1.007825032230
         H            2.151578460094    -2.334093740402     0.000001536212     1.007825032230
         H           -0.008896539906    -3.575355740402     0.000034536212     1.007825032230

  Basis Set: AUG-CC-PVTZ
    Blend: AUG-CC-PVTZ
  Basis Set: (AUG-CC-PVTZ AUX)
    Blend: AUG-CC-PVTZ-JKFIT
	 Reference Energy          =   -5374.5018390936074866 [Eh]
	 Singles Energy            =      -0.0000000000000000 [Eh]
	 Same-Spin Energy          =      -0.4435177352055101 [Eh]
	 Opposite-Spin Energy      =      -1.2061915365196483 [Eh]
	 Correlation Energy        =      -1.6497092717251585 [Eh]
	 Total Energy              =   -5376.1515483653329284 [Eh]

	 ================> DF-SCS-MP2 Energies <==================
	-----------------------------------------------------------
	 SCS Same-Spin Scale       =       0.3333333333333333 [-]
	 SCS Opposite-Spin Scale   =       1.2000000000000000 [-]
	 SCS Same-Spin Energy      =      -0.1478392450685034 [Eh]
	 SCS Opposite-Spin Energy  =      -1.4474298438235780 [Eh]
	 SCS Correlation Energy    =      -1.5952690888920813 [Eh]
	 SCS Total Energy          =   -5376.0971081824991415 [Eh]
	-----------------------------------------------------------

  Dipole Moment: [D]
     X:     1.0391      Y:    -2.1820      Z:     0.0000     Total:     2.4168

*** Psi4 exiting successfully. Buy a developer a beer!
