                               Psi4 1.3.2 release

  ==> Input File <==

--------------------------------------------------------------------------
#psi4
#
memory 32 gb

molecule  {
0 1
 Br       -2.8410010     0.6223350     0.0000430
 Br        2.8410110     0.6223260    -0.0000690
  C        0.0000010     0.3842340     0.0000060
  C       -1.2420396    -0.2505179     0.0000271
  C        1.1947310    -0.3356150     0.0000060
  C       -1.2149130    -1.7308340     0.0000450
  C        1.2148860    -1.7308340     0.0000120
  C       -0.0000170    -2.4179180     0.0000370
  H        0.0000090     1.4694240    -0.0000080
  H       -2.1604800    -2.2639390     0.0000780
  H        2.1604490    -2.2639450     0.0000000
  H       -0.0000260    -3.5052070     0.0000330
units angstrom
no_reorient  #important for SAPT in psi4, default
symmetry c1  #important for SAPT in psi4, default
}

set PROPERTIES_ORIGIN ["COM"]
properties('MP2/aug-cc-pvtz', properties = ['dipole'])
--------------------------------------------------------------------------

    Molecular point group: c1
  Charge       = 0
  Multiplicity = 1
  Basis Set: AUG-CC-PVTZ
    Blend: AUG-CC-PVTZ
  Basis Set: (AUG-CC-PVTZ AUX)
    Blend: AUG-CC-PVTZ-JKFIT

    Orbital Energies [Eh]
    ---------------------

    Doubly Occupied:

       1A   -490.041628     2A   -490.033023     3A    -65.181745
       4A    -65.172720     5A    -58.537011     6A    -58.535655
       7A    -58.535615     8A    -58.528054     9A    -58.526631
      10A    -58.526606    11A    -11.319455    12A    -11.315141
      13A    -11.272454    14A    -11.268803    15A    -11.265729
      16A    -11.264394    17A     -9.855149    18A     -9.845432
      19A     -7.467031    20A     -7.459945    21A     -7.459834
      22A     -7.457100    23A     -7.450163    24A     -7.450136
      25A     -3.210934    26A     -3.207117    27A     -3.206787
      28A     -3.200910    29A     -3.197976    30A     -3.197968
      31A     -3.197309    32A     -3.197106    33A     -3.188248
      34A     -3.188241    35A     -1.188389    36A     -1.105841
      37A     -1.068137    38A     -1.002686    39A     -0.973301
      40A     -0.840565    41A     -0.819052    42A     -0.711676
      43A     -0.662206    44A     -0.638428    45A     -0.598285
      46A     -0.580414    47A     -0.551953    48A     -0.519912
      49A     -0.505894    50A     -0.475237    51A     -0.432239
      52A     -0.430443    53A     -0.422864    54A     -0.356265
      55A     -0.331248

  @DF-RHF Final Energy: -5374.52177454537923

   => Energetics <=

    Nuclear Repulsion Energy =            765.3804865062951421
    One-Electron Energy =               -8999.8503509656329697
    Two-Electron Energy =                2859.9480899139575740
    Total Energy =                      -5374.5217745453792304
  Basis Set: (AUG-CC-PVTZ AUX)
    Blend: AUG-CC-PVTZ-RI
    Molecular point group: c1

    Geometry (in Angstrom), charge = 0, multiplicity = 1:

       Center              X                  Y                   Z               Mass
    ------------   -----------------  -----------------  -----------------  -----------------
         BR          -2.838574509620     0.542658719981     0.000044500294    78.918337600000
         BR           2.843437490380     0.542649719981    -0.000067499706    78.918337600000
         C            0.002427490380     0.304557719981     0.000007500294    12.000000000000
         C           -1.239613109620    -0.330194180019     0.000028600294    12.000000000000
         C            1.197157490380    -0.415291280019     0.000007500294    12.000000000000
         C           -1.212486509620    -1.810510280019     0.000046500294    12.000000000000
         C            1.217312490380    -1.810510280019     0.000013500294    12.000000000000
         C            0.002409490380    -2.497594280019     0.000038500294    12.000000000000
         H            0.002435490380     1.389747719981    -0.000006499706     1.007825032230
         H           -2.158053509620    -2.343615280019     0.000079500294     1.007825032230
         H            2.162875490380    -2.343621280019     0.000001500294     1.007825032230
         H            0.002400490380    -3.584883280019     0.000034500294     1.007825032230

  Basis Set: AUG-CC-PVTZ
    Blend: AUG-CC-PVTZ
  Basis Set: (AUG-CC-PVTZ AUX)
    Blend: AUG-CC-PVTZ-JKFIT
	 Reference Energy          =   -5374.5217745453792304 [Eh]
	 Singles Energy            =      -0.0000000000000000 [Eh]
	 Same-Spin Energy          =      -0.4446523081966379 [Eh]
	 Opposite-Spin Energy      =      -1.2092017652484270 [Eh]
	 Correlation Energy        =      -1.6538540734450651 [Eh]
	 Total Energy              =   -5376.1756286188247032 [Eh]

	 ================> DF-SCS-MP2 Energies <==================
	-----------------------------------------------------------
	 SCS Same-Spin Scale       =       0.3333333333333333 [-]
	 SCS Opposite-Spin Scale   =       1.2000000000000000 [-]
	 SCS Same-Spin Energy      =      -0.1482174360655460 [Eh]
	 SCS Opposite-Spin Energy  =      -1.4510421182981124 [Eh]
	 SCS Correlation Energy    =      -1.5992595543636583 [Eh]
	 SCS Total Energy          =   -5376.1210340997431558 [Eh]
	-----------------------------------------------------------

  Dipole Moment: [D]
     X:    -0.3568      Y:    -1.4144      Z:     0.0000     Total:     1.4587

*** Psi4 exiting successfully. Buy a developer a beer!
