                               Psi4 1.4a3.dev225

  ==> Input File <==

--------------------------------------------------------------------------
#psi4
#
memory 32 gb

molecule  {
0 1
 Br        2.8415020    -0.6219390     0.0000430
 Br       -2.8415020    -0.6219380    -0.0000580
  C        0.0000000    -0.3851670    -0.0000040
  C        1.1945970     0.3350330     0.0000260
  C       -1.1945960     0.3350330    -0.0000150
  C        1.2148590     1.7299900     0.0000420
  C       -1.2148570     1.7299910    -0.0000010
  C        0.0000010     2.4176760     0.0000290
  H        0.0000000    -1.4203640    -0.0000164
  H        2.1606700     2.2629480     0.0000660
  H       -2.1606680     2.2629490    -0.0000110
  H        0.0000020     3.5048130     0.0000400
units angstrom
no_reorient  #important for SAPT in psi4, default
symmetry c1  #important for SAPT in psi4, default
}

set PROPERTIES_ORIGIN ["COM"]
properties('MP2/aug-cc-pvtz', properties = ['dipole'])
--------------------------------------------------------------------------

    Molecular point group: c1
  Charge       = 0
  Multiplicity = 1
  Basis Set: AUG-CC-PVTZ
    Blend: AUG-CC-PVTZ
  Basis Set: (AUG-CC-PVTZ AUX)
    Blend: AUG-CC-PVTZ-JKFIT

    Orbital Energies [Eh]
    ---------------------

    Doubly Occupied:

       1A   -490.034448     2A   -490.034448     3A    -65.174166
       4A    -65.174166     5A    -58.529493     6A    -58.529493
       7A    -58.528078     8A    -58.528078     9A    -58.528051
      10A    -58.528051    11A    -11.317491    12A    -11.317482
      13A    -11.268314    14A    -11.266499    15A    -11.266277
      16A    -11.266085    17A     -9.846892    18A     -9.846892
      19A     -7.458543    20A     -7.458543    21A     -7.451640
      22A     -7.451640    23A     -7.451603    24A     -7.451603
      25A     -3.202341    26A     -3.202340    27A     -3.198754
      28A     -3.198754    29A     -3.198548    30A     -3.198548
      31A     -3.189738    32A     -3.189737    33A     -3.189730
      34A     -3.189730    35A     -1.196497    36A     -1.098745
      37A     -1.069610    38A     -1.001233    39A     -0.980114
      40A     -0.855016    41A     -0.816633    42A     -0.722497
      43A     -0.668476    44A     -0.644574    45A     -0.594868
      46A     -0.589978    47A     -0.556662    48A     -0.521240
      49A     -0.498729    50A     -0.470130    51A     -0.431767
      52A     -0.428624    53A     -0.422545    54A     -0.356858
      55A     -0.342224

  @DF-RHF Final Energy: -5374.53173079923909

   => Energetics <=

    Nuclear Repulsion Energy =            764.6874079587000779
    One-Electron Energy =               -8998.5718534018596984
    Two-Electron Energy =                2859.3527146439205353
    Total Energy =                      -5374.5317307992390852
  Basis Set: (AUG-CC-PVTZ AUX)
    Blend: AUG-CC-PVTZ-RI
    Molecular point group: c1

    Geometry (in Angstrom), charge = 0, multiplicity = 1:

       Center              X                  Y                   Z               Mass
    ------------   -----------------  -----------------  -----------------  -----------------
         BR           2.841501777518    -0.546888276088     0.000043772060    78.918337600000
         BR          -2.841502222482    -0.546887276088    -0.000057227940    78.918337600000
         C           -0.000000222482    -0.310116276088    -0.000003227940    12.000000000000
         C            1.194596777518     0.410083723912     0.000026772060    12.000000000000
         C           -1.194596222482     0.410083723912    -0.000014227940    12.000000000000
         C            1.214858777518     1.805040723912     0.000042772060    12.000000000000
         C           -1.214857222482     1.805041723912    -0.000000227940    12.000000000000
         C            0.000000777518     2.492726723912     0.000029772060    12.000000000000
         H           -0.000000222482    -1.345313276088    -0.000015627940     1.007825032230
         H            2.160669777518     2.337998723912     0.000066772060     1.007825032230
         H           -2.160668222482     2.337999723912    -0.000010227940     1.007825032230
         H            0.000001777518     3.579863723912     0.000040772060     1.007825032230

  Basis Set: AUG-CC-PVTZ
    Blend: AUG-CC-PVTZ
  Basis Set: (AUG-CC-PVTZ AUX)
    Blend: AUG-CC-PVTZ-JKFIT
	 Reference Energy          =   -5374.5317307992390852 [Eh]
	 Singles Energy            =      -0.0000000000000000 [Eh]
	 Same-Spin Energy          =      -0.4435160693215585 [Eh]
	 Opposite-Spin Energy      =      -1.2069397718085884 [Eh]
	 Correlation Energy        =      -1.6504558411301469 [Eh]
	 Total Energy              =   -5376.1821866403688546 [Eh]

	 ================> DF-SCS-MP2 Energies <==================
	-----------------------------------------------------------
	 SCS Same-Spin Scale       =       0.3333333333333333 [-]
	 SCS Opposite-Spin Scale   =       1.2000000000000000 [-]
	 SCS Same-Spin Energy      =      -0.1478386897738528 [Eh]
	 SCS Opposite-Spin Energy  =      -1.4483277261703060 [Eh]
	 SCS Correlation Energy    =      -1.5961664159441589 [Eh]
	 SCS Total Energy          =   -5376.1278972151831113 [Eh]
	-----------------------------------------------------------

  Dipole Moment: [D]
     X:     0.0000      Y:     1.6277      Z:     0.0000     Total:     1.6277

*** Psi4 exiting successfully. Buy a developer a beer!
