                               Psi4 1.4a3.dev225

  ==> Input File <==

--------------------------------------------------------------------------
#psi4
#
memory 32 gb

molecule  {
0 1
 Br        2.8415020    -0.6219390     0.0000430
 Br       -2.8415020    -0.6219380    -0.0000580
  C        0.0000000    -0.3851670    -0.0000040
  C        1.2378284     0.3099124     0.0000264
  C       -1.1945960     0.3350330    -0.0000150
  C        1.2148590     1.7299900     0.0000420
  C       -1.2148570     1.7299910    -0.0000010
  C        0.0000010     2.4176760     0.0000290
  H        0.0000000    -1.4703640    -0.0000170
  H        2.1606700     2.2629480     0.0000660
  H       -2.1606680     2.2629490    -0.0000110
  H        0.0000020     3.5048130     0.0000400
units angstrom
no_reorient  #important for SAPT in psi4, default
symmetry c1  #important for SAPT in psi4, default
}

set PROPERTIES_ORIGIN ["COM"]
properties('MP2/aug-cc-pvtz', properties = ['dipole'])
--------------------------------------------------------------------------

    Molecular point group: c1
  Charge       = 0
  Multiplicity = 1
  Basis Set: AUG-CC-PVTZ
    Blend: AUG-CC-PVTZ
  Basis Set: (AUG-CC-PVTZ AUX)
    Blend: AUG-CC-PVTZ-JKFIT

    Orbital Energies [Eh]
    ---------------------

    Doubly Occupied:

       1A   -490.038890     2A   -490.033423     3A    -65.178826
       4A    -65.173133     5A    -58.534122     6A    -58.532737
       7A    -58.532702     8A    -58.528463     9A    -58.527044
      10A    -58.527019    11A    -11.318793    12A    -11.316014
      13A    -11.272465    14A    -11.267983    15A    -11.266547
      16A    -11.265379    17A     -9.851930    18A     -9.845854
      19A     -7.463719    20A     -7.457516    21A     -7.456700
      22A     -7.456622    23A     -7.450590    24A     -7.450563
      25A     -3.207583    26A     -3.203859    27A     -3.203582
      28A     -3.201319    29A     -3.197721    30A     -3.197522
      31A     -3.194751    32A     -3.194743    33A     -3.188683
      34A     -3.188675    35A     -1.190795    36A     -1.102609
      37A     -1.068458    38A     -0.998802    39A     -0.978473
      40A     -0.848188    41A     -0.814969    42A     -0.714236
      43A     -0.664716    44A     -0.639215    45A     -0.593622
      46A     -0.584806    47A     -0.553235    48A     -0.522148
      49A     -0.502912    50A     -0.473262    51A     -0.432407
      52A     -0.430242    53A     -0.422669    54A     -0.353707
      55A     -0.337827

  @DF-RHF Final Energy: -5374.52910574414000

   => Energetics <=

    Nuclear Repulsion Energy =            764.8200429067956065
    One-Electron Energy =               -8998.7927627789722465
    Two-Electron Energy =                2859.4436141280375523
    Total Energy =                      -5374.5291057441399971
  Basis Set: (AUG-CC-PVTZ AUX)
    Blend: AUG-CC-PVTZ-RI
    Molecular point group: c1

    Geometry (in Angstrom), charge = 0, multiplicity = 1:

       Center              X                  Y                   Z               Mass
    ------------   -----------------  -----------------  -----------------  -----------------
         BR           2.839283531094    -0.545383844148     0.000043754121    78.918337600000
         BR          -2.843720468906    -0.545382844148    -0.000057245879    78.918337600000
         C           -0.002218468906    -0.308611844148    -0.000003245879    12.000000000000
         C            1.235609931094     0.386467555852     0.000027154121    12.000000000000
         C           -1.196814468906     0.411588155852    -0.000014245879    12.000000000000
         C            1.212640531094     1.806545155852     0.000042754121    12.000000000000
         C           -1.217075468906     1.806546155852    -0.000000245879    12.000000000000
         C           -0.002217468906     2.494231155852     0.000029754121    12.000000000000
         H           -0.002218468906    -1.393808844148    -0.000016245879     1.007825032230
         H            2.158451531094     2.339503155852     0.000066754121     1.007825032230
         H           -2.162886468906     2.339504155852    -0.000010245879     1.007825032230
         H           -0.002216468906     3.581368155852     0.000040754121     1.007825032230

  Basis Set: AUG-CC-PVTZ
    Blend: AUG-CC-PVTZ
  Basis Set: (AUG-CC-PVTZ AUX)
    Blend: AUG-CC-PVTZ-JKFIT
	 Reference Energy          =   -5374.5291057441399971 [Eh]
	 Singles Energy            =      -0.0000000000000000 [Eh]
	 Same-Spin Energy          =      -0.4442444897341553 [Eh]
	 Opposite-Spin Energy      =      -1.2082131860587371 [Eh]
	 Correlation Energy        =      -1.6524576757928924 [Eh]
	 Total Energy              =   -5376.1815634199328997 [Eh]

	 ================> DF-SCS-MP2 Energies <==================
	-----------------------------------------------------------
	 SCS Same-Spin Scale       =       0.3333333333333333 [-]
	 SCS Opposite-Spin Scale   =       1.2000000000000000 [-]
	 SCS Same-Spin Energy      =      -0.1480814965780518 [Eh]
	 SCS Opposite-Spin Energy  =      -1.4498558232704843 [Eh]
	 SCS Correlation Energy    =      -1.5979373198485360 [Eh]
	 SCS Total Energy          =   -5376.1270430639888218 [Eh]
	-----------------------------------------------------------

  Dipole Moment: [D]
     X:     0.2204      Y:     1.4961      Z:     0.0000     Total:     1.5123

*** Psi4 exiting successfully. Buy a developer a beer!
