                               Psi4 1.3.2 release

  ==> Input File <==

--------------------------------------------------------------------------
#psi4
#
memory 32 gb

molecule  {
0 1
 Br       -2.9321153     0.4450057     0.0000456
 Br        2.8410110     0.6223260    -0.0000690
  C        0.0000010     0.3842340     0.0000060
  C       -1.1947360    -0.3356120     0.0000280
  C        1.1947310    -0.3356150     0.0000060
  C       -1.2149130    -1.7308340     0.0000450
  C        1.2148860    -1.7308340     0.0000120
  C       -0.0000170    -2.4179180     0.0000370
  H        0.0000090     1.4694240    -0.0000080
  H       -2.1604800    -2.2639390     0.0000780
  H        2.1604490    -2.2639450     0.0000000
  H       -0.0000260    -3.5052070     0.0000330
units angstrom
no_reorient  #important for SAPT in psi4, default
symmetry c1  #important for SAPT in psi4, default
}

set PROPERTIES_ORIGIN ["COM"]
properties('MP2/aug-cc-pvtz', properties = ['dipole'])
--------------------------------------------------------------------------

    Molecular point group: c1
  Charge       = 0
  Multiplicity = 1
  Basis Set: AUG-CC-PVTZ
    Blend: AUG-CC-PVTZ
  Basis Set: (AUG-CC-PVTZ AUX)
    Blend: AUG-CC-PVTZ-JKFIT

    Orbital Energies [Eh]
    ---------------------

    Doubly Occupied:

       1A   -490.034891     2A   -490.034258     3A    -65.174600
       4A    -65.173990     5A    -58.529931     6A    -58.529320
       7A    -58.528510     8A    -58.528483     9A    -58.527897
      10A    -58.527866    11A    -11.318430    12A    -11.317557
      13A    -11.273596    14A    -11.267323    15A    -11.266125
      16A    -11.264319    17A     -9.847320    18A     -9.846734
      19A     -7.458984    20A     -7.458405    21A     -7.452056
      22A     -7.452020    23A     -7.451468    24A     -7.451422
      25A     -3.202790    26A     -3.202212    27A     -3.199192
      28A     -3.198985    29A     -3.198619    30A     -3.198396
      31A     -3.190141    32A     -3.190134    33A     -3.189537
      34A     -3.189528    35A     -1.196241    36A     -1.100181
      37A     -1.066794    38A     -1.002942    39A     -0.977971
      40A     -0.851027    41A     -0.817476    42A     -0.717863
      43A     -0.668594    44A     -0.639242    45A     -0.594026
      46A     -0.589510    47A     -0.556842    48A     -0.517446
      49A     -0.499827    50A     -0.470768    51A     -0.430949
      52A     -0.427950    53A     -0.422697    54A     -0.358097
      55A     -0.341275

  @DF-RHF Final Energy: -5374.53017629317492

   => Energetics <=

    Nuclear Repulsion Energy =            762.9298560477436695
    One-Electron Energy =               -8995.0745436727211199
    Two-Electron Energy =                2857.6145113318029871
    Total Energy =                      -5374.5301762931740086
  Basis Set: (AUG-CC-PVTZ AUX)
    Blend: AUG-CC-PVTZ-RI
    Molecular point group: c1

    Geometry (in Angstrom), charge = 0, multiplicity = 1:

       Center              X                  Y                   Z               Mass
    ------------   -----------------  -----------------  -----------------  -----------------
         BR          -2.901369644167     0.429535144355     0.000046176749    78.918337600000
         BR           2.871756655833     0.606855444355    -0.000068423251    78.918337600000
         C            0.030746655833     0.368763444355     0.000006576749    12.000000000000
         C           -1.163990344167    -0.351082555645     0.000028576749    12.000000000000
         C            1.225476655833    -0.351085555645     0.000006576749    12.000000000000
         C           -1.184167344167    -1.746304555645     0.000045576749    12.000000000000
         C            1.245631655833    -1.746304555645     0.000012576749    12.000000000000
         C            0.030728655833    -2.433388555645     0.000037576749    12.000000000000
         H            0.030754655833     1.453953444355    -0.000007423251     1.007825032230
         H           -2.129734344167    -2.279409555645     0.000078576749     1.007825032230
         H            2.191194655833    -2.279415555645     0.000000576749     1.007825032230
         H            0.030719655833    -3.520677555645     0.000033576749     1.007825032230

  Basis Set: AUG-CC-PVTZ
    Blend: AUG-CC-PVTZ
  Basis Set: (AUG-CC-PVTZ AUX)
    Blend: AUG-CC-PVTZ-JKFIT
	 Reference Energy          =   -5374.5301762931749181 [Eh]
	 Singles Energy            =      -0.0000000000000000 [Eh]
	 Same-Spin Energy          =      -0.4437832603079959 [Eh]
	 Opposite-Spin Energy      =      -1.2075007800325066 [Eh]
	 Correlation Energy        =      -1.6512840403405025 [Eh]
	 Total Energy              =   -5376.1814603335151332 [Eh]

	 ================> DF-SCS-MP2 Energies <==================
	-----------------------------------------------------------
	 SCS Same-Spin Scale       =       0.3333333333333333 [-]
	 SCS Opposite-Spin Scale   =       1.2000000000000000 [-]
	 SCS Same-Spin Energy      =      -0.1479277534359986 [Eh]
	 SCS Opposite-Spin Energy  =      -1.4490009360390079 [Eh]
	 SCS Correlation Energy    =      -1.5969286894750065 [Eh]
	 SCS Total Energy          =   -5376.1271049826500530 [Eh]
	-----------------------------------------------------------

  Dipole Moment: [D]
     X:     0.0414      Y:    -1.5707      Z:     0.0000     Total:     1.5713

*** Psi4 exiting successfully. Buy a developer a beer!
