                               Psi4 1.3.2 release

  ==> Input File <==

--------------------------------------------------------------------------
#psi4
#
memory 32 gb

molecule  {
0 1
 Br       -2.8410010     0.6223350     0.0000430
 Br        2.8410110     0.6223260    -0.0000690
  C        0.0000010     0.3842340     0.0000060
  C       -1.2634355    -0.2067846     0.0000267
  C        1.1947310    -0.3356150     0.0000060
  C       -1.2149130    -1.7308340     0.0000450
  C        1.2148860    -1.7308340     0.0000120
  C       -0.0000170    -2.4179180     0.0000370
  H        0.0000090     1.4694240    -0.0000080
  H       -2.1604800    -2.2639390     0.0000780
  H        2.1604490    -2.2639450     0.0000000
  H       -0.0000260    -3.5052070     0.0000330
units angstrom
no_reorient  #important for SAPT in psi4, default
symmetry c1  #important for SAPT in psi4, default
}

set PROPERTIES_ORIGIN ["COM"]
properties('MP2/aug-cc-pvtz', properties = ['dipole'])
--------------------------------------------------------------------------

    Molecular point group: c1
  Charge       = 0
  Multiplicity = 1
  Basis Set: AUG-CC-PVTZ
    Blend: AUG-CC-PVTZ
  Basis Set: (AUG-CC-PVTZ AUX)
    Blend: AUG-CC-PVTZ-JKFIT

    Orbital Energies [Eh]
    ---------------------

    Doubly Occupied:

       1A   -490.044714     2A   -490.032446     3A    -65.185090
       4A    -65.172133     5A    -58.540309     6A    -58.539000
       7A    -58.538951     8A    -58.527470     9A    -58.526042
      10A    -58.526019    11A    -11.320662    12A    -11.314105
      13A    -11.274959    14A    -11.267754    15A    -11.265028
      16A    -11.263278    17A     -9.858920    18A     -9.844837
      19A     -7.470917    20A     -7.463756    21A     -7.463599
      22A     -7.456512    23A     -7.449559    24A     -7.449537
      25A     -3.214864    26A     -3.210929    27A     -3.210528
      28A     -3.201774    29A     -3.201765    30A     -3.200328
      31A     -3.196719    32A     -3.196519    33A     -3.187640
      34A     -3.187633    35A     -1.185834    36A     -1.112228
      37A     -1.066825    38A     -1.003881    39A     -0.969807
      40A     -0.835291    41A     -0.819789    42A     -0.708904
      43A     -0.659827    44A     -0.638764    45A     -0.601848
      46A     -0.576240    47A     -0.550582    48A     -0.522357
      49A     -0.504492    50A     -0.478697    51A     -0.431848
      52A     -0.430145    53A     -0.422405    54A     -0.356116
      55A     -0.326018

  @DF-RHF Final Energy: -5374.50998693611382

   => Energetics <=

    Nuclear Repulsion Energy =            765.9452707639494520
    One-Electron Energy =               -9000.8981267026338173
    Two-Electron Energy =                2860.4428690025702053
    Total Energy =                      -5374.5099869361129095
  Basis Set: (AUG-CC-PVTZ AUX)
    Blend: AUG-CC-PVTZ-RI
    Molecular point group: c1

    Geometry (in Angstrom), charge = 0, multiplicity = 1:

       Center              X                  Y                   Z               Mass
    ------------   -----------------  -----------------  -----------------  -----------------
         BR          -2.837476664566     0.540414720565     0.000044520819    78.918337600000
         BR           2.844535335434     0.540405720565    -0.000067479181    78.918337600000
         C            0.003525335434     0.302313720565     0.000007520819    12.000000000000
         C           -1.259911164566    -0.288704879435     0.000028220819    12.000000000000
         C            1.198255335434    -0.417535279435     0.000007520819    12.000000000000
         C           -1.211388664566    -1.812754279435     0.000046520819    12.000000000000
         C            1.218410335434    -1.812754279435     0.000013520819    12.000000000000
         C            0.003507335434    -2.499838279435     0.000038520819    12.000000000000
         H            0.003533335434     1.387503720565    -0.000006479181     1.007825032230
         H           -2.156955664566    -2.345859279435     0.000079520819     1.007825032230
         H            2.163973335434    -2.345865279435     0.000001520819     1.007825032230
         H            0.003498335434    -3.587127279435     0.000034520819     1.007825032230

  Basis Set: AUG-CC-PVTZ
    Blend: AUG-CC-PVTZ
  Basis Set: (AUG-CC-PVTZ AUX)
    Blend: AUG-CC-PVTZ-JKFIT
	 Reference Energy          =   -5374.5099869361138190 [Eh]
	 Singles Energy            =      -0.0000000000000000 [Eh]
	 Same-Spin Energy          =      -0.4453115452767051 [Eh]
	 Opposite-Spin Energy      =      -1.2106406230295321 [Eh]
	 Correlation Energy        =      -1.6559521683062373 [Eh]
	 Total Energy              =   -5376.1659391044204312 [Eh]

	 ================> DF-SCS-MP2 Energies <==================
	-----------------------------------------------------------
	 SCS Same-Spin Scale       =       0.3333333333333333 [-]
	 SCS Opposite-Spin Scale   =       1.2000000000000000 [-]
	 SCS Same-Spin Energy      =      -0.1484371817589017 [Eh]
	 SCS Opposite-Spin Energy  =      -1.4527687476354385 [Eh]
	 SCS Correlation Energy    =      -1.6012059293943401 [Eh]
	 SCS Total Energy          =   -5376.1111928655082011 [Eh]
	-----------------------------------------------------------

  Dipole Moment: [D]
     X:    -0.5263      Y:    -1.3230      Z:     0.0000     Total:     1.4238

*** Psi4 exiting successfully. Buy a developer a beer!
