                               Psi4 1.3.2 release

  ==> Input File <==

--------------------------------------------------------------------------
#psi4
#
memory 32 gb

molecule  {
0 1
 Br       -2.7318499     0.7891688     0.0000402
 Br        2.8410110     0.6223260    -0.0000690
  C        0.0000010     0.3842340     0.0000060
  C       -1.1947360    -0.3356120     0.0000280
  C        1.1947310    -0.3356150     0.0000060
  C       -1.2149130    -1.7308340     0.0000450
  C        1.2148860    -1.7308340     0.0000120
  C       -0.0000170    -2.4179180     0.0000370
  H        0.0000090     1.4694240    -0.0000080
  H       -2.1604800    -2.2639390     0.0000780
  H        2.1604490    -2.2639450     0.0000000
  H       -0.0000260    -3.5052070     0.0000330
units angstrom
no_reorient  #important for SAPT in psi4, default
symmetry c1  #important for SAPT in psi4, default
}

set PROPERTIES_ORIGIN ["COM"]
properties('MP2/aug-cc-pvtz', properties = ['dipole'])
--------------------------------------------------------------------------

    Molecular point group: c1
  Charge       = 0
  Multiplicity = 1
  Basis Set: AUG-CC-PVTZ
    Blend: AUG-CC-PVTZ
  Basis Set: (AUG-CC-PVTZ AUX)
    Blend: AUG-CC-PVTZ-JKFIT

    Orbital Energies [Eh]
    ---------------------

    Doubly Occupied:

       1A   -490.034297     2A   -490.033796     3A    -65.174034
       4A    -65.173521     5A    -58.529363     6A    -58.528846
       7A    -58.527939     8A    -58.527909     9A    -58.527436
      10A    -58.527407    11A    -11.317715    12A    -11.316779
      13A    -11.269601    14A    -11.269469    15A    -11.268299
      16A    -11.266515    17A     -9.846785    18A     -9.846254
      19A     -7.458459    20A     -7.457898    21A     -7.451515
      22A     -7.451472    23A     -7.451011    24A     -7.450968
      25A     -3.202266    26A     -3.201691    27A     -3.198670
      28A     -3.198450    29A     -3.198114    30A     -3.197901
      31A     -3.189583    32A     -3.189574    33A     -3.189112
      34A     -3.189104    35A     -1.196367    36A     -1.097970
      37A     -1.070893    38A     -0.996508    39A     -0.982032
      40A     -0.852618    41A     -0.816281    42A     -0.717937
      43A     -0.668729    44A     -0.640269    45A     -0.591389
      46A     -0.590603    47A     -0.556795    48A     -0.520702
      49A     -0.497705    50A     -0.469544    51A     -0.432538
      52A     -0.428337    53A     -0.421375    54A     -0.355486
      55A     -0.343099

  @DF-RHF Final Energy: -5374.53005852147544

   => Energetics <=

    Nuclear Repulsion Energy =            766.8914464441238579
    One-Electron Energy =               -9003.0251491174385592
    Two-Electron Energy =                2861.6036441518390347
    Total Energy =                      -5374.5300585214754392
  Basis Set: (AUG-CC-PVTZ AUX)
    Blend: AUG-CC-PVTZ-RI
    Molecular point group: c1

    Geometry (in Angstrom), charge = 0, multiplicity = 1:

       Center              X                  Y                   Z               Mass
    ------------   -----------------  -----------------  -----------------  -----------------
         BR          -2.768683451729     0.657561010614     0.000042598970    78.918337600000
         BR           2.804177448271     0.490718210614    -0.000066601030    78.918337600000
         C           -0.036832551729     0.252626210614     0.000008398970    12.000000000000
         C           -1.231569551729    -0.467219789386     0.000030398970    12.000000000000
         C            1.157897448271    -0.467222789386     0.000008398970    12.000000000000
         C           -1.251746551729    -1.862441789386     0.000047398970    12.000000000000
         C            1.178052448271    -1.862441789386     0.000014398970    12.000000000000
         C           -0.036850551729    -2.549525789386     0.000039398970    12.000000000000
         H           -0.036824551729     1.337816210614    -0.000005601030     1.007825032230
         H           -2.197313551729    -2.395546789386     0.000080398970     1.007825032230
         H            2.123615448271    -2.395552789386     0.000002398970     1.007825032230
         H           -0.036859551729    -3.636814789386     0.000035398970     1.007825032230

  Basis Set: AUG-CC-PVTZ
    Blend: AUG-CC-PVTZ
  Basis Set: (AUG-CC-PVTZ AUX)
    Blend: AUG-CC-PVTZ-JKFIT
	 Reference Energy          =   -5374.5300585214754392 [Eh]
	 Singles Energy            =      -0.0000000000000000 [Eh]
	 Same-Spin Energy          =      -0.4438304924415910 [Eh]
	 Opposite-Spin Energy      =      -1.2074791116453638 [Eh]
	 Correlation Energy        =      -1.6513096040869548 [Eh]
	 Total Energy              =   -5376.1813681255625852 [Eh]

	 ================> DF-SCS-MP2 Energies <==================
	-----------------------------------------------------------
	 SCS Same-Spin Scale       =       0.3333333333333333 [-]
	 SCS Opposite-Spin Scale   =       1.2000000000000000 [-]
	 SCS Same-Spin Energy      =      -0.1479434974805303 [Eh]
	 SCS Opposite-Spin Energy  =      -1.4489749339744364 [Eh]
	 SCS Correlation Energy    =      -1.5969184314549667 [Eh]
	 SCS Total Energy          =   -5376.1269769529308178 [Eh]
	-----------------------------------------------------------

  Dipole Moment: [D]
     X:    -0.0362      Y:    -1.6665      Z:     0.0000     Total:     1.6669

*** Psi4 exiting successfully. Buy a developer a beer!
