                               Psi4 1.3.2 release

  ==> Input File <==

--------------------------------------------------------------------------
#psi4
#
memory 32 gb

molecule  {
0 1
 Br       -2.7701678     0.7348391     0.0000411
 Br        2.8410110     0.6223260    -0.0000690
  C        0.0000010     0.3842340     0.0000060
  C       -1.1947360    -0.3356120     0.0000280
  C        1.1947310    -0.3356150     0.0000060
  C       -1.2149130    -1.7308340     0.0000450
  C        1.2148860    -1.7308340     0.0000120
  C       -0.0000170    -2.4179180     0.0000370
  H        0.0000090     1.4694240    -0.0000080
  H       -2.1604800    -2.2639390     0.0000780
  H        2.1604490    -2.2639450     0.0000000
  H       -0.0000260    -3.5052070     0.0000330
units angstrom
no_reorient  #important for SAPT in psi4, default
symmetry c1  #important for SAPT in psi4, default
}

set PROPERTIES_ORIGIN ["COM"]
properties('MP2/aug-cc-pvtz', properties = ['dipole'])
--------------------------------------------------------------------------

    Molecular point group: c1
  Charge       = 0
  Multiplicity = 1
  Basis Set: AUG-CC-PVTZ
    Blend: AUG-CC-PVTZ
  Basis Set: (AUG-CC-PVTZ AUX)
    Blend: AUG-CC-PVTZ-JKFIT

    Orbital Energies [Eh]
    ---------------------

    Doubly Occupied:

       1A   -490.034341     2A   -490.033993     3A    -65.174068
       4A    -65.173716     5A    -58.529396     6A    -58.529041
       7A    -58.527977     8A    -58.527948     9A    -58.527629
      10A    -58.527601    11A    -11.317717    12A    -11.317102
      13A    -11.270274    14A    -11.269035    15A    -11.267757
      16A    -11.266480    17A     -9.846806    18A     -9.846447
      19A     -7.458470    20A     -7.458094    21A     -7.451545
      22A     -7.451504    23A     -7.451200    24A     -7.451158
      25A     -3.202273    26A     -3.201889    27A     -3.198681
      28A     -3.198466    29A     -3.198309    30A     -3.198096
      31A     -3.189626    32A     -3.189618    33A     -3.189297
      34A     -3.189290    35A     -1.196273    36A     -1.098150
      37A     -1.070158    38A     -0.997653    39A     -0.981449
      40A     -0.852364    41A     -0.816476    42A     -0.717902
      43A     -0.668642    44A     -0.640052    45A     -0.591833
      46A     -0.590492    47A     -0.556762    48A     -0.520204
      49A     -0.498141    50A     -0.469704    51A     -0.432281
      52A     -0.428481    53A     -0.421854    54A     -0.355958
      55A     -0.342843

  @DF-RHF Final Energy: -5374.53136726436787

   => Energetics <=

    Nuclear Repulsion Energy =            765.9480315710612786
    One-Electron Energy =               -9001.1337626832573733
    Two-Electron Energy =                2860.6543638478287903
    Total Energy =                      -5374.5313672643678728
  Basis Set: (AUG-CC-PVTZ AUX)
    Blend: AUG-CC-PVTZ-RI
    Molecular point group: c1

    Geometry (in Angstrom), charge = 0, multiplicity = 1:

       Center              X                  Y                   Z               Mass
    ------------   -----------------  -----------------  -----------------  -----------------
         BR          -2.794071043660     0.621564772475     0.000043195266    78.918337600000
         BR           2.817107756340     0.509051672475    -0.000066904734    78.918337600000
         C           -0.023902243660     0.270959672475     0.000008095266    12.000000000000
         C           -1.218639243660    -0.448886327525     0.000030095266    12.000000000000
         C            1.170827756340    -0.448889327525     0.000008095266    12.000000000000
         C           -1.238816243660    -1.844108327525     0.000047095266    12.000000000000
         C            1.190982756340    -1.844108327525     0.000014095266    12.000000000000
         C           -0.023920243660    -2.531192327525     0.000039095266    12.000000000000
         H           -0.023894243660     1.356149672475    -0.000005904734     1.007825032230
         H           -2.184383243660    -2.377213327525     0.000080095266     1.007825032230
         H            2.136545756340    -2.377219327525     0.000002095266     1.007825032230
         H           -0.023929243660    -3.618481327525     0.000035095266     1.007825032230

  Basis Set: AUG-CC-PVTZ
    Blend: AUG-CC-PVTZ
  Basis Set: (AUG-CC-PVTZ AUX)
    Blend: AUG-CC-PVTZ-JKFIT
	 Reference Energy          =   -5374.5313672643678728 [Eh]
	 Singles Energy            =      -0.0000000000000000 [Eh]
	 Same-Spin Energy          =      -0.4437444391727300 [Eh]
	 Opposite-Spin Energy      =      -1.2073388453690175 [Eh]
	 Correlation Energy        =      -1.6510832845417474 [Eh]
	 Total Energy              =   -5376.1824505489094008 [Eh]

	 ================> DF-SCS-MP2 Energies <==================
	-----------------------------------------------------------
	 SCS Same-Spin Scale       =       0.3333333333333333 [-]
	 SCS Opposite-Spin Scale   =       1.2000000000000000 [-]
	 SCS Same-Spin Energy      =      -0.1479148130575766 [Eh]
	 SCS Opposite-Spin Energy  =      -1.4488066144428209 [Eh]
	 SCS Correlation Energy    =      -1.5967214275003976 [Eh]
	 SCS Total Energy          =   -5376.1280886918684701 [Eh]
	-----------------------------------------------------------

  Dipole Moment: [D]
     X:    -0.0248      Y:    -1.6497      Z:     0.0000     Total:     1.6499

*** Psi4 exiting successfully. Buy a developer a beer!
