                               Psi4 1.4a3.dev225

  ==> Input File <==

--------------------------------------------------------------------------
#psi4
#
memory 32 gb

molecule  {
0 1
 Br        2.8415020    -0.6219390     0.0000430
 Br       -2.8415020    -0.6219380    -0.0000580
  C        0.0000000    -0.3851670    -0.0000040
  C        1.1773044     0.3450812     0.0000258
  C       -1.1945960     0.3350330    -0.0000150
  C        1.2148590     1.7299900     0.0000420
  C       -1.2148570     1.7299910    -0.0000010
  C        0.0000010     2.4176760     0.0000290
  H        0.0000000    -1.4703640    -0.0000170
  H        2.1606700     2.2629480     0.0000660
  H       -2.1606680     2.2629490    -0.0000110
  H        0.0000020     3.5048130     0.0000400
units angstrom
no_reorient  #important for SAPT in psi4, default
symmetry c1  #important for SAPT in psi4, default
}

set PROPERTIES_ORIGIN ["COM"]
properties('MP2/aug-cc-pvtz', properties = ['dipole'])
--------------------------------------------------------------------------

    Molecular point group: c1
  Charge       = 0
  Multiplicity = 1
  Basis Set: AUG-CC-PVTZ
    Blend: AUG-CC-PVTZ
  Basis Set: (AUG-CC-PVTZ AUX)
    Blend: AUG-CC-PVTZ-JKFIT

    Orbital Energies [Eh]
    ---------------------

    Doubly Occupied:

       1A   -490.034767     2A   -490.032366     3A    -65.174488
       4A    -65.172016     5A    -58.529814     6A    -58.528400
       7A    -58.528371     8A    -58.527351     9A    -58.525929
      10A    -58.525904    11A    -11.318420    12A    -11.317441
      13A    -11.271464    14A    -11.268943    15A    -11.266884
      16A    -11.266168    17A     -9.847216    18A     -9.844619
      19A     -7.458868    20A     -7.456218    21A     -7.451966
      22A     -7.451921    23A     -7.449362    24A     -7.449335
      25A     -3.202665    26A     -3.199988    27A     -3.199082
      28A     -3.198867    29A     -3.196456    30A     -3.196268
      31A     -3.190058    32A     -3.190051    33A     -3.187478
      34A     -3.187470    35A     -1.198604    36A     -1.097964
      37A     -1.068737    38A     -1.000211    39A     -0.980562
      40A     -0.853469    41A     -0.817497    42A     -0.719318
      43A     -0.670300    44A     -0.640266    45A     -0.594362
      46A     -0.590417    47A     -0.558389    48A     -0.519107
      49A     -0.495672    50A     -0.469110    51A     -0.431235
      52A     -0.427986    53A     -0.421983    54A     -0.358203
      55A     -0.343943

  @DF-RHF Final Energy: -5374.53238204490572

   => Energetics <=

    Nuclear Repulsion Energy =            764.2420880491295065
    One-Electron Energy =               -8997.7410440968178591
    Two-Electron Energy =                2858.9665740027830907
    Total Energy =                      -5374.5323820449048071
  Basis Set: (AUG-CC-PVTZ AUX)
    Blend: AUG-CC-PVTZ-RI
    Molecular point group: c1

    Geometry (in Angstrom), charge = 0, multiplicity = 1:

       Center              X                  Y                   Z               Mass
    ------------   -----------------  -----------------  -----------------  -----------------
         BR           2.842389078141    -0.547188390493     0.000043784907    78.918337600000
         BR          -2.840614921859    -0.547187390493    -0.000057215093    78.918337600000
         C            0.000887078141    -0.310416390493    -0.000003215093    12.000000000000
         C            1.178191478141     0.419831809507     0.000026584907    12.000000000000
         C           -1.193708921859     0.409783609507    -0.000014215093    12.000000000000
         C            1.215746078141     1.804740609507     0.000042784907    12.000000000000
         C           -1.213969921859     1.804741609507    -0.000000215093    12.000000000000
         C            0.000888078141     2.492426609507     0.000029784907    12.000000000000
         H            0.000887078141    -1.395613390493    -0.000016215093     1.007825032230
         H            2.161557078141     2.337698609507     0.000066784907     1.007825032230
         H           -2.159780921859     2.337699609507    -0.000010215093     1.007825032230
         H            0.000889078141     3.579563609507     0.000040784907     1.007825032230

  Basis Set: AUG-CC-PVTZ
    Blend: AUG-CC-PVTZ
  Basis Set: (AUG-CC-PVTZ AUX)
    Blend: AUG-CC-PVTZ-JKFIT
	 Reference Energy          =   -5374.5323820449057166 [Eh]
	 Singles Energy            =      -0.0000000000000000 [Eh]
	 Same-Spin Energy          =      -0.4435067810935580 [Eh]
	 Opposite-Spin Energy      =      -1.2069454587863673 [Eh]
	 Correlation Energy        =      -1.6504522398799253 [Eh]
	 Total Energy              =   -5376.1828342847857130 [Eh]

	 ================> DF-SCS-MP2 Energies <==================
	-----------------------------------------------------------
	 SCS Same-Spin Scale       =       0.3333333333333333 [-]
	 SCS Opposite-Spin Scale   =       1.2000000000000000 [-]
	 SCS Same-Spin Energy      =      -0.1478355936978527 [Eh]
	 SCS Opposite-Spin Energy  =      -1.4483345505436407 [Eh]
	 SCS Correlation Energy    =      -1.5961701442414933 [Eh]
	 SCS Total Energy          =   -5376.1285521891468306 [Eh]
	-----------------------------------------------------------

  Dipole Moment: [D]
     X:    -0.0910      Y:     1.6668      Z:     0.0000     Total:     1.6693

*** Psi4 exiting successfully. Buy a developer a beer!
