                               Psi4 1.3.2 release

  ==> Input File <==

--------------------------------------------------------------------------
#psi4
#
memory 32 gb

molecule  {
0 1
 Br       -2.8240318     0.6509204     0.0000425
 Br        2.8410110     0.6223260    -0.0000690
  C        0.0000010     0.3842340     0.0000060
  C       -1.1947360    -0.3356120     0.0000280
  C        1.1947310    -0.3356150     0.0000060
  C       -1.2149130    -1.7308340     0.0000450
  C        1.2148860    -1.7308340     0.0000120
  C       -0.0000170    -2.4179180     0.0000370
  H        0.0000090     1.4694240    -0.0000080
  H       -2.1604800    -2.2639390     0.0000780
  H        2.1604490    -2.2639450     0.0000000
  H       -0.0000260    -3.5052070     0.0000330
units angstrom
no_reorient  #important for SAPT in psi4, default
symmetry c1  #important for SAPT in psi4, default
}

set PROPERTIES_ORIGIN ["COM"]
properties('MP2/aug-cc-pvtz', properties = ['dipole'])
--------------------------------------------------------------------------

    Molecular point group: c1
  Charge       = 0
  Multiplicity = 1
  Basis Set: AUG-CC-PVTZ
    Blend: AUG-CC-PVTZ
  Basis Set: (AUG-CC-PVTZ AUX)
    Blend: AUG-CC-PVTZ-JKFIT

    Orbital Energies [Eh]
    ---------------------

    Doubly Occupied:

       1A   -490.034370     2A   -490.034278     3A    -65.174089
       4A    -65.173997     5A    -58.529416     6A    -58.529324
       7A    -58.528000     8A    -58.527973     9A    -58.527909
      10A    -58.527882    11A    -11.317699    12A    -11.317548
      13A    -11.271279    14A    -11.268461    15A    -11.266897
      16A    -11.266340    17A     -9.846817    18A     -9.846725
      19A     -7.458472    20A     -7.458378    21A     -7.451562
      22A     -7.451522    23A     -7.451472    24A     -7.451432
      25A     -3.202271    26A     -3.202176    27A     -3.198683
      28A     -3.198590    29A     -3.198473    30A     -3.198379
      31A     -3.189653    32A     -3.189646    33A     -3.189566
      34A     -3.189559    35A     -1.196189    36A     -1.098564
      37A     -1.069095    38A     -0.999308    39A     -0.980510
      40A     -0.851979    41A     -0.816768    42A     -0.717866
      43A     -0.668560    44A     -0.639773    45A     -0.592534
      46A     -0.590222    47A     -0.556744    48A     -0.519436
      49A     -0.498726    50A     -0.469975    51A     -0.431893
      52A     -0.428530    53A     -0.422383    54A     -0.356636
      55A     -0.342424

  @DF-RHF Final Energy: -5374.53235325627611

   => Energetics <=

    Nuclear Repulsion Energy =            764.7474443782529079
    One-Electron Energy =               -8998.7256813780568336
    Two-Electron Energy =                2859.4458837435286114
    Total Energy =                      -5374.5323532562761102
  Basis Set: (AUG-CC-PVTZ AUX)
    Blend: AUG-CC-PVTZ-RI
    Molecular point group: c1

    Geometry (in Angstrom), charge = 0, multiplicity = 1:

       Center              X                  Y                   Z               Mass
    ------------   -----------------  -----------------  -----------------  -----------------
         BR          -2.829758731446     0.565964290428     0.000044122839    78.918337600000
         BR           2.835284068554     0.537369890428    -0.000067377161    78.918337600000
         C           -0.005725931446     0.299277890428     0.000007622839    12.000000000000
         C           -1.200462931446    -0.420568109572     0.000029622839    12.000000000000
         C            1.189004068554    -0.420571109572     0.000007622839    12.000000000000
         C           -1.220639931446    -1.815790109572     0.000046622839    12.000000000000
         C            1.209159068554    -1.815790109572     0.000013622839    12.000000000000
         C           -0.005743931446    -2.502874109572     0.000038622839    12.000000000000
         H           -0.005717931446     1.384467890428    -0.000006377161     1.007825032230
         H           -2.166206931446    -2.348895109572     0.000079622839     1.007825032230
         H            2.154722068554    -2.348901109572     0.000001622839     1.007825032230
         H           -0.005752931446    -3.590163109572     0.000034622839     1.007825032230

  Basis Set: AUG-CC-PVTZ
    Blend: AUG-CC-PVTZ
  Basis Set: (AUG-CC-PVTZ AUX)
    Blend: AUG-CC-PVTZ-JKFIT
	 Reference Energy          =   -5374.5323532562761102 [Eh]
	 Singles Energy            =      -0.0000000000000000 [Eh]
	 Same-Spin Energy          =      -0.4436754085621141 [Eh]
	 Opposite-Spin Energy      =      -1.2072388714660243 [Eh]
	 Correlation Energy        =      -1.6509142800281382 [Eh]
	 Total Energy              =   -5376.1832675363039016 [Eh]

	 ================> DF-SCS-MP2 Energies <==================
	-----------------------------------------------------------
	 SCS Same-Spin Scale       =       0.3333333333333333 [-]
	 SCS Opposite-Spin Scale   =       1.2000000000000000 [-]
	 SCS Same-Spin Energy      =      -0.1478918028540380 [Eh]
	 SCS Opposite-Spin Energy  =      -1.4486866457592291 [Eh]
	 SCS Correlation Energy    =      -1.5965784486132670 [Eh]
	 SCS Total Energy          =   -5376.1289317048895100 [Eh]
	-----------------------------------------------------------

  Dipole Moment: [D]
     X:    -0.0065      Y:    -1.6250      Z:     0.0000     Total:     1.6250

*** Psi4 exiting successfully. Buy a developer a beer!
