                               Psi4 1.3.2 release

  ==> Input File <==

--------------------------------------------------------------------------
#psi4
#
memory 32 gb

molecule  {
0 1
 Br       -2.8410010     0.6223350     0.0000430
 Br        2.8410110     0.6223260    -0.0000690
  C        0.0000010     0.3842340     0.0000060
  C       -1.2191305    -0.2934778     0.0000276
  C        1.1947310    -0.3356150     0.0000060
  C       -1.2149130    -1.7308340     0.0000450
  C        1.2148860    -1.7308340     0.0000120
  C       -0.0000170    -2.4179180     0.0000370
  H        0.0000090     1.4694240    -0.0000080
  H       -2.1604800    -2.2639390     0.0000780
  H        2.1604490    -2.2639450     0.0000000
  H       -0.0000260    -3.5052070     0.0000330
units angstrom
no_reorient  #important for SAPT in psi4, default
symmetry c1  #important for SAPT in psi4, default
}

set PROPERTIES_ORIGIN ["COM"]
properties('MP2/aug-cc-pvtz', properties = ['dipole'])
--------------------------------------------------------------------------

    Molecular point group: c1
  Charge       = 0
  Multiplicity = 1
  Basis Set: AUG-CC-PVTZ
    Blend: AUG-CC-PVTZ
  Basis Set: (AUG-CC-PVTZ AUX)
    Blend: AUG-CC-PVTZ-JKFIT

    Orbital Energies [Eh]
    ---------------------

    Doubly Occupied:

       1A   -490.038218     2A   -490.033657     3A    -65.178114
       4A    -65.173364     5A    -58.533417     6A    -58.532025
       7A    -58.531992     8A    -58.528695     9A    -58.527276
      10A    -58.527250    11A    -11.318441    12A    -11.316325
      13A    -11.270081    14A    -11.269717    15A    -11.266643
      16A    -11.265440    17A     -9.851150    18A     -9.846084
      19A     -7.462919    20A     -7.457745    21A     -7.455915
      22A     -7.455842    23A     -7.450822    24A     -7.450790
      25A     -3.206774    26A     -3.203072    27A     -3.202805
      28A     -3.201549    29A     -3.197955    30A     -3.197749
      31A     -3.193970    32A     -3.193962    33A     -3.188912
      34A     -3.188904    35A     -1.191838    36A     -1.101111
      37A     -1.068917    38A     -1.001278    39A     -0.976861
      40A     -0.846173    41A     -0.818003    42A     -0.714650
      43A     -0.665117    44A     -0.638784    45A     -0.594957
      46A     -0.585236    47A     -0.553999    48A     -0.518537
      49A     -0.504465    50A     -0.472279    51A     -0.432273
      52A     -0.429667    53A     -0.423017    54A     -0.356499
      55A     -0.336684

  @DF-RHF Final Energy: -5374.52934139978424

   => Energetics <=

    Nuclear Repulsion Energy =            764.8648366774655187
    One-Electron Energy =               -8998.8925140346254921
    Two-Electron Energy =                2859.4983359573757298
    Total Energy =                      -5374.5293413997842435
  Basis Set: (AUG-CC-PVTZ AUX)
    Blend: AUG-CC-PVTZ-RI
    Molecular point group: c1

    Geometry (in Angstrom), charge = 0, multiplicity = 1:

       Center              X                  Y                   Z               Mass
    ------------   -----------------  -----------------  -----------------  -----------------
         BR          -2.839749998482     0.544863035469     0.000044474639    78.918337600000
         BR           2.842262001518     0.544854035469    -0.000067525361    78.918337600000
         C            0.001252001518     0.306762035469     0.000007474639    12.000000000000
         C           -1.217879498482    -0.370949764531     0.000029074639    12.000000000000
         C            1.195982001518    -0.413086964531     0.000007474639    12.000000000000
         C           -1.213661998482    -1.808305964531     0.000046474639    12.000000000000
         C            1.216137001518    -1.808305964531     0.000013474639    12.000000000000
         C            0.001234001518    -2.495389964531     0.000038474639    12.000000000000
         H            0.001260001518     1.391952035469    -0.000006525361     1.007825032230
         H           -2.159228998482    -2.341410964531     0.000079474639     1.007825032230
         H            2.161700001518    -2.341416964531     0.000001474639     1.007825032230
         H            0.001225001518    -3.582678964531     0.000034474639     1.007825032230

  Basis Set: AUG-CC-PVTZ
    Blend: AUG-CC-PVTZ
  Basis Set: (AUG-CC-PVTZ AUX)
    Blend: AUG-CC-PVTZ-JKFIT
	 Reference Energy          =   -5374.5293413997842435 [Eh]
	 Singles Energy            =      -0.0000000000000000 [Eh]
	 Same-Spin Energy          =      -0.4441045090357393 [Eh]
	 Opposite-Spin Energy      =      -1.2080686438493666 [Eh]
	 Correlation Energy        =      -1.6521731528851058 [Eh]
	 Total Energy              =   -5376.1815145526697961 [Eh]

	 ================> DF-SCS-MP2 Energies <==================
	-----------------------------------------------------------
	 SCS Same-Spin Scale       =       0.3333333333333333 [-]
	 SCS Opposite-Spin Scale   =       1.2000000000000000 [-]
	 SCS Same-Spin Energy      =      -0.1480348363452464 [Eh]
	 SCS Opposite-Spin Energy  =      -1.4496823726192398 [Eh]
	 SCS Correlation Energy    =      -1.5977172089644862 [Eh]
	 SCS Total Energy          =   -5376.1270586087484844 [Eh]
	-----------------------------------------------------------

  Dipole Moment: [D]
     X:    -0.1822      Y:    -1.5117      Z:     0.0000     Total:     1.5226

*** Psi4 exiting successfully. Buy a developer a beer!
