                               Psi4 1.4a3.dev225

  ==> Input File <==

--------------------------------------------------------------------------
#psi4
#
memory 32 gb

molecule  {
0 1
 Br        2.8415020    -0.6219390     0.0000430
 Br       -2.8415020    -0.6219380    -0.0000580
  C        0.0000000    -0.3851670    -0.0000040
  C        1.1517769     0.3092176     0.0000249
  C       -1.1945960     0.3350330    -0.0000150
  C        1.2148590     1.7299900     0.0000420
  C       -1.2148570     1.7299910    -0.0000010
  C        0.0000010     2.4176760     0.0000290
  H        0.0000000    -1.4703640    -0.0000170
  H        2.1606700     2.2629480     0.0000660
  H       -2.1606680     2.2629490    -0.0000110
  H        0.0000020     3.5048130     0.0000400
units angstrom
no_reorient  #important for SAPT in psi4, default
symmetry c1  #important for SAPT in psi4, default
}

set PROPERTIES_ORIGIN ["COM"]
properties('MP2/aug-cc-pvtz', properties = ['dipole'])
--------------------------------------------------------------------------

    Molecular point group: c1
  Charge       = 0
  Multiplicity = 1
  Basis Set: AUG-CC-PVTZ
    Blend: AUG-CC-PVTZ
  Basis Set: (AUG-CC-PVTZ AUX)
    Blend: AUG-CC-PVTZ-JKFIT

    Orbital Energies [Eh]
    ---------------------

    Doubly Occupied:

       1A   -490.035034     2A   -490.031906     3A    -65.174747
       4A    -65.171540     5A    -58.530075     6A    -58.528661
       7A    -58.528630     8A    -58.526877     9A    -58.525453
      10A    -58.525428    11A    -11.318707    12A    -11.316979
      13A    -11.270537    14A    -11.268344    15A    -11.266943
      16A    -11.266852    17A     -9.847471    18A     -9.844114
      19A     -7.459123    20A     -7.455702    21A     -7.452223
      22A     -7.452171    23A     -7.448856    24A     -7.448830
      25A     -3.202923    26A     -3.199466    27A     -3.199345
      28A     -3.199118    29A     -3.195946    30A     -3.195762
      31A     -3.190310    32A     -3.190302    33A     -3.186974
      34A     -3.186967    35A     -1.199877    36A     -1.095746
      37A     -1.070801    38A     -1.003737    39A     -0.977236
      40A     -0.849551    41A     -0.822176    42A     -0.719359
      43A     -0.670300    44A     -0.639926    45A     -0.597321
      46A     -0.589082    47A     -0.559411    48A     -0.516140
      49A     -0.496153    50A     -0.467983    51A     -0.431087
      52A     -0.427520    53A     -0.422178    54A     -0.363628
      55A     -0.340263

  @DF-RHF Final Energy: -5374.52991564919375

   => Energetics <=

    Nuclear Repulsion Energy =            764.4102758117609255
    One-Electron Energy =               -8998.0768068944962579
    Two-Electron Energy =                2859.1366154335414649
    Total Energy =                      -5374.5299156491946633
  Basis Set: (AUG-CC-PVTZ AUX)
    Blend: AUG-CC-PVTZ-RI
    Molecular point group: c1

    Geometry (in Angstrom), charge = 0, multiplicity = 1:

       Center              X                  Y                   Z               Mass
    ------------   -----------------  -----------------  -----------------  -----------------
         BR           2.843698919728    -0.545348193265     0.000043831087    78.918337600000
         BR          -2.839305080272    -0.545347193265    -0.000057168913    78.918337600000
         C            0.002196919728    -0.308576193265    -0.000003168913    12.000000000000
         C            1.153973819728     0.385808406735     0.000025731087    12.000000000000
         C           -1.192399080272     0.411623806735    -0.000014168913    12.000000000000
         C            1.217055919728     1.806580806735     0.000042831087    12.000000000000
         C           -1.212660080272     1.806581806735    -0.000000168913    12.000000000000
         C            0.002197919728     2.494266806735     0.000029831087    12.000000000000
         H            0.002196919728    -1.393773193265    -0.000016168913     1.007825032230
         H            2.162866919728     2.339538806735     0.000066831087     1.007825032230
         H           -2.158471080272     2.339539806735    -0.000010168913     1.007825032230
         H            0.002198919728     3.581403806735     0.000040831087     1.007825032230

  Basis Set: AUG-CC-PVTZ
    Blend: AUG-CC-PVTZ
  Basis Set: (AUG-CC-PVTZ AUX)
    Blend: AUG-CC-PVTZ-JKFIT
	 Reference Energy          =   -5374.5299156491937538 [Eh]
	 Singles Energy            =      -0.0000000000000000 [Eh]
	 Same-Spin Energy          =      -0.4433717024663363 [Eh]
	 Opposite-Spin Energy      =      -1.2069822509041970 [Eh]
	 Correlation Energy        =      -1.6503539533705334 [Eh]
	 Total Energy              =   -5376.1802696025642945 [Eh]

	 ================> DF-SCS-MP2 Energies <==================
	-----------------------------------------------------------
	 SCS Same-Spin Scale       =       0.3333333333333333 [-]
	 SCS Opposite-Spin Scale   =       1.2000000000000000 [-]
	 SCS Same-Spin Energy      =      -0.1477905674887788 [Eh]
	 SCS Opposite-Spin Energy  =      -1.4483787010850364 [Eh]
	 SCS Correlation Energy    =      -1.5961692685738151 [Eh]
	 SCS Total Energy          =   -5376.1260849177679120 [Eh]
	-----------------------------------------------------------

  Dipole Moment: [D]
     X:    -0.1219      Y:     1.6670      Z:     0.0000     Total:     1.6715

*** Psi4 exiting successfully. Buy a developer a beer!
