                               Psi4 1.3.2 release

  ==> Input File <==

--------------------------------------------------------------------------
#psi4
#
memory 32 gb

molecule  {
0 1
 Br       -2.8410010     0.6223350     0.0000430
 Br        2.8410110     0.6223260    -0.0000690
  C        0.0000010     0.3842340     0.0000060
  C       -1.1416118    -0.4171991     0.0000288
  C        1.1947310    -0.3356150     0.0000060
  C       -1.2149130    -1.7308340     0.0000450
  C        1.2148860    -1.7308340     0.0000120
  C       -0.0000170    -2.4179180     0.0000370
  H        0.0000090     1.4694240    -0.0000080
  H       -2.1604800    -2.2639390     0.0000780
  H        2.1604490    -2.2639450     0.0000000
  H       -0.0000260    -3.5052070     0.0000330
units angstrom
no_reorient  #important for SAPT in psi4, default
symmetry c1  #important for SAPT in psi4, default
}

set PROPERTIES_ORIGIN ["COM"]
properties('MP2/aug-cc-pvtz', properties = ['dipole'])
--------------------------------------------------------------------------

    Molecular point group: c1
  Charge       = 0
  Multiplicity = 1
  Basis Set: AUG-CC-PVTZ
    Blend: AUG-CC-PVTZ
  Basis Set: (AUG-CC-PVTZ AUX)
    Blend: AUG-CC-PVTZ-JKFIT

    Orbital Energies [Eh]
    ---------------------

    Doubly Occupied:

       1A   -490.036148     2A   -490.024852     3A    -65.175883
       4A    -65.164347     5A    -58.531205     6A    -58.529796
       7A    -58.529764     8A    -58.519688     9A    -58.518268
      10A    -58.518249    11A    -11.321081    12A    -11.317340
      13A    -11.275613    14A    -11.272068    15A    -11.268401
      16A    -11.260907    17A     -9.848622    18A     -9.836633
      19A     -7.460266    20A     -7.453381    21A     -7.453325
      22A     -7.448036    23A     -7.441407    24A     -7.441398
      25A     -3.204057    26A     -3.200482    27A     -3.200260
      28A     -3.191690    29A     -3.191476    30A     -3.191468
      31A     -3.188354    32A     -3.188231    33A     -3.179621
      34A     -3.179613    35A     -1.207735    36A     -1.101618
      37A     -1.065725    38A     -0.999826    39A     -0.982639
      40A     -0.862930    41A     -0.814746    42A     -0.725127
      43A     -0.677078    44A     -0.642776    45A     -0.602787
      46A     -0.588971    47A     -0.564594    48A     -0.522565
      49A     -0.479692    50A     -0.468806    51A     -0.428381
      52A     -0.427796    53A     -0.417475    54A     -0.358100
      55A     -0.353637

  @DF-RHF Final Energy: -5374.52425689453685

   => Energetics <=

    Nuclear Repulsion Energy =            763.6598095253157226
    One-Electron Energy =               -8996.6582675068093522
    Two-Electron Energy =                2858.4742010869563273
    Total Energy =                      -5374.5242568945377570
  Basis Set: (AUG-CC-PVTZ AUX)
    Blend: AUG-CC-PVTZ-RI
    Molecular point group: c1

    Geometry (in Angstrom), charge = 0, multiplicity = 1:

       Center              X                  Y                   Z               Mass
    ------------   -----------------  -----------------  -----------------  -----------------
         BR          -2.843727560603     0.551211299261     0.000044413066    78.918337600000
         BR           2.838284439397     0.551202299261    -0.000067586934    78.918337600000
         C           -0.002725560603     0.313110299261     0.000007413066    12.000000000000
         C           -1.144338360603    -0.488322800739     0.000030213066    12.000000000000
         C            1.192004439397    -0.406738700739     0.000007413066    12.000000000000
         C           -1.217639560603    -1.801957700739     0.000046413066    12.000000000000
         C            1.212159439397    -1.801957700739     0.000013413066    12.000000000000
         C           -0.002743560603    -2.489041700739     0.000038413066    12.000000000000
         H           -0.002717560603     1.398300299261    -0.000006586934     1.007825032230
         H           -2.163206560603    -2.335062700739     0.000079413066     1.007825032230
         H            2.157722439397    -2.335068700739     0.000001413066     1.007825032230
         H           -0.002752560603    -3.576330700739     0.000034413066     1.007825032230

  Basis Set: AUG-CC-PVTZ
    Blend: AUG-CC-PVTZ
  Basis Set: (AUG-CC-PVTZ AUX)
    Blend: AUG-CC-PVTZ-JKFIT
	 Reference Energy          =   -5374.5242568945368475 [Eh]
	 Singles Energy            =      -0.0000000000000000 [Eh]
	 Same-Spin Energy          =      -0.4431217938759060 [Eh]
	 Opposite-Spin Energy      =      -1.2063548075092174 [Eh]
	 Correlation Energy        =      -1.6494766013851234 [Eh]
	 Total Energy              =   -5376.1737334959216241 [Eh]

	 ================> DF-SCS-MP2 Energies <==================
	-----------------------------------------------------------
	 SCS Same-Spin Scale       =       0.3333333333333333 [-]
	 SCS Opposite-Spin Scale   =       1.2000000000000000 [-]
	 SCS Same-Spin Energy      =      -0.1477072646253020 [Eh]
	 SCS Opposite-Spin Energy  =      -1.4476257690110608 [Eh]
	 SCS Correlation Energy    =      -1.5953330336363627 [Eh]
	 SCS Total Energy          =   -5376.1195899281728998 [Eh]
	-----------------------------------------------------------

  Dipole Moment: [D]
     X:     0.4010      Y:    -1.8606      Z:     0.0000     Total:     1.9033

*** Psi4 exiting successfully. Buy a developer a beer!
