                               Psi4 1.3.2 release

  ==> Input File <==

--------------------------------------------------------------------------
#psi4
#
memory 32 gb

molecule  {
0 1
 Br       -2.8065663     0.6792053     0.0000421
 Br        2.8410110     0.6223260    -0.0000690
  C        0.0000010     0.3842340     0.0000060
  C       -1.1947360    -0.3356120     0.0000280
  C        1.1947310    -0.3356150     0.0000060
  C       -1.2149130    -1.7308340     0.0000450
  C        1.2148860    -1.7308340     0.0000120
  C       -0.0000170    -2.4179180     0.0000370
  H        0.0000090     1.4694240    -0.0000080
  H       -2.1604800    -2.2639390     0.0000780
  H        2.1604490    -2.2639450     0.0000000
  H       -0.0000260    -3.5052070     0.0000330
units angstrom
no_reorient  #important for SAPT in psi4, default
symmetry c1  #important for SAPT in psi4, default
}

set PROPERTIES_ORIGIN ["COM"]
properties('MP2/aug-cc-pvtz', properties = ['dipole'])
--------------------------------------------------------------------------

    Molecular point group: c1
  Charge       = 0
  Multiplicity = 1
  Basis Set: AUG-CC-PVTZ
    Blend: AUG-CC-PVTZ
  Basis Set: (AUG-CC-PVTZ AUX)
    Blend: AUG-CC-PVTZ-JKFIT

    Orbital Energies [Eh]
    ---------------------

    Doubly Occupied:

       1A   -490.034366     2A   -490.034185     3A    -65.174086
       4A    -65.173905     5A    -58.529414     6A    -58.529231
       7A    -58.527997     8A    -58.527969     9A    -58.527817
      10A    -58.527790    11A    -11.317708    12A    -11.317404
      13A    -11.270945    14A    -11.268645    15A    -11.267175
      16A    -11.266410    17A     -9.846816    18A     -9.846633
      19A     -7.458473    20A     -7.458285    21A     -7.451560
      22A     -7.451520    23A     -7.451383    24A     -7.451342
      25A     -3.202273    26A     -3.202082    27A     -3.198685
      28A     -3.198498    29A     -3.198473    30A     -3.198286
      31A     -3.189650    32A     -3.189642    33A     -3.189478
      34A     -3.189470    35A     -1.196210    36A     -1.098407
      37A     -1.069444    38A     -0.998764    39A     -0.980832
      40A     -0.852109    41A     -0.816671    42A     -0.717876
      43A     -0.668581    44A     -0.639861    45A     -0.592303
      46A     -0.590317    47A     -0.556746    48A     -0.519696
      49A     -0.498540    50A     -0.469881    51A     -0.432023
      52A     -0.428536    53A     -0.422230    54A     -0.356414
      55A     -0.342568

  @DF-RHF Final Energy: -5374.53215298149007

   => Energetics <=

    Nuclear Repulsion Energy =            765.1192421720326138
    One-Electron Energy =               -8999.4715806339863775
    Two-Electron Energy =                2859.8201854804633513
    Total Energy =                      -5374.5321529814900714
  Basis Set: (AUG-CC-PVTZ AUX)
    Blend: AUG-CC-PVTZ-RI
    Molecular point group: c1

    Geometry (in Angstrom), charge = 0, multiplicity = 1:

       Center              X                  Y                   Z               Mass
    ------------   -----------------  -----------------  -----------------  -----------------
         BR          -2.818186933752     0.584704500592     0.000043857818    78.918337600000
         BR           2.829390366248     0.527825200592    -0.000067242182    78.918337600000
         C           -0.011619633752     0.289733200592     0.000007757818    12.000000000000
         C           -1.206356633752    -0.430112799408     0.000029757818    12.000000000000
         C            1.183110366248    -0.430115799408     0.000007757818    12.000000000000
         C           -1.226533633752    -1.825334799408     0.000046757818    12.000000000000
         C            1.203265366248    -1.825334799408     0.000013757818    12.000000000000
         C           -0.011637633752    -2.512418799408     0.000038757818    12.000000000000
         H           -0.011611633752     1.374923200592    -0.000006242182     1.007825032230
         H           -2.172100633752    -2.358439799408     0.000079757818     1.007825032230
         H            2.148828366248    -2.358445799408     0.000001757818     1.007825032230
         H           -0.011646633752    -3.599707799408     0.000034757818     1.007825032230

  Basis Set: AUG-CC-PVTZ
    Blend: AUG-CC-PVTZ
  Basis Set: (AUG-CC-PVTZ AUX)
    Blend: AUG-CC-PVTZ-JKFIT
	 Reference Energy          =   -5374.5321529814900714 [Eh]
	 Singles Energy            =      -0.0000000000000000 [Eh]
	 Same-Spin Energy          =      -0.4436906268755004 [Eh]
	 Opposite-Spin Energy      =      -1.2072577909681228 [Eh]
	 Correlation Energy        =      -1.6509484178436233 [Eh]
	 Total Energy              =   -5376.1831013993332817 [Eh]

	 ================> DF-SCS-MP2 Energies <==================
	-----------------------------------------------------------
	 SCS Same-Spin Scale       =       0.3333333333333333 [-]
	 SCS Opposite-Spin Scale   =       1.2000000000000000 [-]
	 SCS Same-Spin Energy      =      -0.1478968756251668 [Eh]
	 SCS Opposite-Spin Energy  =      -1.4487093491617473 [Eh]
	 SCS Correlation Energy    =      -1.5966062247869142 [Eh]
	 SCS Total Energy          =   -5376.1287592062772092 [Eh]
	-----------------------------------------------------------

  Dipole Moment: [D]
     X:    -0.0127      Y:    -1.6332      Z:     0.0000     Total:     1.6332

*** Psi4 exiting successfully. Buy a developer a beer!
