                               Psi4 1.3.2 release

  ==> Input File <==

--------------------------------------------------------------------------
#psi4
#
memory 32 gb

molecule  {
0 1
 Br       -2.8410010     0.6223350     0.0000430
 Br        2.8410110     0.6223260    -0.0000690
  C        0.0123821     0.3632733     0.0000061
  C       -1.1947360    -0.3356120     0.0000280
  C        1.1947310    -0.3356150     0.0000060
  C       -1.2149130    -1.7308340     0.0000450
  C        1.2148860    -1.7308340     0.0000120
  C       -0.0000170    -2.4179180     0.0000370
  H        0.0000090     1.4694240    -0.0000080
  H       -2.1604800    -2.2639390     0.0000780
  H        2.1604490    -2.2639450     0.0000000
  H       -0.0000260    -3.5052070     0.0000330
units angstrom
no_reorient  #important for SAPT in psi4, default
symmetry c1  #important for SAPT in psi4, default
}

set PROPERTIES_ORIGIN ["COM"]
properties('MP2/aug-cc-pvtz', properties = ['dipole'])
--------------------------------------------------------------------------

    Molecular point group: c1
  Charge       = 0
  Multiplicity = 1
  Basis Set: AUG-CC-PVTZ
    Blend: AUG-CC-PVTZ
  Basis Set: (AUG-CC-PVTZ AUX)
    Blend: AUG-CC-PVTZ-JKFIT

    Orbital Energies [Eh]
    ---------------------

    Doubly Occupied:

       1A   -490.035293     2A   -490.034409     3A    -65.174979
       4A    -65.174123     5A    -58.530315     6A    -58.529454
       7A    -58.528889     8A    -58.528862     9A    -58.528032
      10A    -58.528006    11A    -11.317074    12A    -11.314936
      13A    -11.270483    14A    -11.267705    15A    -11.266518
      16A    -11.265892    17A     -9.847677    18A     -9.846844
      19A     -7.459348    20A     -7.458511    21A     -7.452406
      22A     -7.452365    23A     -7.451579    24A     -7.451543
      25A     -3.203163    26A     -3.202315    27A     -3.199558
      28A     -3.199347    29A     -3.198716    30A     -3.198508
      31A     -3.190480    32A     -3.190473    33A     -3.189662
      34A     -3.189655    35A     -1.198088    36A     -1.099368
      37A     -1.068481    38A     -1.001068    39A     -0.980324
      40A     -0.850054    41A     -0.819793    42A     -0.716009
      43A     -0.669658    44A     -0.635881    45A     -0.591749
      46A     -0.589883    47A     -0.558219    48A     -0.516313
      49A     -0.500842    50A     -0.470345    51A     -0.431916
      52A     -0.428697    53A     -0.423212    54A     -0.358131
      55A     -0.342302

  @DF-RHF Final Energy: -5374.53191389926633

   => Energetics <=

    Nuclear Repulsion Energy =            764.6938313477875226
    One-Electron Energy =               -8998.5965789777710597
    Two-Electron Energy =                2859.3708337307170950
    Total Energy =                      -5374.5319138992663284
  Basis Set: (AUG-CC-PVTZ AUX)
    Blend: AUG-CC-PVTZ-RI
    Molecular point group: c1

    Geometry (in Angstrom), charge = 0, multiplicity = 1:

       Center              X                  Y                   Z               Mass
    ------------   -----------------  -----------------  -----------------  -----------------
         BR          -2.841636991343     0.548100497968     0.000044448983    78.918337600000
         BR           2.840375008657     0.548091497968    -0.000067551017    78.918337600000
         C            0.011746108657     0.289038797968     0.000007548983    12.000000000000
         C           -1.195371991343    -0.409846502032     0.000029448983    12.000000000000
         C            1.194095008657    -0.409849502032     0.000007448983    12.000000000000
         C           -1.215548991343    -1.805068502032     0.000046448983    12.000000000000
         C            1.214250008657    -1.805068502032     0.000013448983    12.000000000000
         C           -0.000652991343    -2.492152502032     0.000038448983    12.000000000000
         H           -0.000626991343     1.395189497968    -0.000006551017     1.007825032230
         H           -2.161115991343    -2.338173502032     0.000079448983     1.007825032230
         H            2.159813008657    -2.338179502032     0.000001448983     1.007825032230
         H           -0.000661991343    -3.579441502032     0.000034448983     1.007825032230

  Basis Set: AUG-CC-PVTZ
    Blend: AUG-CC-PVTZ
  Basis Set: (AUG-CC-PVTZ AUX)
    Blend: AUG-CC-PVTZ-JKFIT
	 Reference Energy          =   -5374.5319138992663284 [Eh]
	 Singles Energy            =      -0.0000000000000000 [Eh]
	 Same-Spin Energy          =      -0.4436650037954589 [Eh]
	 Opposite-Spin Energy      =      -1.2071714072761792 [Eh]
	 Correlation Energy        =      -1.6508364110716380 [Eh]
	 Total Energy              =   -5376.1827503103377239 [Eh]

	 ================> DF-SCS-MP2 Energies <==================
	-----------------------------------------------------------
	 SCS Same-Spin Scale       =       0.3333333333333333 [-]
	 SCS Opposite-Spin Scale   =       1.2000000000000000 [-]
	 SCS Same-Spin Energy      =      -0.1478883345984863 [Eh]
	 SCS Opposite-Spin Energy  =      -1.4486056887314149 [Eh]
	 SCS Correlation Energy    =      -1.5964940233299012 [Eh]
	 SCS Total Energy          =   -5376.1284079225961250 [Eh]
	-----------------------------------------------------------

  Dipole Moment: [D]
     X:    -0.0321      Y:    -1.6035      Z:     0.0000     Total:     1.6038

*** Psi4 exiting successfully. Buy a developer a beer!
