                               Psi4 1.3.2 release

  ==> Input File <==

--------------------------------------------------------------------------
#psi4
#
memory 32 gb

molecule  {
0 1
 Br       -2.8410010     0.6223350     0.0000430
 Br        2.8410110     0.6223260    -0.0000690
  C        0.0000010     0.3842340     0.0000060
  C       -1.1129467    -0.4565526     0.0000287
  C        1.1947310    -0.3356150     0.0000060
  C       -1.2149130    -1.7308340     0.0000450
  C        1.2148860    -1.7308340     0.0000120
  C       -0.0000170    -2.4179180     0.0000370
  H        0.0000090     1.4694240    -0.0000080
  H       -2.1604800    -2.2639390     0.0000780
  H        2.1604490    -2.2639450     0.0000000
  H       -0.0000260    -3.5052070     0.0000330
units angstrom
no_reorient  #important for SAPT in psi4, default
symmetry c1  #important for SAPT in psi4, default
}

set PROPERTIES_ORIGIN ["COM"]
properties('MP2/aug-cc-pvtz', properties = ['dipole'])
--------------------------------------------------------------------------

    Molecular point group: c1
  Charge       = 0
  Multiplicity = 1
  Basis Set: AUG-CC-PVTZ
    Blend: AUG-CC-PVTZ
  Basis Set: (AUG-CC-PVTZ AUX)
    Blend: AUG-CC-PVTZ-JKFIT

    Orbital Energies [Eh]
    ---------------------

    Doubly Occupied:

       1A   -490.037275     2A   -490.018921     3A    -65.177018
       4A    -65.158375     5A    -58.532339     6A    -58.530931
       7A    -58.530897     8A    -58.513702     9A    -58.512305
      10A    -58.512288    11A    -11.323185    12A    -11.317981
      13A    -11.278191    14A    -11.274700    15A    -11.269689
      16A    -11.258483    17A     -9.849763    18A     -9.830527
      19A     -7.461403    20A     -7.454526    21A     -7.454461
      22A     -7.441784    23A     -7.435362    24A     -7.435337
      25A     -3.205192    26A     -3.201621    27A     -3.201392
      28A     -3.192619    29A     -3.192611    30A     -3.185343
      31A     -3.182152    32A     -3.182061    33A     -3.173660
      34A     -3.173653    35A     -1.215117    36A     -1.105930
      37A     -1.063957    38A     -1.002680    39A     -0.980097
      40A     -0.868236    41A     -0.813923    42A     -0.729260
      43A     -0.682277    44A     -0.644869    45A     -0.608761
      46A     -0.588790    47A     -0.569862    48A     -0.524413
      49A     -0.469921    50A     -0.467803    51A     -0.428069
      52A     -0.425382    53A     -0.413180    54A     -0.359343
      55A     -0.358941

  @DF-RHF Final Energy: -5374.51270348698836

   => Energetics <=

    Nuclear Repulsion Energy =            763.3795555768944041
    One-Electron Energy =               -8996.1433979630637623
    Two-Electron Energy =                2858.2511388991811145
    Total Energy =                      -5374.5127034869892668
  Basis Set: (AUG-CC-PVTZ AUX)
    Blend: AUG-CC-PVTZ-RI
    Molecular point group: c1

    Geometry (in Angstrom), charge = 0, multiplicity = 1:

       Center              X                  Y                   Z               Mass
    ------------   -----------------  -----------------  -----------------  -----------------
         BR          -2.845198395588     0.553230566753     0.000044418197    78.918337600000
         BR           2.836813604412     0.553221566753    -0.000067581803    78.918337600000
         C           -0.004196395588     0.315129566753     0.000007418197    12.000000000000
         C           -1.117144095588    -0.525657033247     0.000030118197    12.000000000000
         C            1.190533604412    -0.404719433247     0.000007418197    12.000000000000
         C           -1.219110395588    -1.799938433247     0.000046418197    12.000000000000
         C            1.210688604412    -1.799938433247     0.000013418197    12.000000000000
         C           -0.004214395588    -2.487022433247     0.000038418197    12.000000000000
         H           -0.004188395588     1.400319566753    -0.000006581803     1.007825032230
         H           -2.164677395588    -2.333043433247     0.000079418197     1.007825032230
         H            2.156251604412    -2.333049433247     0.000001418197     1.007825032230
         H           -0.004223395588    -3.574311433247     0.000034418197     1.007825032230

  Basis Set: AUG-CC-PVTZ
    Blend: AUG-CC-PVTZ
  Basis Set: (AUG-CC-PVTZ AUX)
    Blend: AUG-CC-PVTZ-JKFIT
	 Reference Energy          =   -5374.5127034869883573 [Eh]
	 Singles Energy            =      -0.0000000000000000 [Eh]
	 Same-Spin Energy          =      -0.4430091948326479 [Eh]
	 Opposite-Spin Energy      =      -1.2062279665702937 [Eh]
	 Correlation Energy        =      -1.6492371614029415 [Eh]
	 Total Energy              =   -5376.1619406483914645 [Eh]

	 ================> DF-SCS-MP2 Energies <==================
	-----------------------------------------------------------
	 SCS Same-Spin Scale       =       0.3333333333333333 [-]
	 SCS Opposite-Spin Scale   =       1.2000000000000000 [-]
	 SCS Same-Spin Energy      =      -0.1476697316108826 [Eh]
	 SCS Opposite-Spin Energy  =      -1.4474735598843524 [Eh]
	 SCS Correlation Energy    =      -1.5951432914952350 [Eh]
	 SCS Total Energy          =   -5376.1078467784836903 [Eh]
	-----------------------------------------------------------

  Dipole Moment: [D]
     X:     0.6277      Y:    -2.0042      Z:     0.0000     Total:     2.1003

*** Psi4 exiting successfully. Buy a developer a beer!
