                               Psi4 1.3.2 release

  ==> Input File <==

--------------------------------------------------------------------------
#psi4
#
memory 32 gb

molecule  {
0 1
 Br       -2.8410010     0.6223350     0.0000430
 Br        2.8410110     0.6223260    -0.0000690
  C       -0.0531232     0.4658211     0.0000056
  C       -1.1947360    -0.3356120     0.0000280
  C        1.1947310    -0.3356150     0.0000060
  C       -1.2149130    -1.7308340     0.0000450
  C        1.2148860    -1.7308340     0.0000120
  C       -0.0000170    -2.4179180     0.0000370
  H        0.0000090     1.4694240    -0.0000080
  H       -2.1604800    -2.2639390     0.0000780
  H        2.1604490    -2.2639450     0.0000000
  H       -0.0000260    -3.5052070     0.0000330
units angstrom
no_reorient  #important for SAPT in psi4, default
symmetry c1  #important for SAPT in psi4, default
}

set PROPERTIES_ORIGIN ["COM"]
properties('MP2/aug-cc-pvtz', properties = ['dipole'])
--------------------------------------------------------------------------

    Molecular point group: c1
  Charge       = 0
  Multiplicity = 1
  Basis Set: AUG-CC-PVTZ
    Blend: AUG-CC-PVTZ
  Basis Set: (AUG-CC-PVTZ AUX)
    Blend: AUG-CC-PVTZ-JKFIT

    Orbital Energies [Eh]
    ---------------------

    Doubly Occupied:

       1A   -490.034340     2A   -490.030684     3A    -65.174064
       4A    -65.170531     5A    -58.529380     6A    -58.527985
       7A    -58.527952     8A    -58.525826     9A    -58.524446
      10A    -58.524419    11A    -11.327746    12A    -11.320943
      13A    -11.276256    14A    -11.271180    15A    -11.267448
      16A    -11.267200    17A     -9.846806    18A     -9.843377
      19A     -7.458414    20A     -7.454970    21A     -7.451590
      22A     -7.451530    23A     -7.448182    24A     -7.448151
      25A     -3.202197    26A     -3.198704    27A     -3.198656
      28A     -3.198425    29A     -3.195180    30A     -3.194982
      31A     -3.189711    32A     -3.189703    33A     -3.186345
      34A     -3.186336    35A     -1.190025    36A     -1.097319
      37A     -1.069693    38A     -0.995380    39A     -0.979972
      40A     -0.860206    41A     -0.806354    42A     -0.727262
      43A     -0.666885    44A     -0.652456    45A     -0.595300
      46A     -0.591034    47A     -0.551936    48A     -0.527678
      49A     -0.489448    50A     -0.469365    51A     -0.431260
      52A     -0.427829    53A     -0.418845    54A     -0.354080
      55A     -0.340642

  @DF-RHF Final Energy: -5374.51863009702902

   => Energetics <=

    Nuclear Repulsion Energy =            763.3193427190157081
    One-Electron Energy =               -8995.9026933821351122
    Two-Electron Energy =                2858.0647205660898180
    Total Energy =                      -5374.5186300970290176
  Basis Set: (AUG-CC-PVTZ AUX)
    Blend: AUG-CC-PVTZ-RI
    Molecular point group: c1

    Geometry (in Angstrom), charge = 0, multiplicity = 1:

       Center              X                  Y                   Z               Mass
    ------------   -----------------  -----------------  -----------------  -----------------
         BR          -2.838275848806     0.542838667663     0.000044474639    78.918337600000
         BR           2.843736151194     0.542829667663    -0.000067525361    78.918337600000
         C           -0.050398048806     0.386324767663     0.000007074639    12.000000000000
         C           -1.192010848806    -0.415108332337     0.000029474639    12.000000000000
         C            1.197456151194    -0.415111332337     0.000007474639    12.000000000000
         C           -1.212187848806    -1.810330332337     0.000046474639    12.000000000000
         C            1.217611151194    -1.810330332337     0.000013474639    12.000000000000
         C            0.002708151194    -2.497414332337     0.000038474639    12.000000000000
         H            0.002734151194     1.389927667663    -0.000006525361     1.007825032230
         H           -2.157754848806    -2.343435332337     0.000079474639     1.007825032230
         H            2.163174151194    -2.343441332337     0.000001474639     1.007825032230
         H            0.002699151194    -3.584703332337     0.000034474639     1.007825032230

  Basis Set: AUG-CC-PVTZ
    Blend: AUG-CC-PVTZ
  Basis Set: (AUG-CC-PVTZ AUX)
    Blend: AUG-CC-PVTZ-JKFIT
	 Reference Energy          =   -5374.5186300970290176 [Eh]
	 Singles Energy            =      -0.0000000000000000 [Eh]
	 Same-Spin Energy          =      -0.4438732142288801 [Eh]
	 Opposite-Spin Energy      =      -1.2083887179084760 [Eh]
	 Correlation Energy        =      -1.6522619321373562 [Eh]
	 Total Energy              =   -5376.1708920291666800 [Eh]

	 ================> DF-SCS-MP2 Energies <==================
	-----------------------------------------------------------
	 SCS Same-Spin Scale       =       0.3333333333333333 [-]
	 SCS Opposite-Spin Scale   =       1.2000000000000000 [-]
	 SCS Same-Spin Energy      =      -0.1479577380762934 [Eh]
	 SCS Opposite-Spin Energy  =      -1.4500664614901713 [Eh]
	 SCS Correlation Energy    =      -1.5980241995664646 [Eh]
	 SCS Total Energy          =   -5376.1166542965956978 [Eh]
	-----------------------------------------------------------

  Dipole Moment: [D]
     X:     0.1229      Y:    -1.6829      Z:     0.0000     Total:     1.6874

*** Psi4 exiting successfully. Buy a developer a beer!
