                               Psi4 1.3.2 release

  ==> Input File <==

--------------------------------------------------------------------------
#psi4
#
memory 32 gb

molecule  {
0 1
 Br       -2.8410010     0.6223350     0.0000430
 Br        2.8410110     0.6223260    -0.0000690
  C        0.0000010     0.3842340     0.0000060
  C       -1.2803901    -0.3872198     0.0000296
  C        1.1947310    -0.3356150     0.0000060
  C       -1.2149130    -1.7308340     0.0000450
  C        1.2148860    -1.7308340     0.0000120
  C       -0.0000170    -2.4179180     0.0000370
  H        0.0000090     1.4694240    -0.0000080
  H       -2.1604800    -2.2639390     0.0000780
  H        2.1604490    -2.2639450     0.0000000
  H       -0.0000260    -3.5052070     0.0000330
units angstrom
no_reorient  #important for SAPT in psi4, default
symmetry c1  #important for SAPT in psi4, default
}

set PROPERTIES_ORIGIN ["COM"]
properties('MP2/aug-cc-pvtz', properties = ['dipole'])
--------------------------------------------------------------------------

    Molecular point group: c1
  Charge       = 0
  Multiplicity = 1
  Basis Set: AUG-CC-PVTZ
    Blend: AUG-CC-PVTZ
  Basis Set: (AUG-CC-PVTZ AUX)
    Blend: AUG-CC-PVTZ-JKFIT

    Orbital Energies [Eh]
    ---------------------

    Doubly Occupied:

       1A   -490.038884     2A   -490.033128     3A    -65.178787
       4A    -65.172850     5A    -58.534090     6A    -58.532696
       7A    -58.532662     8A    -58.528178     9A    -58.526760
      10A    -58.526737    11A    -11.317731    12A    -11.315744
      13A    -11.278996    14A    -11.267465    15A    -11.265828
      16A    -11.259218    17A     -9.851845    18A     -9.845581
      19A     -7.463630    20A     -7.457237    21A     -7.456602
      22A     -7.456528    23A     -7.450316    24A     -7.450299
      25A     -3.207498    26A     -3.203774    27A     -3.203508
      28A     -3.201033    29A     -3.197432    30A     -3.197251
      31A     -3.194646    32A     -3.194637    33A     -3.188420
      34A     -3.188412    35A     -1.191251    36A     -1.105835
      37A     -1.067184    38A     -0.991020    39A     -0.986104
      40A     -0.857568    41A     -0.804616    42A     -0.715375
      43A     -0.664640    44A     -0.640255    45A     -0.592906
      46A     -0.582222    47A     -0.553226    48A     -0.530499
      49A     -0.495256    50A     -0.475073    51A     -0.432836
      52A     -0.430612    53A     -0.421096    54A     -0.351053
      55A     -0.341264

  @DF-RHF Final Energy: -5374.52185572208873

   => Energetics <=

    Nuclear Repulsion Energy =            764.4389183872590365
    One-Electron Energy =               -8998.0249662281094061
    Two-Electron Energy =                2859.0641921187616390
    Total Energy =                      -5374.5218557220887305
  Basis Set: (AUG-CC-PVTZ AUX)
    Blend: AUG-CC-PVTZ-RI
    Molecular point group: c1

    Geometry (in Angstrom), charge = 0, multiplicity = 1:

       Center              X                  Y                   Z               Mass
    ------------   -----------------  -----------------  -----------------  -----------------
         BR          -2.836606707063     0.549673031358     0.000044372017    78.918337600000
         BR           2.845405292937     0.549664031358    -0.000067627983    78.918337600000
         C            0.004395292937     0.311572031358     0.000007372017    12.000000000000
         C           -1.275995807063    -0.459881768642     0.000030972017    12.000000000000
         C            1.199125292937    -0.408276968642     0.000007372017    12.000000000000
         C           -1.210518707063    -1.803495968642     0.000046372017    12.000000000000
         C            1.219280292937    -1.803495968642     0.000013372017    12.000000000000
         C            0.004377292937    -2.490579968642     0.000038372017    12.000000000000
         H            0.004403292937     1.396762031358    -0.000006627983     1.007825032230
         H           -2.156085707063    -2.336600968642     0.000079372017     1.007825032230
         H            2.164843292937    -2.336606968642     0.000001372017     1.007825032230
         H            0.004368292937    -3.577868968642     0.000034372017     1.007825032230

  Basis Set: AUG-CC-PVTZ
    Blend: AUG-CC-PVTZ
  Basis Set: (AUG-CC-PVTZ AUX)
    Blend: AUG-CC-PVTZ-JKFIT
	 Reference Energy          =   -5374.5218557220887305 [Eh]
	 Singles Energy            =      -0.0000000000000000 [Eh]
	 Same-Spin Energy          =      -0.4438810355967936 [Eh]
	 Opposite-Spin Energy      =      -1.2084040661750604 [Eh]
	 Correlation Energy        =      -1.6522851017718541 [Eh]
	 Total Energy              =   -5376.1741408238603981 [Eh]

	 ================> DF-SCS-MP2 Energies <==================
	-----------------------------------------------------------
	 SCS Same-Spin Scale       =       0.3333333333333333 [-]
	 SCS Opposite-Spin Scale   =       1.2000000000000000 [-]
	 SCS Same-Spin Energy      =      -0.1479603451989312 [Eh]
	 SCS Opposite-Spin Energy  =      -1.4500848794100725 [Eh]
	 SCS Correlation Energy    =      -1.5980452246090038 [Eh]
	 SCS Total Energy          =   -5376.1199009466981806 [Eh]
	-----------------------------------------------------------

  Dipole Moment: [D]
     X:    -0.2247      Y:    -1.5123      Z:     0.0000     Total:     1.5289

*** Psi4 exiting successfully. Buy a developer a beer!
