                               Psi4 1.3.2 release

  ==> Input File <==

--------------------------------------------------------------------------
#psi4
#
memory 32 gb

molecule  {
0 1
 Br       -2.8410010     0.6223350     0.0000430
 Br        2.8410110     0.6223260    -0.0000690
  C        0.0000010     0.3842340     0.0000060
  C       -1.3660443    -0.4388277     0.0000312
  C        1.1947310    -0.3356150     0.0000060
  C       -1.2149130    -1.7308340     0.0000450
  C        1.2148860    -1.7308340     0.0000120
  C       -0.0000170    -2.4179180     0.0000370
  H        0.0000090     1.4694240    -0.0000080
  H       -2.1604800    -2.2639390     0.0000780
  H        2.1604490    -2.2639450     0.0000000
  H       -0.0000260    -3.5052070     0.0000330
units angstrom
no_reorient  #important for SAPT in psi4, default
symmetry c1  #important for SAPT in psi4, default
}

set PROPERTIES_ORIGIN ["COM"]
properties('MP2/aug-cc-pvtz', properties = ['dipole'])
--------------------------------------------------------------------------

    Molecular point group: c1
  Charge       = 0
  Multiplicity = 1
  Basis Set: AUG-CC-PVTZ
    Blend: AUG-CC-PVTZ
  Basis Set: (AUG-CC-PVTZ AUX)
    Blend: AUG-CC-PVTZ-JKFIT

    Orbital Energies [Eh]
    ---------------------

    Doubly Occupied:

       1A   -490.043248     2A   -490.031863     3A    -65.183346
       4A    -65.171590     5A    -58.538621     6A    -58.537247
       7A    -58.537206     8A    -58.526915     9A    -58.525497
      10A    -58.525479    11A    -11.316887    12A    -11.313710
      13A    -11.283453    14A    -11.266847    15A    -11.265555
      16A    -11.252466    17A     -9.856755    18A     -9.844323
      19A     -7.468683    20A     -7.461509    21A     -7.461398
      22A     -7.455976    23A     -7.449053    24A     -7.449051
      25A     -3.212627    26A     -3.208747    27A     -3.208433
      28A     -3.199767    29A     -3.199499    30A     -3.199489
      31A     -3.196159    32A     -3.196002    33A     -3.187169
      34A     -3.187161    35A     -1.188747    36A     -1.113235
      37A     -1.067933    38A     -0.993706    39A     -0.981359
      40A     -0.863030    41A     -0.792726    42A     -0.713437
      43A     -0.660868    44A     -0.642114    45A     -0.595505
      46A     -0.572010    47A     -0.551689    48A     -0.540980
      49A     -0.487751    50A     -0.480505    51A     -0.433735
      52A     -0.430757    53A     -0.417395    54A     -0.355372
      55A     -0.333127

  @DF-RHF Final Energy: -5374.49518910355891

   => Energetics <=

    Nuclear Repulsion Energy =            764.5219902783690031
    One-Electron Energy =               -8998.0789366129192786
    Two-Electron Energy =                2859.0617572309924981
    Total Energy =                      -5374.4951891035580047
  Basis Set: (AUG-CC-PVTZ AUX)
    Blend: AUG-CC-PVTZ-RI
    Molecular point group: c1

    Geometry (in Angstrom), charge = 0, multiplicity = 1:

       Center              X                  Y                   Z               Mass
    ------------   -----------------  -----------------  -----------------  -----------------
         BR          -2.832211704290     0.552321084385     0.000044289919    78.918337600000
         BR           2.849800295710     0.552312084385    -0.000067710081    78.918337600000
         C            0.008790295710     0.314220084385     0.000007289919    12.000000000000
         C           -1.357255004290    -0.508841615615     0.000032489919    12.000000000000
         C            1.203520295710    -0.405628915615     0.000007289919    12.000000000000
         C           -1.206123704290    -1.800847915615     0.000046289919    12.000000000000
         C            1.223675295710    -1.800847915615     0.000013289919    12.000000000000
         C            0.008772295710    -2.487931915615     0.000038289919    12.000000000000
         H            0.008798295710     1.399410084385    -0.000006710081     1.007825032230
         H           -2.151690704290    -2.333952915615     0.000079289919     1.007825032230
         H            2.169238295710    -2.333958915615     0.000001289919     1.007825032230
         H            0.008763295710    -3.575220915615     0.000034289919     1.007825032230

  Basis Set: AUG-CC-PVTZ
    Blend: AUG-CC-PVTZ
  Basis Set: (AUG-CC-PVTZ AUX)
    Blend: AUG-CC-PVTZ-JKFIT
	 Reference Energy          =   -5374.4951891035589142 [Eh]
	 Singles Energy            =      -0.0000000000000000 [Eh]
	 Same-Spin Energy          =      -0.4438672719159329 [Eh]
	 Opposite-Spin Energy      =      -1.2103915649445569 [Eh]
	 Correlation Energy        =      -1.6542588368604898 [Eh]
	 Total Energy              =   -5376.1494479404191225 [Eh]

	 ================> DF-SCS-MP2 Energies <==================
	-----------------------------------------------------------
	 SCS Same-Spin Scale       =       0.3333333333333333 [-]
	 SCS Opposite-Spin Scale   =       1.2000000000000000 [-]
	 SCS Same-Spin Energy      =      -0.1479557573053110 [Eh]
	 SCS Opposite-Spin Energy  =      -1.4524698779334682 [Eh]
	 SCS Correlation Energy    =      -1.6004256352387791 [Eh]
	 SCS Total Energy          =   -5376.0956147387978490 [Eh]
	-----------------------------------------------------------

  Dipole Moment: [D]
     X:    -0.4413      Y:    -1.4057      Z:     0.0000     Total:     1.4733

*** Psi4 exiting successfully. Buy a developer a beer!
