                               Psi4 1.3.2 release

  ==> Input File <==

--------------------------------------------------------------------------
#psi4
#
memory 32 gb

molecule  {
0 1
 Br       -2.8410010     0.6223350     0.0000430
 Br        2.8410110     0.6223260    -0.0000690
  C       -0.0258491     0.4254912     0.0000058
  C       -1.1947360    -0.3356120     0.0000280
  C        1.1947310    -0.3356150     0.0000060
  C       -1.2149130    -1.7308340     0.0000450
  C        1.2148860    -1.7308340     0.0000120
  C       -0.0000170    -2.4179180     0.0000370
  H        0.0000090     1.4694240    -0.0000080
  H       -2.1604800    -2.2639390     0.0000780
  H        2.1604490    -2.2639450     0.0000000
  H       -0.0000260    -3.5052070     0.0000330
units angstrom
no_reorient  #important for SAPT in psi4, default
symmetry c1  #important for SAPT in psi4, default
}

set PROPERTIES_ORIGIN ["COM"]
properties('MP2/aug-cc-pvtz', properties = ['dipole'])
--------------------------------------------------------------------------

    Molecular point group: c1
  Charge       = 0
  Multiplicity = 1
  Basis Set: AUG-CC-PVTZ
    Blend: AUG-CC-PVTZ
  Basis Set: (AUG-CC-PVTZ AUX)
    Blend: AUG-CC-PVTZ-JKFIT

    Orbital Energies [Eh]
    ---------------------

    Doubly Occupied:

       1A   -490.034336     2A   -490.032518     3A    -65.174058
       4A    -65.172300     5A    -58.529379     6A    -58.527974
       7A    -58.527944     8A    -58.527611     9A    -58.526214
      10A    -58.526186    11A    -11.322934    12A    -11.319153
      13A    -11.273905    14A    -11.269649    15A    -11.267029
      16A    -11.266736    17A     -9.846793    18A     -9.845086
      19A     -7.458424    20A     -7.456709    21A     -7.451559
      22A     -7.451511    23A     -7.449863    24A     -7.449827
      25A     -3.202214    26A     -3.200475    27A     -3.198650
      28A     -3.198431    29A     -3.196921    30A     -3.196715
      31A     -3.189667    32A     -3.189660    33A     -3.187991
      34A     -3.187983    35A     -1.192815    36A     -1.097812
      37A     -1.069250    38A     -0.997508    39A     -0.980006
      40A     -0.855835    41A     -0.811241    42A     -0.722171
      43A     -0.666630    44A     -0.647286    45A     -0.594380
      46A     -0.590544    47A     -0.554137    48A     -0.524037
      49A     -0.494386    50A     -0.469646    51A     -0.431489
      52A     -0.428155    53A     -0.420859    54A     -0.354975
      55A     -0.341789

  @DF-RHF Final Energy: -5374.52864535856133

   => Energetics <=

    Nuclear Repulsion Energy =            763.8458241779029549
    One-Electron Energy =               -8996.9462276232552540
    Two-Electron Energy =                2858.5717580867913057
    Total Energy =                      -5374.5286453585613344
  Basis Set: (AUG-CC-PVTZ AUX)
    Blend: AUG-CC-PVTZ-RI
    Molecular point group: c1

    Geometry (in Angstrom), charge = 0, multiplicity = 1:

       Center              X                  Y                   Z               Mass
    ------------   -----------------  -----------------  -----------------  -----------------
         BR          -2.839675310188     0.544908035217     0.000044464377    78.918337600000
         BR           2.842336689812     0.544899035217    -0.000067535623    78.918337600000
         C           -0.024523410188     0.348064235217     0.000007264377    12.000000000000
         C           -1.193410310188    -0.413038964783     0.000029464377    12.000000000000
         C            1.196056689812    -0.413041964783     0.000007464377    12.000000000000
         C           -1.213587310188    -1.808260964783     0.000046464377    12.000000000000
         C            1.216211689812    -1.808260964783     0.000013464377    12.000000000000
         C            0.001308689812    -2.495344964783     0.000038464377    12.000000000000
         H            0.001334689812     1.391997035217    -0.000006535623     1.007825032230
         H           -2.159154310188    -2.341365964783     0.000079464377     1.007825032230
         H            2.161774689812    -2.341371964783     0.000001464377     1.007825032230
         H            0.001299689812    -3.582633964783     0.000034464377     1.007825032230

  Basis Set: AUG-CC-PVTZ
    Blend: AUG-CC-PVTZ
  Basis Set: (AUG-CC-PVTZ AUX)
    Blend: AUG-CC-PVTZ-JKFIT
	 Reference Energy          =   -5374.5286453585613344 [Eh]
	 Singles Energy            =      -0.0000000000000000 [Eh]
	 Same-Spin Energy          =      -0.4437314794519897 [Eh]
	 Opposite-Spin Energy      =      -1.2076322277350713 [Eh]
	 Correlation Energy        =      -1.6513637071870608 [Eh]
	 Total Energy              =   -5376.1800090657479814 [Eh]

	 ================> DF-SCS-MP2 Energies <==================
	-----------------------------------------------------------
	 SCS Same-Spin Scale       =       0.3333333333333333 [-]
	 SCS Opposite-Spin Scale   =       1.2000000000000000 [-]
	 SCS Same-Spin Energy      =      -0.1479104931506632 [Eh]
	 SCS Opposite-Spin Energy  =      -1.4491586732820856 [Eh]
	 SCS Correlation Energy    =      -1.5970691664327488 [Eh]
	 SCS Total Energy          =   -5376.1257145249937821 [Eh]
	-----------------------------------------------------------

  Dipole Moment: [D]
     X:     0.0627      Y:    -1.6478      Z:     0.0000     Total:     1.6490

*** Psi4 exiting successfully. Buy a developer a beer!
