                               Psi4 1.3.2 release

  ==> Input File <==

--------------------------------------------------------------------------
#psi4
#
memory 32 gb

molecule  {
0 1
 Br       -2.8410010     0.6223350     0.0000430
 Br        2.8410110     0.6223260    -0.0000690
  C        0.0000010     0.3842340     0.0000060
  C       -1.1083039    -0.3859061     0.0000272
  C        1.1947310    -0.3356150     0.0000060
  C       -1.2149130    -1.7308340     0.0000450
  C        1.2148860    -1.7308340     0.0000120
  C       -0.0000170    -2.4179180     0.0000370
  H        0.0000090     1.4694240    -0.0000080
  H       -2.1604800    -2.2639390     0.0000780
  H        2.1604490    -2.2639450     0.0000000
  H       -0.0000260    -3.5052070     0.0000330
units angstrom
no_reorient  #important for SAPT in psi4, default
symmetry c1  #important for SAPT in psi4, default
}

set PROPERTIES_ORIGIN ["COM"]
properties('MP2/aug-cc-pvtz', properties = ['dipole'])
--------------------------------------------------------------------------

    Molecular point group: c1
  Charge       = 0
  Multiplicity = 1
  Basis Set: AUG-CC-PVTZ
    Blend: AUG-CC-PVTZ
  Basis Set: (AUG-CC-PVTZ AUX)
    Blend: AUG-CC-PVTZ-JKFIT

    Orbital Energies [Eh]
    ---------------------

    Doubly Occupied:

       1A   -490.036726     2A   -490.023231     3A    -65.176456
       4A    -65.162710     5A    -58.531779     6A    -58.530369
       7A    -58.530335     8A    -58.518048     9A    -58.516634
      10A    -58.516615    11A    -11.321932    12A    -11.317903
      13A    -11.272125    14A    -11.271340    15A    -11.268621
      16A    -11.265769    17A     -9.849190    18A     -9.834953
      19A     -7.460835    20A     -7.453951    21A     -7.453886
      22A     -7.446319    23A     -7.439743    24A     -7.439728
      25A     -3.204629    26A     -3.201059    27A     -3.200823
      28A     -3.192039    29A     -3.192031    30A     -3.189947
      31A     -3.186650    32A     -3.186536    33A     -3.177977
      34A     -3.177970    35A     -1.209756    36A     -1.098194
      37A     -1.069587    38A     -1.002238    39A     -0.979764
      40A     -0.859685    41A     -0.820255    42A     -0.725710
      43A     -0.678797    44A     -0.643018    45A     -0.604254
      46A     -0.589555    47A     -0.566220    48A     -0.521412
      49A     -0.477871    50A     -0.467107    51A     -0.427915
      52A     -0.427896    53A     -0.416679    54A     -0.364066
      55A     -0.349882

  @DF-RHF Final Energy: -5374.52509471407211

   => Energetics <=

    Nuclear Repulsion Energy =            763.7873738433402195
    One-Electron Energy =               -8996.9274934878685599
    Two-Electron Energy =                2858.6150249304560020
    Total Energy =                      -5374.5250947140721109
  Basis Set: (AUG-CC-PVTZ AUX)
    Blend: AUG-CC-PVTZ-RI
    Molecular point group: c1

    Geometry (in Angstrom), charge = 0, multiplicity = 1:

       Center              X                  Y                   Z               Mass
    ------------   -----------------  -----------------  -----------------  -----------------
         BR          -2.845436622305     0.549605624095     0.000044495163    78.918337600000
         BR           2.836575377695     0.549596624095    -0.000067504837    78.918337600000
         C           -0.004434622305     0.311504624095     0.000007495163    12.000000000000
         C           -1.112739522305    -0.458635475905     0.000028695163    12.000000000000
         C            1.190295377695    -0.408344375905     0.000007495163    12.000000000000
         C           -1.219348622305    -1.803563375905     0.000046495163    12.000000000000
         C            1.210450377695    -1.803563375905     0.000013495163    12.000000000000
         C           -0.004452622305    -2.490647375905     0.000038495163    12.000000000000
         H           -0.004426622305     1.396694624095    -0.000006504837     1.007825032230
         H           -2.164915622305    -2.336668375905     0.000079495163     1.007825032230
         H            2.156013377695    -2.336674375905     0.000001495163     1.007825032230
         H           -0.004461622305    -3.577936375905     0.000034495163     1.007825032230

  Basis Set: AUG-CC-PVTZ
    Blend: AUG-CC-PVTZ
  Basis Set: (AUG-CC-PVTZ AUX)
    Blend: AUG-CC-PVTZ-JKFIT
	 Reference Energy          =   -5374.5250947140721109 [Eh]
	 Singles Energy            =      -0.0000000000000000 [Eh]
	 Same-Spin Energy          =      -0.4432142621236765 [Eh]
	 Opposite-Spin Energy      =      -1.2062639995908695 [Eh]
	 Correlation Energy        =      -1.6494782617145460 [Eh]
	 Total Energy              =   -5376.1745729757867593 [Eh]

	 ================> DF-SCS-MP2 Energies <==================
	-----------------------------------------------------------
	 SCS Same-Spin Scale       =       0.3333333333333333 [-]
	 SCS Opposite-Spin Scale   =       1.2000000000000000 [-]
	 SCS Same-Spin Energy      =      -0.1477380873745588 [Eh]
	 SCS Opposite-Spin Energy  =      -1.4475167995090434 [Eh]
	 SCS Correlation Energy    =      -1.5952548868836023 [Eh]
	 SCS Total Energy          =   -5376.1203496009557057 [Eh]
	-----------------------------------------------------------

  Dipole Moment: [D]
     X:     0.4791      Y:    -1.8789      Z:     0.0000     Total:     1.9390

*** Psi4 exiting successfully. Buy a developer a beer!
