                               Psi4 1.4a3.dev225

  ==> Input File <==

--------------------------------------------------------------------------
#psi4
#
memory 32 gb

molecule  {
0 1
 Br        2.8415020    -0.6219390     0.0000430
 Br       -2.8415020    -0.6219380    -0.0000580
  C        0.0000000    -0.3851670    -0.0000040
  C        1.1945970     0.3350330     0.0000260
  C       -1.1945960     0.3350330    -0.0000150
  C        1.2148590     1.7299900     0.0000420
  C       -1.2148570     1.7299910    -0.0000010
  C        0.0000010     2.4176760     0.0000290
  H        0.0000000    -1.4503640    -0.0000168
  H        2.1606700     2.2629480     0.0000660
  H       -2.1606680     2.2629490    -0.0000110
  H        0.0000020     3.5048130     0.0000400
units angstrom
no_reorient  #important for SAPT in psi4, default
symmetry c1  #important for SAPT in psi4, default
}

set PROPERTIES_ORIGIN ["COM"]
properties('MP2/aug-cc-pvtz', properties = ['dipole'])
--------------------------------------------------------------------------

    Molecular point group: c1
  Charge       = 0
  Multiplicity = 1
  Basis Set: AUG-CC-PVTZ
    Blend: AUG-CC-PVTZ
  Basis Set: (AUG-CC-PVTZ AUX)
    Blend: AUG-CC-PVTZ-JKFIT

    Orbital Energies [Eh]
    ---------------------

    Doubly Occupied:

       1A   -490.034391     2A   -490.034391     3A    -65.174109
       4A    -65.174109     5A    -58.529436     6A    -58.529436
       7A    -58.528021     8A    -58.528021     9A    -58.527994
      10A    -58.527994    11A    -11.317600    12A    -11.317590
      13A    -11.269539    14A    -11.268324    15A    -11.266604
      16A    -11.266169    17A     -9.846836    18A     -9.846835
      19A     -7.458489    20A     -7.458489    21A     -7.451582
      22A     -7.451582    23A     -7.451544    24A     -7.451544
      25A     -3.202287    26A     -3.202286    27A     -3.198700
      28A     -3.198699    29A     -3.198492    30A     -3.198491
      31A     -3.189677    32A     -3.189677    33A     -3.189670
      34A     -3.189669    35A     -1.196294    36A     -1.098756
      37A     -1.069030    38A     -1.000380    39A     -0.980129
      40A     -0.853103    41A     -0.816729    42A     -0.719601
      43A     -0.668514    44A     -0.641705    45A     -0.593659
      46A     -0.590020    47A     -0.556714    48A     -0.520091
      49A     -0.498778    50A     -0.470102    51A     -0.431740
      52A     -0.428549    53A     -0.422521    54A     -0.356840
      55A     -0.342271

  @DF-RHF Final Energy: -5374.53259362849894

   => Energetics <=

    Nuclear Repulsion Energy =            764.5073644787536296
    One-Electron Energy =               -8998.2323035515728407
    Two-Electron Energy =                2859.1923454443203809
    Total Energy =                      -5374.5325936284989439
  Basis Set: (AUG-CC-PVTZ AUX)
    Blend: AUG-CC-PVTZ-RI
    Molecular point group: c1

    Geometry (in Angstrom), charge = 0, multiplicity = 1:

       Center              X                  Y                   Z               Mass
    ------------   -----------------  -----------------  -----------------  -----------------
         BR           2.841501777518    -0.546758994809     0.000043773783    78.918337600000
         BR          -2.841502222482    -0.546757994809    -0.000057226217    78.918337600000
         C           -0.000000222482    -0.309986994809    -0.000003226217    12.000000000000
         C            1.194596777518     0.410213005191     0.000026773783    12.000000000000
         C           -1.194596222482     0.410213005191    -0.000014226217    12.000000000000
         C            1.214858777518     1.805170005191     0.000042773783    12.000000000000
         C           -1.214857222482     1.805171005191    -0.000000226217    12.000000000000
         C            0.000000777518     2.492856005191     0.000029773783    12.000000000000
         H           -0.000000222482    -1.375183994809    -0.000016026217     1.007825032230
         H            2.160669777518     2.338128005191     0.000066773783     1.007825032230
         H           -2.160668222482     2.338129005191    -0.000010226217     1.007825032230
         H            0.000001777518     3.579993005191     0.000040773783     1.007825032230

  Basis Set: AUG-CC-PVTZ
    Blend: AUG-CC-PVTZ
  Basis Set: (AUG-CC-PVTZ AUX)
    Blend: AUG-CC-PVTZ-JKFIT
	 Reference Energy          =   -5374.5325936284989439 [Eh]
	 Singles Energy            =      -0.0000000000000000 [Eh]
	 Same-Spin Energy          =      -0.4436040544505970 [Eh]
	 Opposite-Spin Energy      =      -1.2071034743062521 [Eh]
	 Correlation Energy        =      -1.6507075287568491 [Eh]
	 Total Energy              =   -5376.1833011572562100 [Eh]

	 ================> DF-SCS-MP2 Energies <==================
	-----------------------------------------------------------
	 SCS Same-Spin Scale       =       0.3333333333333333 [-]
	 SCS Opposite-Spin Scale   =       1.2000000000000000 [-]
	 SCS Same-Spin Energy      =      -0.1478680181501990 [Eh]
	 SCS Opposite-Spin Energy  =      -1.4485241691675024 [Eh]
	 SCS Correlation Energy    =      -1.5963921873177014 [Eh]
	 SCS Total Energy          =   -5376.1289858158170318 [Eh]
	-----------------------------------------------------------

  Dipole Moment: [D]
     X:     0.0000      Y:     1.6211      Z:     0.0000     Total:     1.6211

*** Psi4 exiting successfully. Buy a developer a beer!
