                               Psi4 1.4a3.dev225

  ==> Input File <==

--------------------------------------------------------------------------
#psi4
#
memory 32 gb

molecule  {
0 1
 Br        2.8415020    -0.6219390     0.0000430
 Br       -2.8415020    -0.6219380    -0.0000580
  C        0.0000000    -0.3851670    -0.0000040
  C        1.1945970     0.3350330     0.0000260
  C       -1.1945960     0.3350330    -0.0000150
  C        1.2148590     1.7299900     0.0000420
  C       -1.2148570     1.7299910    -0.0000010
  C        0.0000010     2.4176760     0.0000290
  H        0.0000000    -1.5203640    -0.0000176
  H        2.1606700     2.2629480     0.0000660
  H       -2.1606680     2.2629490    -0.0000110
  H        0.0000020     3.5048130     0.0000400
units angstrom
no_reorient  #important for SAPT in psi4, default
symmetry c1  #important for SAPT in psi4, default
}

set PROPERTIES_ORIGIN ["COM"]
properties('MP2/aug-cc-pvtz', properties = ['dipole'])
--------------------------------------------------------------------------

    Molecular point group: c1
  Charge       = 0
  Multiplicity = 1
  Basis Set: AUG-CC-PVTZ
    Blend: AUG-CC-PVTZ
  Basis Set: (AUG-CC-PVTZ AUX)
    Blend: AUG-CC-PVTZ-JKFIT

    Orbital Energies [Eh]
    ---------------------

    Doubly Occupied:

       1A   -490.034267     2A   -490.034267     3A    -65.173984
       4A    -65.173984     5A    -58.529313     6A    -58.529313
       7A    -58.527896     8A    -58.527896     9A    -58.527868
      10A    -58.527868    11A    -11.317922    12A    -11.317910
      13A    -11.276855    14A    -11.268396    15A    -11.266880
      16A    -11.266388    17A     -9.846711    18A     -9.846711
      19A     -7.458369    20A     -7.458369    21A     -7.451455
      22A     -7.451455    23A     -7.451412    24A     -7.451412
      25A     -3.202171    26A     -3.202170    27A     -3.198582
      28A     -3.198581    29A     -3.198367    30A     -3.198366
      31A     -3.189542    32A     -3.189542    33A     -3.189535
      34A     -3.189534    35A     -1.195967    36A     -1.098801
      37A     -1.067939    38A     -0.998750    39A     -0.980181
      40A     -0.849389    41A     -0.816993    42A     -0.713914
      43A     -0.668647    44A     -0.635170    45A     -0.590143
      46A     -0.590088    47A     -0.556873    48A     -0.516922
      49A     -0.498921    50A     -0.470042    51A     -0.431685
      52A     -0.428348    53A     -0.422465    54A     -0.356858
      55A     -0.342400

  @DF-RHF Final Energy: -5374.52980107143412

   => Energetics <=

    Nuclear Repulsion Energy =            764.1050020062494923
    One-Electron Energy =               -8997.4620327667071251
    Two-Electron Energy =                2858.8272296890218058
    Total Energy =                      -5374.5298010714350312
  Basis Set: (AUG-CC-PVTZ AUX)
    Blend: AUG-CC-PVTZ-RI
    Molecular point group: c1

    Geometry (in Angstrom), charge = 0, multiplicity = 1:

       Center              X                  Y                   Z               Mass
    ------------   -----------------  -----------------  -----------------  -----------------
         BR           2.841501777518    -0.546457338491     0.000043777231    78.918337600000
         BR          -2.841502222482    -0.546456338491    -0.000057222769    78.918337600000
         C           -0.000000222482    -0.309685338491    -0.000003222769    12.000000000000
         C            1.194596777518     0.410514661509     0.000026777231    12.000000000000
         C           -1.194596222482     0.410514661509    -0.000014222769    12.000000000000
         C            1.214858777518     1.805471661509     0.000042777231    12.000000000000
         C           -1.214857222482     1.805472661509    -0.000000222769    12.000000000000
         C            0.000000777518     2.493157661509     0.000029777231    12.000000000000
         H           -0.000000222482    -1.444882338491    -0.000016822769     1.007825032230
         H            2.160669777518     2.338429661509     0.000066777231     1.007825032230
         H           -2.160668222482     2.338430661509    -0.000010222769     1.007825032230
         H            0.000001777518     3.580294661509     0.000040777231     1.007825032230

  Basis Set: AUG-CC-PVTZ
    Blend: AUG-CC-PVTZ
  Basis Set: (AUG-CC-PVTZ AUX)
    Blend: AUG-CC-PVTZ-JKFIT
	 Reference Energy          =   -5374.5298010714341217 [Eh]
	 Singles Energy            =      -0.0000000000000000 [Eh]
	 Same-Spin Energy          =      -0.4438453286193423 [Eh]
	 Opposite-Spin Energy      =      -1.2076456133646774 [Eh]
	 Correlation Energy        =      -1.6514909419840196 [Eh]
	 Total Energy              =   -5376.1812920134179876 [Eh]

	 ================> DF-SCS-MP2 Energies <==================
	-----------------------------------------------------------
	 SCS Same-Spin Scale       =       0.3333333333333333 [-]
	 SCS Opposite-Spin Scale   =       1.2000000000000000 [-]
	 SCS Same-Spin Energy      =      -0.1479484428731141 [Eh]
	 SCS Opposite-Spin Energy  =      -1.4491747360376128 [Eh]
	 SCS Correlation Energy    =      -1.5971231789107270 [Eh]
	 SCS Total Energy          =   -5376.1269242503449277 [Eh]
	-----------------------------------------------------------

  Dipole Moment: [D]
     X:     0.0000      Y:     1.6079      Z:     0.0000     Total:     1.6079

*** Psi4 exiting successfully. Buy a developer a beer!
