                               Psi4 1.3.2 release

  ==> Input File <==

--------------------------------------------------------------------------
#psi4
#
memory 32 gb

molecule  {
0 1
 Br       -2.8410010     0.6223350     0.0000430
 Br        2.8410110     0.6223260    -0.0000690
  C        0.0000010     0.3842340     0.0000060
  C       -1.1090819    -0.2840042     0.0000264
  C        1.1947310    -0.3356150     0.0000060
  C       -1.2149130    -1.7308340     0.0000450
  C        1.2148860    -1.7308340     0.0000120
  C       -0.0000170    -2.4179180     0.0000370
  H        0.0000090     1.4694240    -0.0000080
  H       -2.1604800    -2.2639390     0.0000780
  H        2.1604490    -2.2639450     0.0000000
  H       -0.0000260    -3.5052070     0.0000330
units angstrom
no_reorient  #important for SAPT in psi4, default
symmetry c1  #important for SAPT in psi4, default
}

set PROPERTIES_ORIGIN ["COM"]
properties('MP2/aug-cc-pvtz', properties = ['dipole'])
--------------------------------------------------------------------------

    Molecular point group: c1
  Charge       = 0
  Multiplicity = 1
  Basis Set: AUG-CC-PVTZ
    Blend: AUG-CC-PVTZ
  Basis Set: (AUG-CC-PVTZ AUX)
    Blend: AUG-CC-PVTZ-JKFIT

    Orbital Energies [Eh]
    ---------------------

    Doubly Occupied:

       1A   -490.035798     2A   -490.029255     3A    -65.175506
       4A    -65.168815     5A    -58.530834     6A    -58.529421
       7A    -58.529388     8A    -58.524158     9A    -58.522730
      10A    -58.522706    11A    -11.319843    12A    -11.315722
      13A    -11.274023    14A    -11.268763    15A    -11.267394
      16A    -11.261518    17A     -9.848226    18A     -9.841250
      19A     -7.459876    20A     -7.452983    21A     -7.452919
      22A     -7.452770    23A     -7.445993    24A     -7.445976
      25A     -3.203678    26A     -3.200110    27A     -3.199865
      28A     -3.196496    29A     -3.193045    30A     -3.192884
      31A     -3.191064    32A     -3.191057    33A     -3.184140
      34A     -3.184133    35A     -1.204646    36A     -1.093534
      37A     -1.073880    38A     -1.006509    39A     -0.974533
      40A     -0.848246    41A     -0.826107    42A     -0.721188
      43A     -0.671771    44A     -0.640274    45A     -0.601541
      46A     -0.588216    47A     -0.562825    48A     -0.515780
      49A     -0.489578    50A     -0.466288    51A     -0.430431
      52A     -0.427215    53A     -0.420729    54A     -0.371312
      55A     -0.338165

  @DF-RHF Final Energy: -5374.52086458125177

   => Energetics <=

    Nuclear Repulsion Energy =            764.4832326794071378
    One-Electron Energy =               -8998.2379813521456526
    Two-Electron Energy =                2859.2338840914867433
    Total Energy =                      -5374.5208645812508621
  Basis Set: (AUG-CC-PVTZ AUX)
    Blend: AUG-CC-PVTZ-RI
    Molecular point group: c1

    Geometry (in Angstrom), charge = 0, multiplicity = 1:

       Center              X                  Y                   Z               Mass
    ------------   -----------------  -----------------  -----------------  -----------------
         BR          -2.845396702346     0.544376935566     0.000044536212    78.918337600000
         BR           2.836615297654     0.544367935566    -0.000067463788    78.918337600000
         C           -0.004394702346     0.306275935566     0.000007536212    12.000000000000
         C           -1.113477602346    -0.361962264434     0.000027936212    12.000000000000
         C            1.190335297654    -0.413573064434     0.000007536212    12.000000000000
         C           -1.219308702346    -1.808792064434     0.000046536212    12.000000000000
         C            1.210490297654    -1.808792064434     0.000013536212    12.000000000000
         C           -0.004412702346    -2.495876064434     0.000038536212    12.000000000000
         H           -0.004386702346     1.391465935566    -0.000006463788     1.007825032230
         H           -2.164875702346    -2.341897064434     0.000079536212     1.007825032230
         H            2.156053297654    -2.341903064434     0.000001536212     1.007825032230
         H           -0.004421702346    -3.583165064434     0.000034536212     1.007825032230

  Basis Set: AUG-CC-PVTZ
    Blend: AUG-CC-PVTZ
  Basis Set: (AUG-CC-PVTZ AUX)
    Blend: AUG-CC-PVTZ-JKFIT
	 Reference Energy          =   -5374.5208645812517716 [Eh]
	 Singles Energy            =      -0.0000000000000000 [Eh]
	 Same-Spin Energy          =      -0.4429416331351493 [Eh]
	 Opposite-Spin Energy      =      -1.2069201686860751 [Eh]
	 Correlation Energy        =      -1.6498618018212243 [Eh]
	 Total Energy              =   -5376.1707263830730881 [Eh]

	 ================> DF-SCS-MP2 Energies <==================
	-----------------------------------------------------------
	 SCS Same-Spin Scale       =       0.3333333333333333 [-]
	 SCS Opposite-Spin Scale   =       1.2000000000000000 [-]
	 SCS Same-Spin Energy      =      -0.1476472110450497 [Eh]
	 SCS Opposite-Spin Energy  =      -1.4483042024232902 [Eh]
	 SCS Correlation Energy    =      -1.5959514134683399 [Eh]
	 SCS Total Energy          =   -5376.1168159947201275 [Eh]
	-----------------------------------------------------------

  Dipole Moment: [D]
     X:     0.2542      Y:    -1.7152      Z:     0.0000     Total:     1.7340

*** Psi4 exiting successfully. Buy a developer a beer!
