                               Psi4 1.3.2 release

  ==> Input File <==

--------------------------------------------------------------------------
#psi4
#
memory 32 gb

molecule  {
0 1
 Br       -2.8410010     0.6223350     0.0000430
 Br        2.8410110     0.6223260    -0.0000690
  C        0.0000010     0.3842340     0.0000060
  C       -1.0234277    -0.2323963     0.0000248
  C        1.1947310    -0.3356150     0.0000060
  C       -1.2149130    -1.7308340     0.0000450
  C        1.2148860    -1.7308340     0.0000120
  C       -0.0000170    -2.4179180     0.0000370
  H        0.0000090     1.4694240    -0.0000080
  H       -2.1604800    -2.2639390     0.0000780
  H        2.1604490    -2.2639450     0.0000000
  H       -0.0000260    -3.5052070     0.0000330
units angstrom
no_reorient  #important for SAPT in psi4, default
symmetry c1  #important for SAPT in psi4, default
}

set PROPERTIES_ORIGIN ["COM"]
properties('MP2/aug-cc-pvtz', properties = ['dipole'])
--------------------------------------------------------------------------

    Molecular point group: c1
  Charge       = 0
  Multiplicity = 1
  Basis Set: AUG-CC-PVTZ
    Blend: AUG-CC-PVTZ
  Basis Set: (AUG-CC-PVTZ AUX)
    Blend: AUG-CC-PVTZ-JKFIT

    Orbital Energies [Eh]
    ---------------------

    Doubly Occupied:

       1A   -490.037570     2A   -490.022964     3A    -65.177264
       4A    -65.162427     5A    -58.532593     6A    -58.531181
       7A    -58.531142     8A    -58.517769     9A    -58.516347
      10A    -58.516323    11A    -11.322565    12A    -11.311640
      13A    -11.280885    14A    -11.269933    15A    -11.268701
      16A    -11.249341    17A     -9.849974    18A     -9.834641
      19A     -7.461620    20A     -7.454738    21A     -7.454650
      22A     -7.446004    23A     -7.439408    24A     -7.439400
      25A     -3.205428    26A     -3.201877    27A     -3.201597
      28A     -3.192807    29A     -3.192798    30A     -3.189636
      31A     -3.186345    32A     -3.186217    33A     -3.177636
      34A     -3.177628    35A     -1.218246    36A     -1.095427
      37A     -1.078883    38A     -1.007694    39A     -0.969572
      40A     -0.852196    41A     -0.826249    42A     -0.725805
      43A     -0.673644    44A     -0.642635    45A     -0.608028
      46A     -0.586782    47A     -0.572797    48A     -0.518436
      49A     -0.470410    50A     -0.464697    51A     -0.429156
      52A     -0.427871    53A     -0.415162    54A     -0.387398
      55A     -0.334706

  @DF-RHF Final Energy: -5374.47713103682145

   => Energetics <=

    Nuclear Repulsion Energy =            764.7470958075646195
    One-Electron Energy =               -8998.7547617506406823
    Two-Electron Energy =                2859.5305349062546156
    Total Energy =                      -5374.4771310368214472
  Basis Set: (AUG-CC-PVTZ AUX)
    Blend: AUG-CC-PVTZ-RI
    Molecular point group: c1

    Geometry (in Angstrom), charge = 0, multiplicity = 1:

       Center              X                  Y                   Z               Mass
    ------------   -----------------  -----------------  -----------------  -----------------
         BR          -2.849791705118     0.541728882539     0.000044618310    78.918337600000
         BR           2.832220294882     0.541719882539    -0.000067381690    78.918337600000
         C           -0.008789705118     0.303627882539     0.000007618310    12.000000000000
         C           -1.032218405118    -0.313002417461     0.000026418310    12.000000000000
         C            1.185940294882    -0.416221117461     0.000007618310    12.000000000000
         C           -1.223703705118    -1.811440117461     0.000046618310    12.000000000000
         C            1.206095294882    -1.811440117461     0.000013618310    12.000000000000
         C           -0.008807705118    -2.498524117461     0.000038618310    12.000000000000
         H           -0.008781705118     1.388817882539    -0.000006381690     1.007825032230
         H           -2.169270705118    -2.344545117461     0.000079618310     1.007825032230
         H            2.151658294882    -2.344551117461     0.000001618310     1.007825032230
         H           -0.008816705118    -3.585813117461     0.000034618310     1.007825032230

  Basis Set: AUG-CC-PVTZ
    Blend: AUG-CC-PVTZ
  Basis Set: (AUG-CC-PVTZ AUX)
    Blend: AUG-CC-PVTZ-JKFIT
	 Reference Energy          =   -5374.4771310368214472 [Eh]
	 Singles Energy            =      -0.0000000000000000 [Eh]
	 Same-Spin Energy          =      -0.4418665380241509 [Eh]
	 Opposite-Spin Energy      =      -1.2072731719398575 [Eh]
	 Correlation Energy        =      -1.6491397099640084 [Eh]
	 Total Energy              =   -5376.1262707467858490 [Eh]

	 ================> DF-SCS-MP2 Energies <==================
	-----------------------------------------------------------
	 SCS Same-Spin Scale       =       0.3333333333333333 [-]
	 SCS Opposite-Spin Scale   =       1.2000000000000000 [-]
	 SCS Same-Spin Energy      =      -0.1472888460080503 [Eh]
	 SCS Opposite-Spin Energy  =      -1.4487278063278290 [Eh]
	 SCS Correlation Energy    =      -1.5960166523358794 [Eh]
	 SCS Total Energy          =   -5376.0731476891569400 [Eh]
	-----------------------------------------------------------

  Dipole Moment: [D]
     X:     0.5645      Y:    -1.8057      Z:     0.0000     Total:     1.8919

*** Psi4 exiting successfully. Buy a developer a beer!
