                               Psi4 1.3.2 release

  ==> Input File <==

--------------------------------------------------------------------------
#psi4
#
memory 32 gb

molecule  {
0 1
 Br       -2.8410010     0.6223350     0.0000430
 Br        2.8410110     0.6223260    -0.0000690
  C       -0.0817883     0.5051746     0.0000055
  C       -1.1947360    -0.3356120     0.0000280
  C        1.1947310    -0.3356150     0.0000060
  C       -1.2149130    -1.7308340     0.0000450
  C        1.2148860    -1.7308340     0.0000120
  C       -0.0000170    -2.4179180     0.0000370
  H        0.0000090     1.4694240    -0.0000080
  H       -2.1604800    -2.2639390     0.0000780
  H        2.1604490    -2.2639450     0.0000000
  H       -0.0000260    -3.5052070     0.0000330
units angstrom
no_reorient  #important for SAPT in psi4, default
symmetry c1  #important for SAPT in psi4, default
}

set PROPERTIES_ORIGIN ["COM"]
properties('MP2/aug-cc-pvtz', properties = ['dipole'])
--------------------------------------------------------------------------

    Molecular point group: c1
  Charge       = 0
  Multiplicity = 1
  Basis Set: AUG-CC-PVTZ
    Blend: AUG-CC-PVTZ
  Basis Set: (AUG-CC-PVTZ AUX)
    Blend: AUG-CC-PVTZ-JKFIT

    Orbital Energies [Eh]
    ---------------------

    Doubly Occupied:

       1A   -490.034360     2A   -490.028901     3A    -65.174084
       4A    -65.168812     5A    -58.529395     6A    -58.528008
       7A    -58.527972     8A    -58.524091     9A    -58.522728
      10A    -58.522702    11A    -11.332021    12A    -11.323070
      13A    -11.278711    14A    -11.272820    15A    -11.267942
      16A    -11.267573    17A     -9.846831    18A     -9.841720
      19A     -7.458416    20A     -7.453285    21A     -7.451633
      22A     -7.451558    23A     -7.446547    24A     -7.446526
      25A     -3.202194    26A     -3.198675    27A     -3.198430
      28A     -3.196987    29A     -3.193490    30A     -3.193303
      31A     -3.189762    32A     -3.189754    33A     -3.184746
      34A     -3.184735    35A     -1.187745    36A     -1.097233
      37A     -1.070081    38A     -0.993550    39A     -0.980043
      40A     -0.864861    41A     -0.802673    42A     -0.732900
      43A     -0.671355    44A     -0.652540    45A     -0.595524
      46A     -0.591592    47A     -0.550100    48A     -0.530323
      49A     -0.484284    50A     -0.469219    51A     -0.431076
      52A     -0.427493    53A     -0.416414    54A     -0.354025
      55A     -0.338978

  @DF-RHF Final Energy: -5374.50264161033101

   => Energetics <=

    Nuclear Repulsion Energy =            762.8266850663857213
    One-Electron Energy =               -8994.9110709255055554
    Two-Electron Energy =                2857.5817442487887092
    Total Energy =                      -5374.5026416103310112
  Basis Set: (AUG-CC-PVTZ AUX)
    Blend: AUG-CC-PVTZ-RI
    Molecular point group: c1

    Geometry (in Angstrom), charge = 0, multiplicity = 1:

       Center              X                  Y                   Z               Mass
    ------------   -----------------  -----------------  -----------------  -----------------
         BR          -2.836805013821     0.540819400171     0.000044479770    78.918337600000
         BR           2.845206986179     0.540810400171    -0.000067520230    78.918337600000
         C           -0.077592313821     0.423659000171     0.000006979770    12.000000000000
         C           -1.190540013821    -0.417127599829     0.000029479770    12.000000000000
         C            1.198926986179    -0.417130599829     0.000007479770    12.000000000000
         C           -1.210717013821    -1.812349599829     0.000046479770    12.000000000000
         C            1.219081986179    -1.812349599829     0.000013479770    12.000000000000
         C            0.004178986179    -2.499433599829     0.000038479770    12.000000000000
         H            0.004204986179     1.387908400171    -0.000006520230     1.007825032230
         H           -2.156284013821    -2.345454599829     0.000079479770     1.007825032230
         H            2.164644986179    -2.345460599829     0.000001479770     1.007825032230
         H            0.004169986179    -3.586722599829     0.000034479770     1.007825032230

  Basis Set: AUG-CC-PVTZ
    Blend: AUG-CC-PVTZ
  Basis Set: (AUG-CC-PVTZ AUX)
    Blend: AUG-CC-PVTZ-JKFIT
	 Reference Energy          =   -5374.5026416103310112 [Eh]
	 Singles Energy            =      -0.0000000000000000 [Eh]
	 Same-Spin Energy          =      -0.4440968600180801 [Eh]
	 Opposite-Spin Energy      =      -1.2094836614345641 [Eh]
	 Correlation Energy        =      -1.6535805214526442 [Eh]
	 Total Energy              =   -5376.1562221317835792 [Eh]

	 ================> DF-SCS-MP2 Energies <==================
	-----------------------------------------------------------
	 SCS Same-Spin Scale       =       0.3333333333333333 [-]
	 SCS Opposite-Spin Scale   =       1.2000000000000000 [-]
	 SCS Same-Spin Energy      =      -0.1480322866726934 [Eh]
	 SCS Opposite-Spin Energy  =      -1.4513803937214769 [Eh]
	 SCS Correlation Energy    =      -1.5994126803941702 [Eh]
	 SCS Total Energy          =   -5376.1020542907253912 [Eh]
	-----------------------------------------------------------

  Dipole Moment: [D]
     X:     0.1795      Y:    -1.7208      Z:     0.0000     Total:     1.7301

*** Psi4 exiting successfully. Buy a developer a beer!
