                               Psi4 1.3.2 release

  ==> Input File <==

--------------------------------------------------------------------------
#psi4
#
memory 32 gb

molecule  {
0 1
 Br       -2.8410010     0.6223350     0.0000430
 Br        2.8410110     0.6223260    -0.0000690
  C        0.0000010     0.3842340     0.0000060
  C       -1.1819910    -0.3563534     0.0000281
  C        1.1947310    -0.3356150     0.0000060
  C       -1.2149130    -1.7308340     0.0000450
  C        1.2148860    -1.7308340     0.0000120
  C       -0.0000170    -2.4179180     0.0000370
  H        0.0000090     1.4694240    -0.0000080
  H       -2.1604800    -2.2639390     0.0000780
  H        2.1604490    -2.2639450     0.0000000
  H       -0.0000260    -3.5052070     0.0000330
units angstrom
no_reorient  #important for SAPT in psi4, default
symmetry c1  #important for SAPT in psi4, default
}

set PROPERTIES_ORIGIN ["COM"]
properties('MP2/aug-cc-pvtz', properties = ['dipole'])
--------------------------------------------------------------------------

    Molecular point group: c1
  Charge       = 0
  Multiplicity = 1
  Basis Set: AUG-CC-PVTZ
    Blend: AUG-CC-PVTZ
  Basis Set: (AUG-CC-PVTZ AUX)
    Blend: AUG-CC-PVTZ-JKFIT

    Orbital Energies [Eh]
    ---------------------

    Doubly Occupied:

       1A   -490.034765     2A   -490.032243     3A    -65.174487
       4A    -65.171887     5A    -58.529814     6A    -58.528400
       7A    -58.528371     8A    -58.527223     9A    -58.525800
      10A    -58.525775    11A    -11.318446    12A    -11.317435
      13A    -11.272486    14A    -11.269013    15A    -11.266882
      16A    -11.265076    17A     -9.847217    18A     -9.844481
      19A     -7.458869    20A     -7.456077    21A     -7.451967
      22A     -7.451924    23A     -7.449224    24A     -7.449199
      25A     -3.202666    26A     -3.199845    27A     -3.199082
      28A     -3.198869    29A     -3.196316    30A     -3.196131
      31A     -3.190060    32A     -3.190053    33A     -3.187342
      34A     -3.187334    35A     -1.198691    36A     -1.098557
      37A     -1.068256    38A     -0.999284    39A     -0.981541
      40A     -0.854667    41A     -0.816301    42A     -0.719562
      43A     -0.670460    44A     -0.640314    45A     -0.594156
      46A     -0.590538    47A     -0.558400    48A     -0.519911
      49A     -0.494901    50A     -0.469332    51A     -0.431240
      52A     -0.428058    53A     -0.421800    54A     -0.357092
      55A     -0.345108

  @DF-RHF Final Energy: -5374.53221291650607

   => Energetics <=

    Nuclear Repulsion Energy =            764.1951595299389055
    One-Electron Energy =               -8997.6488863372032938
    Two-Electron Energy =                2858.9215138907570690
    Total Energy =                      -5374.5322129165069782
  Basis Set: (AUG-CC-PVTZ AUX)
    Blend: AUG-CC-PVTZ-RI
    Molecular point group: c1

    Geometry (in Angstrom), charge = 0, multiplicity = 1:

       Center              X                  Y                   Z               Mass
    ------------   -----------------  -----------------  -----------------  -----------------
         BR          -2.841655663417     0.548089245466     0.000044448983    78.918337600000
         BR           2.840356336583     0.548080245466    -0.000067551017    78.918337600000
         C           -0.000653663417     0.309988245466     0.000007448983    12.000000000000
         C           -1.182645663417    -0.430599154534     0.000029548983    12.000000000000
         C            1.194076336583    -0.409860754534     0.000007448983    12.000000000000
         C           -1.215567663417    -1.805079754534     0.000046448983    12.000000000000
         C            1.214231336583    -1.805079754534     0.000013448983    12.000000000000
         C           -0.000671663417    -2.492163754534     0.000038448983    12.000000000000
         H           -0.000645663417     1.395178245466    -0.000006551017     1.007825032230
         H           -2.161134663417    -2.338184754534     0.000079448983     1.007825032230
         H            2.159794336583    -2.338190754534     0.000001448983     1.007825032230
         H           -0.000680663417    -3.579452754534     0.000034448983     1.007825032230

  Basis Set: AUG-CC-PVTZ
    Blend: AUG-CC-PVTZ
  Basis Set: (AUG-CC-PVTZ AUX)
    Blend: AUG-CC-PVTZ-JKFIT
	 Reference Energy          =   -5374.5322129165060687 [Eh]
	 Singles Energy            =      -0.0000000000000000 [Eh]
	 Same-Spin Energy          =      -0.4434907406533508 [Eh]
	 Opposite-Spin Energy      =      -1.2069221131912844 [Eh]
	 Correlation Energy        =      -1.6504128538446352 [Eh]
	 Total Energy              =   -5376.1826257703505689 [Eh]

	 ================> DF-SCS-MP2 Energies <==================
	-----------------------------------------------------------
	 SCS Same-Spin Scale       =       0.3333333333333333 [-]
	 SCS Opposite-Spin Scale   =       1.2000000000000000 [-]
	 SCS Same-Spin Energy      =      -0.1478302468844503 [Eh]
	 SCS Opposite-Spin Energy  =      -1.4483065358295413 [Eh]
	 SCS Correlation Energy    =      -1.5961367827139916 [Eh]
	 SCS Total Energy          =   -5376.1283496992200526 [Eh]
	-----------------------------------------------------------

  Dipole Moment: [D]
     X:     0.0950      Y:    -1.6732      Z:     0.0000     Total:     1.6759

*** Psi4 exiting successfully. Buy a developer a beer!
