                               Psi4 1.3.2 release

  ==> Input File <==

--------------------------------------------------------------------------
#psi4
#
memory 32 gb

molecule  {
0 1
 Br       -2.8410010     0.6223350     0.0000430
 Br        2.8410110     0.6223260    -0.0000690
  C        0.0000010     0.3842340     0.0000060
  C       -1.1947360    -0.3356120     0.0000280
  C        1.1947310    -0.3356150     0.0000060
  C       -1.2149130    -1.7308340     0.0000450
  C        1.2148860    -1.7308340     0.0000120
  C       -0.0000170    -2.4179180     0.0000370
  H        0.0000105     1.6694240    -0.0000106
  H       -2.1604800    -2.2639390     0.0000780
  H        2.1604490    -2.2639450     0.0000000
  H       -0.0000260    -3.5052070     0.0000330
units angstrom
no_reorient  #important for SAPT in psi4, default
symmetry c1  #important for SAPT in psi4, default
}

set PROPERTIES_ORIGIN ["COM"]
properties('MP2/aug-cc-pvtz', properties = ['dipole'])
--------------------------------------------------------------------------

    Molecular point group: c1
  Charge       = 0
  Multiplicity = 1
  Basis Set: AUG-CC-PVTZ
    Blend: AUG-CC-PVTZ
  Basis Set: (AUG-CC-PVTZ AUX)
    Blend: AUG-CC-PVTZ-JKFIT

    Orbital Energies [Eh]
    ---------------------

    Doubly Occupied:

       1A   -490.034065     2A   -490.034064     3A    -65.173778
       4A    -65.173777     5A    -58.529109     6A    -58.529109
       7A    -58.527687     8A    -58.527686     9A    -58.527657
      10A    -58.527656    11A    -11.318911    12A    -11.318891
      13A    -11.290746    14A    -11.268718    15A    -11.267598
      16A    -11.266936    17A     -9.846502    18A     -9.846502
      19A     -7.458175    20A     -7.458174    21A     -7.451239
      22A     -7.451239    23A     -7.451184    24A     -7.451184
      25A     -3.201987    26A     -3.201986    27A     -3.198391
      28A     -3.198390    29A     -3.198159    30A     -3.198158
      31A     -3.189305    32A     -3.189304    33A     -3.189298
      34A     -3.189297    35A     -1.195815    36A     -1.098971
      37A     -1.066565    38A     -0.996550    39A     -0.980414
      40A     -0.844067    41A     -0.817795    42A     -0.706135
      43A     -0.669128    44A     -0.624523    45A     -0.590593
      46A     -0.579152    47A     -0.557380    48A     -0.506937
      49A     -0.499433    50A     -0.469948    51A     -0.431648
      52A     -0.427794    53A     -0.422346    54A     -0.357183
      55A     -0.342734

  @DF-RHF Final Energy: -5374.50936309939243

   => Energetics <=

    Nuclear Repulsion Energy =            763.3247372786632923
    One-Electron Energy =               -8995.9282544533289183
    Two-Electron Energy =                2858.0941540752737637
    Total Energy =                      -5374.5093630993924307
  Basis Set: (AUG-CC-PVTZ AUX)
    Blend: AUG-CC-PVTZ-RI
    Molecular point group: c1

    Geometry (in Angstrom), charge = 0, multiplicity = 1:

       Center              X                  Y                   Z               Mass
    ------------   -----------------  -----------------  -----------------  -----------------
         BR          -2.841001711168     0.546163108269     0.000044465319    78.918337600000
         BR           2.841010288832     0.546154108269    -0.000067534681    78.918337600000
         C            0.000000288832     0.308062108269     0.000007465319    12.000000000000
         C           -1.194736711168    -0.411783891731     0.000029465319    12.000000000000
         C            1.194730288832    -0.411786891731     0.000007465319    12.000000000000
         C           -1.214913711168    -1.807005891731     0.000046465319    12.000000000000
         C            1.214885288832    -1.807005891731     0.000013465319    12.000000000000
         C           -0.000017711168    -2.494089891731     0.000038465319    12.000000000000
         H            0.000009788832     1.593252108269    -0.000009134681     1.007825032230
         H           -2.160480711168    -2.340110891731     0.000079465319     1.007825032230
         H            2.160448288832    -2.340116891731     0.000001465319     1.007825032230
         H           -0.000026711168    -3.581378891731     0.000034465319     1.007825032230

  Basis Set: AUG-CC-PVTZ
    Blend: AUG-CC-PVTZ
  Basis Set: (AUG-CC-PVTZ AUX)
    Blend: AUG-CC-PVTZ-JKFIT
	 Reference Energy          =   -5374.5093630993924307 [Eh]
	 Singles Energy            =      -0.0000000000000000 [Eh]
	 Same-Spin Energy          =      -0.4444795327757369 [Eh]
	 Opposite-Spin Energy      =      -1.2094516803230182 [Eh]
	 Correlation Energy        =      -1.6539312130987551 [Eh]
	 Total Energy              =   -5376.1632943124914163 [Eh]

	 ================> DF-SCS-MP2 Energies <==================
	-----------------------------------------------------------
	 SCS Same-Spin Scale       =       0.3333333333333333 [-]
	 SCS Opposite-Spin Scale   =       1.2000000000000000 [-]
	 SCS Same-Spin Energy      =      -0.1481598442585789 [Eh]
	 SCS Opposite-Spin Energy  =      -1.4513420163876218 [Eh]
	 SCS Correlation Energy    =      -1.5995018606462008 [Eh]
	 SCS Total Energy          =   -5376.1088649600387726 [Eh]
	-----------------------------------------------------------

  Dipole Moment: [D]
     X:    -0.0000      Y:    -1.5913      Z:     0.0000     Total:     1.5913

*** Psi4 exiting successfully. Buy a developer a beer!
