                               Psi4 1.3.2 release

  ==> Input File <==

--------------------------------------------------------------------------
#psi4
#
memory 32 gb

molecule  {
0 1
 Br       -2.8410010     0.6223350     0.0000430
 Br        2.8410110     0.6223260    -0.0000690
  C        0.0243955     0.3420998     0.0000062
  C       -1.1947360    -0.3356120     0.0000280
  C        1.1947310    -0.3356150     0.0000060
  C       -1.2149130    -1.7308340     0.0000450
  C        1.2148860    -1.7308340     0.0000120
  C       -0.0000170    -2.4179180     0.0000370
  H        0.0000090     1.4694240    -0.0000080
  H       -2.1604800    -2.2639390     0.0000780
  H        2.1604490    -2.2639450     0.0000000
  H       -0.0000260    -3.5052070     0.0000330
units angstrom
no_reorient  #important for SAPT in psi4, default
symmetry c1  #important for SAPT in psi4, default
}

set PROPERTIES_ORIGIN ["COM"]
properties('MP2/aug-cc-pvtz', properties = ['dipole'])
--------------------------------------------------------------------------

    Molecular point group: c1
  Charge       = 0
  Multiplicity = 1
  Basis Set: AUG-CC-PVTZ
    Blend: AUG-CC-PVTZ
  Basis Set: (AUG-CC-PVTZ AUX)
    Blend: AUG-CC-PVTZ-JKFIT

    Orbital Energies [Eh]
    ---------------------

    Doubly Occupied:

       1A   -490.036211     2A   -490.034464     3A    -65.175866
       4A    -65.174174     5A    -58.531210     6A    -58.529774
       7A    -58.529747     8A    -58.529508     9A    -58.528081
      10A    -58.528055    11A    -11.316540    12A    -11.312122
      13A    -11.269366    14A    -11.267233    15A    -11.266387
      16A    -11.265517    17A     -9.848535    18A     -9.846888
      19A     -7.460222    20A     -7.458569    21A     -7.453246
      22A     -7.453205    23A     -7.451613    24A     -7.451579
      25A     -3.204055    26A     -3.202378    27A     -3.200432
      28A     -3.200219    29A     -3.198767    30A     -3.198562
      31A     -3.191302    32A     -3.191295    33A     -3.189686
      34A     -3.189679    35A     -1.200163    36A     -1.100107
      37A     -1.068200    38A     -1.002315    39A     -0.980513
      40A     -0.848449    41A     -0.822686    42A     -0.714359
      43A     -0.670748    44A     -0.632311    45A     -0.590840
      46A     -0.589401    47A     -0.559813    48A     -0.513454
      49A     -0.502218    50A     -0.470655    51A     -0.432082
      52A     -0.428915    53A     -0.423827    54A     -0.359590
      55A     -0.342225

  @DF-RHF Final Energy: -5374.52977058794204

   => Energetics <=

    Nuclear Repulsion Energy =            764.9905350657919598
    One-Electron Energy =               -8999.1658948481835978
    Two-Electron Energy =                2859.6455891944492578
    Total Energy =                      -5374.5297705879420391
  Basis Set: (AUG-CC-PVTZ AUX)
    Blend: AUG-CC-PVTZ-RI
    Molecular point group: c1

    Geometry (in Angstrom), charge = 0, multiplicity = 1:

       Center              X                  Y                   Z               Mass
    ------------   -----------------  -----------------  -----------------  -----------------
         BR          -2.842253410927     0.549186931455     0.000044443852    78.918337600000
         BR           2.839758589073     0.549177931455    -0.000067556148    78.918337600000
         C            0.023143089073     0.268951731455     0.000007643852    12.000000000000
         C           -1.195988410927    -0.408760068545     0.000029443852    12.000000000000
         C            1.193478589073    -0.408763068545     0.000007443852    12.000000000000
         C           -1.216165410927    -1.803982068545     0.000046443852    12.000000000000
         C            1.213633589073    -1.803982068545     0.000013443852    12.000000000000
         C           -0.001269410927    -2.491066068545     0.000038443852    12.000000000000
         H           -0.001243410927     1.396275931455    -0.000006556148     1.007825032230
         H           -2.161732410927    -2.337087068545     0.000079443852     1.007825032230
         H            2.159196589073    -2.337093068545     0.000001443852     1.007825032230
         H           -0.001278410927    -3.578355068545     0.000034443852     1.007825032230

  Basis Set: AUG-CC-PVTZ
    Blend: AUG-CC-PVTZ
  Basis Set: (AUG-CC-PVTZ AUX)
    Blend: AUG-CC-PVTZ-JKFIT
	 Reference Energy          =   -5374.5297705879420391 [Eh]
	 Singles Energy            =      -0.0000000000000000 [Eh]
	 Same-Spin Energy          =      -0.4436817481500358 [Eh]
	 Opposite-Spin Energy      =      -1.2071981294569816 [Eh]
	 Correlation Energy        =      -1.6508798776070175 [Eh]
	 Total Energy              =   -5376.1806504655487515 [Eh]

	 ================> DF-SCS-MP2 Energies <==================
	-----------------------------------------------------------
	 SCS Same-Spin Scale       =       0.3333333333333333 [-]
	 SCS Opposite-Spin Scale   =       1.2000000000000000 [-]
	 SCS Same-Spin Energy      =      -0.1478939160500119 [Eh]
	 SCS Opposite-Spin Energy  =      -1.4486377553483778 [Eh]
	 SCS Correlation Energy    =      -1.5965316713983897 [Eh]
	 SCS Total Energy          =   -5376.1263022593402638 [Eh]
	-----------------------------------------------------------

  Dipole Moment: [D]
     X:    -0.0644      Y:    -1.5917      Z:     0.0000     Total:     1.5930

*** Psi4 exiting successfully. Buy a developer a beer!
