                               Psi4 1.3.2 release

  ==> Input File <==

--------------------------------------------------------------------------
#psi4
#
memory 32 gb

molecule  {
0 1
 Br       -2.8410010     0.6223350     0.0000430
 Br        2.8410110     0.6223260    -0.0000690
  C        0.0000010     0.3842340     0.0000060
  C       -1.1947360    -0.3356120     0.0000280
  C        1.1947310    -0.3356150     0.0000060
  C       -1.2149130    -1.7308340     0.0000450
  C        1.2148860    -1.7308340     0.0000120
  C       -0.0000170    -2.4179180     0.0000370
  H        0.0000083     1.3694240    -0.0000067
  H       -2.1604800    -2.2639390     0.0000780
  H        2.1604490    -2.2639450     0.0000000
  H       -0.0000260    -3.5052070     0.0000330
units angstrom
no_reorient  #important for SAPT in psi4, default
symmetry c1  #important for SAPT in psi4, default
}

set PROPERTIES_ORIGIN ["COM"]
properties('MP2/aug-cc-pvtz', properties = ['dipole'])
--------------------------------------------------------------------------

    Molecular point group: c1
  Charge       = 0
  Multiplicity = 1
  Basis Set: AUG-CC-PVTZ
    Blend: AUG-CC-PVTZ
  Basis Set: (AUG-CC-PVTZ AUX)
    Blend: AUG-CC-PVTZ-JKFIT

    Orbital Energies [Eh]
    ---------------------

    Doubly Occupied:

       1A   -490.034562     2A   -490.034561     3A    -65.174280
       4A    -65.174279     5A    -58.529606     6A    -58.529606
       7A    -58.528193     8A    -58.528192     9A    -58.528166
      10A    -58.528165    11A    -11.317361    12A    -11.317353
      13A    -11.268261    14A    -11.266330    15A    -11.265940
      16A    -11.260660    17A     -9.847006    18A     -9.847005
      19A     -7.458655    20A     -7.458654    21A     -7.451755
      22A     -7.451754    23A     -7.451720    24A     -7.451719
      25A     -3.202450    26A     -3.202449    27A     -3.198865
      28A     -3.198864    29A     -3.198662    30A     -3.198661
      31A     -3.189856    32A     -3.189856    33A     -3.189849
      34A     -3.189848    35A     -1.196931    36A     -1.098711
      37A     -1.070828    38A     -1.002869    39A     -0.980135
      40A     -0.858602    41A     -0.816563    42A     -0.727928
      43A     -0.668438    44A     -0.649115    45A     -0.596527
      46A     -0.589993    47A     -0.556589    48A     -0.522840
      49A     -0.498754    50A     -0.470170    51A     -0.431854
      52A     -0.428744    53A     -0.422590    54A     -0.356942
      55A     -0.342125

  @DF-RHF Final Energy: -5374.52668715097661

   => Energetics <=

    Nuclear Repulsion Energy =            765.0129330001257131
    One-Electron Energy =               -8999.1784597626010509
    Two-Electron Energy =                2859.6388396114989519
    Total Energy =                      -5374.5266871509766133
  Basis Set: (AUG-CC-PVTZ AUX)
    Blend: AUG-CC-PVTZ-RI
    Molecular point group: c1

    Geometry (in Angstrom), charge = 0, multiplicity = 1:

       Center              X                  Y                   Z               Mass
    ------------   -----------------  -----------------  -----------------  -----------------
         BR          -2.841001701688     0.547455921059     0.000044448512    78.918337600000
         BR           2.841010298312     0.547446921059    -0.000067551488    78.918337600000
         C            0.000000298312     0.309354921059     0.000007448512    12.000000000000
         C           -1.194736701688    -0.410491078941     0.000029448512    12.000000000000
         C            1.194730298312    -0.410494078941     0.000007448512    12.000000000000
         C           -1.214913701688    -1.805713078941     0.000046448512    12.000000000000
         C            1.214885298312    -1.805713078941     0.000013448512    12.000000000000
         C           -0.000017701688    -2.492797078941     0.000038448512    12.000000000000
         H            0.000007598312     1.294544921059    -0.000005251488     1.007825032230
         H           -2.160480701688    -2.338818078941     0.000079448512     1.007825032230
         H            2.160448298312    -2.338824078941     0.000001448512     1.007825032230
         H           -0.000026701688    -3.580086078941     0.000034448512     1.007825032230

  Basis Set: AUG-CC-PVTZ
    Blend: AUG-CC-PVTZ
  Basis Set: (AUG-CC-PVTZ AUX)
    Blend: AUG-CC-PVTZ-JKFIT
	 Reference Energy          =   -5374.5266871509766133 [Eh]
	 Singles Energy            =      -0.0000000000000000 [Eh]
	 Same-Spin Energy          =      -0.4433936749658448 [Eh]
	 Opposite-Spin Energy      =      -1.2067609951553886 [Eh]
	 Correlation Energy        =      -1.6501546701212333 [Eh]
	 Total Energy              =   -5376.1768418210976961 [Eh]

	 ================> DF-SCS-MP2 Energies <==================
	-----------------------------------------------------------
	 SCS Same-Spin Scale       =       0.3333333333333333 [-]
	 SCS Opposite-Spin Scale   =       1.2000000000000000 [-]
	 SCS Same-Spin Energy      =      -0.1477978916552816 [Eh]
	 SCS Opposite-Spin Energy  =      -1.4481131941864662 [Eh]
	 SCS Correlation Energy    =      -1.5959110858417478 [Eh]
	 SCS Total Energy          =   -5376.1225982368187033 [Eh]
	-----------------------------------------------------------

  Dipole Moment: [D]
     X:    -0.0000      Y:    -1.6399      Z:     0.0000     Total:     1.6399

*** Psi4 exiting successfully. Buy a developer a beer!
