                               Psi4 1.4a3.dev225

  ==> Input File <==

--------------------------------------------------------------------------
#psi4
#
memory 32 gb

molecule  {
0 1
 Br        2.8415020    -0.6219390     0.0000430
 Br       -2.8415020    -0.6219380    -0.0000580
  C        0.0000000    -0.3851670    -0.0000040
  C        1.2118896     0.3249848     0.0000262
  C       -1.1945960     0.3350330    -0.0000150
  C        1.2148590     1.7299900     0.0000420
  C       -1.2148570     1.7299910    -0.0000010
  C        0.0000010     2.4176760     0.0000290
  H        0.0000000    -1.4703640    -0.0000170
  H        2.1606700     2.2629480     0.0000660
  H       -2.1606680     2.2629490    -0.0000110
  H        0.0000020     3.5048130     0.0000400
units angstrom
no_reorient  #important for SAPT in psi4, default
symmetry c1  #important for SAPT in psi4, default
}

set PROPERTIES_ORIGIN ["COM"]
properties('MP2/aug-cc-pvtz', properties = ['dipole'])
--------------------------------------------------------------------------

    Molecular point group: c1
  Charge       = 0
  Multiplicity = 1
  Basis Set: AUG-CC-PVTZ
    Blend: AUG-CC-PVTZ
  Basis Set: (AUG-CC-PVTZ AUX)
    Blend: AUG-CC-PVTZ-JKFIT

    Orbital Energies [Eh]
    ---------------------

    Doubly Occupied:

       1A   -490.036239     2A   -490.033966     3A    -65.176036
       4A    -65.173681     5A    -58.531353     6A    -58.529947
       7A    -58.529917     8A    -58.529010     9A    -58.527592
      10A    -58.527566    11A    -11.318037    12A    -11.316980
      13A    -11.271950    14A    -11.267903    15A    -11.266779
      16A    -11.265946    17A     -9.848901    18A     -9.846405
      19A     -7.460609    20A     -7.458063    21A     -7.453654
      22A     -7.453600    23A     -7.451148    24A     -7.451113
      25A     -3.204436    26A     -3.201863    27A     -3.200794
      28A     -3.200559    29A     -3.198272    30A     -3.198066
      31A     -3.191727    32A     -3.191720    33A     -3.189240
      34A     -3.189233    35A     -1.193908    36A     -1.099978
      37A     -1.068623    38A     -0.999493    39A     -0.979560
      40A     -0.850428    41A     -0.816083    42A     -0.716365
      43A     -0.666923    44A     -0.639450    45A     -0.592685
      46A     -0.588268    47A     -0.555249    48A     -0.519972
      49A     -0.501118    50A     -0.471234    51A     -0.432083
      52A     -0.429165    53A     -0.422722    54A     -0.355532
      55A     -0.340584

  @DF-RHF Final Energy: -5374.53169013676597

   => Energetics <=

    Nuclear Repulsion Energy =            764.5513680206905747
    One-Electron Energy =               -8998.3026641935230145
    Two-Electron Energy =                2859.2196060360652154
    Total Energy =                      -5374.5316901367659739
  Basis Set: (AUG-CC-PVTZ AUX)
    Blend: AUG-CC-PVTZ-RI
    Molecular point group: c1

    Geometry (in Angstrom), charge = 0, multiplicity = 1:

       Center              X                  Y                   Z               Mass
    ------------   -----------------  -----------------  -----------------  -----------------
         BR           2.840614476896    -0.546157224085     0.000043764383    78.918337600000
         BR          -2.842389523104    -0.546156224085    -0.000057235617    78.918337600000
         C           -0.000887523104    -0.309385224085    -0.000003235617    12.000000000000
         C            1.211002076896     0.400766575915     0.000026964383    12.000000000000
         C           -1.195483523104     0.410814775915    -0.000014235617    12.000000000000
         C            1.213971476896     1.805771775915     0.000042764383    12.000000000000
         C           -1.215744523104     1.805772775915    -0.000000235617    12.000000000000
         C           -0.000886523104     2.493457775915     0.000029764383    12.000000000000
         H           -0.000887523104    -1.394582224085    -0.000016235617     1.007825032230
         H            2.159782476896     2.338729775915     0.000066764383     1.007825032230
         H           -2.161555523104     2.338730775915    -0.000010235617     1.007825032230
         H           -0.000885523104     3.580594775915     0.000040764383     1.007825032230

  Basis Set: AUG-CC-PVTZ
    Blend: AUG-CC-PVTZ
  Basis Set: (AUG-CC-PVTZ AUX)
    Blend: AUG-CC-PVTZ-JKFIT
	 Reference Energy          =   -5374.5316901367659739 [Eh]
	 Singles Energy            =      -0.0000000000000000 [Eh]
	 Same-Spin Energy          =      -0.4438683714924204 [Eh]
	 Opposite-Spin Energy      =      -1.2075823348771280 [Eh]
	 Correlation Energy        =      -1.6514507063695483 [Eh]
	 Total Energy              =   -5376.1831408431353339 [Eh]

	 ================> DF-SCS-MP2 Energies <==================
	-----------------------------------------------------------
	 SCS Same-Spin Scale       =       0.3333333333333333 [-]
	 SCS Opposite-Spin Scale   =       1.2000000000000000 [-]
	 SCS Same-Spin Energy      =      -0.1479561238308068 [Eh]
	 SCS Opposite-Spin Energy  =      -1.4490988018525535 [Eh]
	 SCS Correlation Energy    =      -1.5970549256833602 [Eh]
	 SCS Total Energy          =   -5376.1287450624495250 [Eh]
	-----------------------------------------------------------

  Dipole Moment: [D]
     X:     0.0892      Y:     1.5681      Z:     0.0000     Total:     1.5706

*** Psi4 exiting successfully. Buy a developer a beer!
