                               Psi4 1.3.2 release

  ==> Input File <==

--------------------------------------------------------------------------
#psi4
#
memory 32 gb

molecule  {
0 1
 Br       -2.8410010     0.6223350     0.0000430
 Br        2.8410110     0.6223260    -0.0000690
  C       -0.0127440     0.4049754     0.0000059
  C       -1.1947360    -0.3356120     0.0000280
  C        1.1947310    -0.3356150     0.0000060
  C       -1.2149130    -1.7308340     0.0000450
  C        1.2148860    -1.7308340     0.0000120
  C       -0.0000170    -2.4179180     0.0000370
  H        0.0000090     1.4694240    -0.0000080
  H       -2.1604800    -2.2639390     0.0000780
  H        2.1604490    -2.2639450     0.0000000
  H       -0.0000260    -3.5052070     0.0000330
units angstrom
no_reorient  #important for SAPT in psi4, default
symmetry c1  #important for SAPT in psi4, default
}

set PROPERTIES_ORIGIN ["COM"]
properties('MP2/aug-cc-pvtz', properties = ['dipole'])
--------------------------------------------------------------------------

    Molecular point group: c1
  Charge       = 0
  Multiplicity = 1
  Basis Set: AUG-CC-PVTZ
    Blend: AUG-CC-PVTZ
  Basis Set: (AUG-CC-PVTZ AUX)
    Blend: AUG-CC-PVTZ-JKFIT

    Orbital Energies [Eh]
    ---------------------

    Doubly Occupied:

       1A   -490.034347     2A   -490.033443     3A    -65.174067
       4A    -65.173193     5A    -58.529391     6A    -58.528512
       7A    -58.527981     8A    -58.527953     9A    -58.527106
      10A    -58.527079    11A    -11.320358    12A    -11.318380
      13A    -11.272753    14A    -11.268939    15A    -11.266842
      16A    -11.266481    17A     -9.846798    18A     -9.845949
      19A     -7.458441    20A     -7.457588    21A     -7.451554
      22A     -7.451511    23A     -7.450711    24A     -7.450673
      25A     -3.202235    26A     -3.201371    27A     -3.198660
      28A     -3.198445    29A     -3.197800    30A     -3.197591
      31A     -3.189655    32A     -3.189648    33A     -3.188822
      34A     -3.188814    35A     -1.194420    36A     -1.098220
      37A     -1.069007    38A     -0.998656    39A     -0.980073
      40A     -0.853785    41A     -0.813992    42A     -0.719913
      43A     -0.667485    44A     -0.643574    45A     -0.593654
      46A     -0.590329    47A     -0.555388    48A     -0.521764
      49A     -0.496718    50A     -0.469842    51A     -0.431620
      52A     -0.428324    53A     -0.421728    54A     -0.355795
      55A     -0.342112

  @DF-RHF Final Energy: -5374.53132875752181

   => Energetics <=

    Nuclear Repulsion Energy =            764.1210673308335117
    One-Electron Energy =               -8997.4858099672692333
    Two-Electron Energy =                2858.8334138789132339
    Total Energy =                      -5374.5313287575218055
  Basis Set: (AUG-CC-PVTZ AUX)
    Blend: AUG-CC-PVTZ-RI
    Molecular point group: c1

    Geometry (in Angstrom), charge = 0, multiplicity = 1:

       Center              X                  Y                   Z               Mass
    ------------   -----------------  -----------------  -----------------  -----------------
         BR          -2.840347745992     0.545960721458     0.000044459246    78.918337600000
         BR           2.841664254008     0.545951721458    -0.000067540754    78.918337600000
         C           -0.012090745992     0.328601121458     0.000007359246    12.000000000000
         C           -1.194082745992    -0.411986278542     0.000029459246    12.000000000000
         C            1.195384254008    -0.411989278542     0.000007459246    12.000000000000
         C           -1.214259745992    -1.807208278542     0.000046459246    12.000000000000
         C            1.215539254008    -1.807208278542     0.000013459246    12.000000000000
         C            0.000636254008    -2.494292278542     0.000038459246    12.000000000000
         H            0.000662254008     1.393049721458    -0.000006540754     1.007825032230
         H           -2.159826745992    -2.340313278542     0.000079459246     1.007825032230
         H            2.161102254008    -2.340319278542     0.000001459246     1.007825032230
         H            0.000627254008    -3.581581278542     0.000034459246     1.007825032230

  Basis Set: AUG-CC-PVTZ
    Blend: AUG-CC-PVTZ
  Basis Set: (AUG-CC-PVTZ AUX)
    Blend: AUG-CC-PVTZ-JKFIT
	 Reference Energy          =   -5374.5313287575218055 [Eh]
	 Singles Energy            =      -0.0000000000000000 [Eh]
	 Same-Spin Energy          =      -0.4436900131654183 [Eh]
	 Opposite-Spin Energy      =      -1.2073876926542277 [Eh]
	 Correlation Energy        =      -1.6510777058196462 [Eh]
	 Total Energy              =   -5376.1824064633410671 [Eh]

	 ================> DF-SCS-MP2 Energies <==================
	-----------------------------------------------------------
	 SCS Same-Spin Scale       =       0.3333333333333333 [-]
	 SCS Opposite-Spin Scale   =       1.2000000000000000 [-]
	 SCS Same-Spin Energy      =      -0.1478966710551394 [Eh]
	 SCS Opposite-Spin Energy  =      -1.4488652311850732 [Eh]
	 SCS Correlation Energy    =      -1.5967619022402126 [Eh]
	 SCS Total Energy          =   -5376.1280906597621652 [Eh]
	-----------------------------------------------------------

  Dipole Moment: [D]
     X:     0.0316      Y:    -1.6317      Z:     0.0000     Total:     1.6320

*** Psi4 exiting successfully. Buy a developer a beer!
