                               Psi4 1.3.2 release

  ==> Input File <==

--------------------------------------------------------------------------
#psi4
#
memory 32 gb

molecule  {
0 1
 Br       -2.8410010     0.6223350     0.0000430
 Br        2.8410110     0.6223260    -0.0000690
  C        0.0687005     0.2554066     0.0000068
  C       -1.1947360    -0.3356120     0.0000280
  C        1.1947310    -0.3356150     0.0000060
  C       -1.2149130    -1.7308340     0.0000450
  C        1.2148860    -1.7308340     0.0000120
  C       -0.0000170    -2.4179180     0.0000370
  H        0.0000090     1.4694240    -0.0000080
  H       -2.1604800    -2.2639390     0.0000780
  H        2.1604490    -2.2639450     0.0000000
  H       -0.0000260    -3.5052070     0.0000330
units angstrom
no_reorient  #important for SAPT in psi4, default
symmetry c1  #important for SAPT in psi4, default
}

set PROPERTIES_ORIGIN ["COM"]
properties('MP2/aug-cc-pvtz', properties = ['dipole'])
--------------------------------------------------------------------------

    Molecular point group: c1
  Charge       = 0
  Multiplicity = 1
  Basis Set: AUG-CC-PVTZ
    Blend: AUG-CC-PVTZ
  Basis Set: (AUG-CC-PVTZ AUX)
    Blend: AUG-CC-PVTZ-JKFIT

    Orbital Energies [Eh]
    ---------------------

    Doubly Occupied:

       1A   -490.039779     2A   -490.034883     3A    -65.179314
       4A    -65.174571     5A    -58.534692     6A    -58.533212
       7A    -58.533187     8A    -58.529921     9A    -58.528467
      10A    -58.528442    11A    -11.315201    12A    -11.300583
      13A    -11.266434    14A    -11.266168    15A    -11.265153
      16A    -11.263483    17A     -9.851875    18A     -9.847255
      19A     -7.463635    20A     -7.458991    21A     -7.456507
      22A     -7.456469    23A     -7.451932    24A     -7.451897
      25A     -3.207534    26A     -3.203835    27A     -3.203622
      28A     -3.202825    29A     -3.199165    30A     -3.198962
      31A     -3.194488    32A     -3.194482    33A     -3.189955
      34A     -3.189948    35A     -1.210207    36A     -1.104104
      37A     -1.067011    38A     -1.007386    39A     -0.981717
      40A     -0.846304    41A     -0.830844    42A     -0.709618
      43A     -0.674296    44A     -0.621771    45A     -0.590469
      46A     -0.583591    47A     -0.567528    48A     -0.514303
      49A     -0.489367    50A     -0.472273    51A     -0.432871
      52A     -0.430071    53A     -0.425490    54A     -0.366660
      55A     -0.341416

  @DF-RHF Final Energy: -5374.50454850584265

   => Energetics <=

    Nuclear Repulsion Energy =            766.2346646973454654
    One-Electron Energy =               -9001.5101002240571688
    Two-Electron Energy =                2860.7708870208689405
    Total Energy =                      -5374.5045485058426493
  Basis Set: (AUG-CC-PVTZ AUX)
    Blend: AUG-CC-PVTZ-RI
    Molecular point group: c1

    Geometry (in Angstrom), charge = 0, multiplicity = 1:

       Center              X                  Y                   Z               Mass
    ------------   -----------------  -----------------  -----------------  -----------------
         BR          -2.844526744842     0.553635246359     0.000044413066    78.918337600000
         BR           2.837485255158     0.553626246359    -0.000067586934    78.918337600000
         C            0.065174755158     0.186706846359     0.000008213066    12.000000000000
         C           -1.198261744842    -0.404311753641     0.000029413066    12.000000000000
         C            1.191205255158    -0.404314753641     0.000007413066    12.000000000000
         C           -1.218438744842    -1.799533753641     0.000046413066    12.000000000000
         C            1.211360255158    -1.799533753641     0.000013413066    12.000000000000
         C           -0.003542744842    -2.486617753641     0.000038413066    12.000000000000
         H           -0.003516744842     1.400724246359    -0.000006586934     1.007825032230
         H           -2.164005744842    -2.332638753641     0.000079413066     1.007825032230
         H            2.156923255158    -2.332644753641     0.000001413066     1.007825032230
         H           -0.003551744842    -3.573906753641     0.000034413066     1.007825032230

  Basis Set: AUG-CC-PVTZ
    Blend: AUG-CC-PVTZ
  Basis Set: (AUG-CC-PVTZ AUX)
    Blend: AUG-CC-PVTZ-JKFIT
	 Reference Energy          =   -5374.5045485058426493 [Eh]
	 Singles Energy            =      -0.0000000000000000 [Eh]
	 Same-Spin Energy          =      -0.4439565823739828 [Eh]
	 Opposite-Spin Energy      =      -1.2081363618451244 [Eh]
	 Correlation Energy        =      -1.6520929442191072 [Eh]
	 Total Energy              =   -5376.1566414500621249 [Eh]

	 ================> DF-SCS-MP2 Energies <==================
	-----------------------------------------------------------
	 SCS Same-Spin Scale       =       0.3333333333333333 [-]
	 SCS Opposite-Spin Scale   =       1.2000000000000000 [-]
	 SCS Same-Spin Energy      =      -0.1479855274579943 [Eh]
	 SCS Opposite-Spin Energy  =      -1.4497636342141493 [Eh]
	 SCS Correlation Energy    =      -1.5977491616721435 [Eh]
	 SCS Total Energy          =   -5376.1022976675149039 [Eh]
	-----------------------------------------------------------

  Dipole Moment: [D]
     X:    -0.1949      Y:    -1.5650      Z:     0.0000     Total:     1.5771

*** Psi4 exiting successfully. Buy a developer a beer!
