                               Psi4 1.3.2 release

  ==> Input File <==

--------------------------------------------------------------------------
#psi4
#
memory 32 gb

molecule  {
0 1
 Br       -2.8410010     0.6223350     0.0000430
 Br        2.8410110     0.6223260    -0.0000690
  C        0.0000010     0.3842340     0.0000060
  C       -1.1947360    -0.3356120     0.0000280
  C        1.1947310    -0.3356150     0.0000060
  C       -1.2149130    -1.7308340     0.0000450
  C        1.2148860    -1.7308340     0.0000120
  C       -0.0000170    -2.4179180     0.0000370
  H        0.0000097     1.5694240    -0.0000093
  H       -2.1604800    -2.2639390     0.0000780
  H        2.1604490    -2.2639450     0.0000000
  H       -0.0000260    -3.5052070     0.0000330
units angstrom
no_reorient  #important for SAPT in psi4, default
symmetry c1  #important for SAPT in psi4, default
}

set PROPERTIES_ORIGIN ["COM"]
properties('MP2/aug-cc-pvtz', properties = ['dipole'])
--------------------------------------------------------------------------

    Molecular point group: c1
  Charge       = 0
  Multiplicity = 1
  Basis Set: AUG-CC-PVTZ
    Blend: AUG-CC-PVTZ
  Basis Set: (AUG-CC-PVTZ AUX)
    Blend: AUG-CC-PVTZ-JKFIT

    Orbital Energies [Eh]
    ---------------------

    Doubly Occupied:

       1A   -490.034203     2A   -490.034202     3A    -65.173919
       4A    -65.173918     5A    -58.529248     6A    -58.529247
       7A    -58.527829     8A    -58.527829     9A    -58.527800
      10A    -58.527800    11A    -11.318218    12A    -11.318204
      13A    -11.281719    14A    -11.268436    15A    -11.267094
      16A    -11.266539    17A     -9.846644    18A     -9.846644
      19A     -7.458307    20A     -7.458306    21A     -7.451386
      22A     -7.451386    23A     -7.451340    24A     -7.451339
      25A     -3.202112    26A     -3.202111    27A     -3.198521
      28A     -3.198520    29A     -3.198300    30A     -3.198300
      31A     -3.189467    32A     -3.189466    33A     -3.189459
      34A     -3.189459    35A     -1.195839    36A     -1.098824
      37A     -1.067409    38A     -0.997830    39A     -0.980271
      40A     -0.847193    41A     -0.817281    42A     -0.710758
      43A     -0.668779    44A     -0.630890    45A     -0.590324
      46A     -0.586867    47A     -0.557012    48A     -0.514060
      49A     -0.499135    50A     -0.469998    51A     -0.431692
      52A     -0.428188    53A     -0.422431    54A     -0.356939
      55A     -0.342478

  @DF-RHF Final Energy: -5374.52469645769634

   => Energetics <=

    Nuclear Repulsion Energy =            763.8448796967985572
    One-Electron Energy =               -8996.9562156311021681
    Two-Electron Energy =                2858.5866394766071608
    Total Energy =                      -5374.5246964576963364
  Basis Set: (AUG-CC-PVTZ AUX)
    Blend: AUG-CC-PVTZ-RI
    Molecular point group: c1

    Geometry (in Angstrom), charge = 0, multiplicity = 1:

       Center              X                  Y                   Z               Mass
    ------------   -----------------  -----------------  -----------------  -----------------
         BR          -2.841001707721     0.546594045865     0.000044459717    78.918337600000
         BR           2.841010292279     0.546585045865    -0.000067540283    78.918337600000
         C            0.000000292279     0.308493045865     0.000007459717    12.000000000000
         C           -1.194736707721    -0.411352954135     0.000029459717    12.000000000000
         C            1.194730292279    -0.411355954135     0.000007459717    12.000000000000
         C           -1.214913707721    -1.806574954135     0.000046459717    12.000000000000
         C            1.214885292279    -1.806574954135     0.000013459717    12.000000000000
         C           -0.000017707721    -2.493658954135     0.000038459717    12.000000000000
         H            0.000008992279     1.493683045865    -0.000007840283     1.007825032230
         H           -2.160480707721    -2.339679954135     0.000079459717     1.007825032230
         H            2.160448292279    -2.339685954135     0.000001459717     1.007825032230
         H           -0.000026707721    -3.580947954135     0.000034459717     1.007825032230

  Basis Set: AUG-CC-PVTZ
    Blend: AUG-CC-PVTZ
  Basis Set: (AUG-CC-PVTZ AUX)
    Blend: AUG-CC-PVTZ-JKFIT
	 Reference Energy          =   -5374.5246964576963364 [Eh]
	 Singles Energy            =      -0.0000000000000000 [Eh]
	 Same-Spin Energy          =      -0.4440419048993875 [Eh]
	 Opposite-Spin Energy      =      -1.2081568894644197 [Eh]
	 Correlation Energy        =      -1.6521987943638072 [Eh]
	 Total Energy              =   -5376.1768952520596940 [Eh]

	 ================> DF-SCS-MP2 Energies <==================
	-----------------------------------------------------------
	 SCS Same-Spin Scale       =       0.3333333333333333 [-]
	 SCS Opposite-Spin Scale   =       1.2000000000000000 [-]
	 SCS Same-Spin Energy      =      -0.1480139682997958 [Eh]
	 SCS Opposite-Spin Energy  =      -1.4497882673573035 [Eh]
	 SCS Correlation Energy    =      -1.5978022356570993 [Eh]
	 SCS Total Energy          =   -5376.1224986933530090 [Eh]
	-----------------------------------------------------------

  Dipole Moment: [D]
     X:    -0.0000      Y:    -1.6006      Z:     0.0000     Total:     1.6006

*** Psi4 exiting successfully. Buy a developer a beer!
