                               Psi4 1.3.2 release

  ==> Input File <==

--------------------------------------------------------------------------
#psi4
#
memory 32 gb

molecule  {
0 1
 Br       -2.8410010     0.6223350     0.0000430
 Br        2.8410110     0.6223260    -0.0000690
  C        0.0000010     0.3842340     0.0000060
  C       -1.2811681    -0.2853179     0.0000288
  C        1.1947310    -0.3356150     0.0000060
  C       -1.2149130    -1.7308340     0.0000450
  C        1.2148860    -1.7308340     0.0000120
  C       -0.0000170    -2.4179180     0.0000370
  H        0.0000090     1.4694240    -0.0000080
  H       -2.1604800    -2.2639390     0.0000780
  H        2.1604490    -2.2639450     0.0000000
  H       -0.0000260    -3.5052070     0.0000330
units angstrom
no_reorient  #important for SAPT in psi4, default
symmetry c1  #important for SAPT in psi4, default
}

set PROPERTIES_ORIGIN ["COM"]
properties('MP2/aug-cc-pvtz', properties = ['dipole'])
--------------------------------------------------------------------------

    Molecular point group: c1
  Charge       = 0
  Multiplicity = 1
  Basis Set: AUG-CC-PVTZ
    Blend: AUG-CC-PVTZ
  Basis Set: (AUG-CC-PVTZ AUX)
    Blend: AUG-CC-PVTZ-JKFIT

    Orbital Energies [Eh]
    ---------------------

    Doubly Occupied:

       1A   -490.042929     2A   -490.032616     3A    -65.183160
       4A    -65.172318     5A    -58.538405     6A    -58.537070
       7A    -58.537027     8A    -58.527651     9A    -58.526227
      10A    -58.526205    11A    -11.320570    12A    -11.314594
      13A    -11.273472    14A    -11.269163    15A    -11.265546
      16A    -11.264332    17A     -9.856747    18A     -9.845033
      19A     -7.468673    20A     -7.461563    21A     -7.461435
      22A     -7.456703    23A     -7.449758    24A     -7.449742
      25A     -3.212591    26A     -3.208729    27A     -3.208369
      28A     -3.200511    29A     -3.199593    30A     -3.199585
      31A     -3.196901    32A     -3.196714    33A     -3.187849
      34A     -3.187841    35A     -1.186459    36A     -1.109136
      37A     -1.067931    38A     -0.997103    39A     -0.976350
      40A     -0.844412    41A     -0.813054    42A     -0.710865
      43A     -0.661581    44A     -0.639640    45A     -0.595717
      46A     -0.579197    47A     -0.550538    48A     -0.527264
      49A     -0.502952    50A     -0.477328    51A     -0.432525
      52A     -0.431560    53A     -0.422064    54A     -0.351052
      55A     -0.332692

  @DF-RHF Final Energy: -5374.52059635854494

   => Energetics <=

    Nuclear Repulsion Energy =            765.3581948645543207
    One-Electron Energy =               -8999.7794980399467022
    Two-Electron Energy =                2859.9007068168471051
    Total Energy =                      -5374.5205963585449354
  Basis Set: (AUG-CC-PVTZ AUX)
    Blend: AUG-CC-PVTZ-RI
    Molecular point group: c1

    Geometry (in Angstrom), charge = 0, multiplicity = 1:

       Center              X                  Y                   Z               Mass
    ------------   -----------------  -----------------  -----------------  -----------------
         BR          -2.836566787104     0.544444342829     0.000044413066    78.918337600000
         BR           2.845445212896     0.544435342829    -0.000067586934    78.918337600000
         C            0.004435212896     0.306343342829     0.000007413066    12.000000000000
         C           -1.276733887104    -0.363208557171     0.000030213066    12.000000000000
         C            1.199165212896    -0.413505657171     0.000007413066    12.000000000000
         C           -1.210478787104    -1.808724657171     0.000046413066    12.000000000000
         C            1.219320212896    -1.808724657171     0.000013413066    12.000000000000
         C            0.004417212896    -2.495808657171     0.000038413066    12.000000000000
         H            0.004443212896     1.391533342829    -0.000006586934     1.007825032230
         H           -2.156045787104    -2.341829657171     0.000079413066     1.007825032230
         H            2.164883212896    -2.341835657171     0.000001413066     1.007825032230
         H            0.004408212896    -3.583097657171     0.000034413066     1.007825032230

  Basis Set: AUG-CC-PVTZ
    Blend: AUG-CC-PVTZ
  Basis Set: (AUG-CC-PVTZ AUX)
    Blend: AUG-CC-PVTZ-JKFIT
	 Reference Energy          =   -5374.5205963585449354 [Eh]
	 Singles Energy            =      -0.0000000000000000 [Eh]
	 Same-Spin Energy          =      -0.4450863688526858 [Eh]
	 Opposite-Spin Energy      =      -1.2095860277267110 [Eh]
	 Correlation Energy        =      -1.6546723965793968 [Eh]
	 Total Energy              =   -5376.1752687551243071 [Eh]

	 ================> DF-SCS-MP2 Energies <==================
	-----------------------------------------------------------
	 SCS Same-Spin Scale       =       0.3333333333333333 [-]
	 SCS Opposite-Spin Scale   =       1.2000000000000000 [-]
	 SCS Same-Spin Energy      =      -0.1483621229508953 [Eh]
	 SCS Opposite-Spin Energy  =      -1.4515032332720532 [Eh]
	 SCS Correlation Energy    =      -1.5998653562229486 [Eh]
	 SCS Total Energy          =   -5376.1204617147677709 [Eh]
	-----------------------------------------------------------

  Dipole Moment: [D]
     X:    -0.4348      Y:    -1.3784      Z:     0.0000     Total:     1.4454

*** Psi4 exiting successfully. Buy a developer a beer!
