                               Psi4 1.4a3.dev225

  ==> Input File <==

--------------------------------------------------------------------------
#psi4
#
memory 32 gb

molecule  {
0 1
 Br        2.8415020    -0.6219390     0.0000430
 Br       -2.8415020    -0.6219380    -0.0000580
  C        0.0000000    -0.3851670    -0.0000040
  C        1.2117250     0.3453592     0.0000264
  C       -1.1945960     0.3350330    -0.0000150
  C        1.2148590     1.7299900     0.0000420
  C       -1.2148570     1.7299910    -0.0000010
  C        0.0000010     2.4176760     0.0000290
  H        0.0000000    -1.4703640    -0.0000170
  H        2.1606700     2.2629480     0.0000660
  H       -2.1606680     2.2629490    -0.0000110
  H        0.0000020     3.5048130     0.0000400
units angstrom
no_reorient  #important for SAPT in psi4, default
symmetry c1  #important for SAPT in psi4, default
}

set PROPERTIES_ORIGIN ["COM"]
properties('MP2/aug-cc-pvtz', properties = ['dipole'])
--------------------------------------------------------------------------

    Molecular point group: c1
  Charge       = 0
  Multiplicity = 1
  Basis Set: AUG-CC-PVTZ
    Blend: AUG-CC-PVTZ
  Basis Set: (AUG-CC-PVTZ AUX)
    Blend: AUG-CC-PVTZ-JKFIT

    Orbital Energies [Eh]
    ---------------------

    Doubly Occupied:

       1A   -490.035289     2A   -490.034097     3A    -65.175042
       4A    -65.173816     5A    -58.530365     6A    -58.529144
       7A    -58.528954     8A    -58.528925     9A    -58.527728
      10A    -58.527701    11A    -11.317813    12A    -11.317282
      13A    -11.273378    14A    -11.268121    15A    -11.266317
      16A    -11.265033    17A     -9.847833    18A     -9.846544
      19A     -7.459513    20A     -7.458199    21A     -7.452581
      22A     -7.452536    23A     -7.451288    24A     -7.451253
      25A     -3.203326    26A     -3.201997    27A     -3.199712
      28A     -3.199491    29A     -3.198407    30A     -3.198203
      31A     -3.190664    32A     -3.190657    33A     -3.189382
      34A     -3.189375    35A     -1.194958    36A     -1.100108
      37A     -1.068111    38A     -0.998125    39A     -0.981341
      40A     -0.853042    41A     -0.814430    42A     -0.717272
      43A     -0.667789    44A     -0.639818    45A     -0.591367
      46A     -0.589926    47A     -0.555873    48A     -0.521254
      49A     -0.498779    50A     -0.471014    51A     -0.431958
      52A     -0.428975    53A     -0.422394    54A     -0.354529
      55A     -0.342969

  @DF-RHF Final Energy: -5374.53183797564634

   => Energetics <=

    Nuclear Repulsion Energy =            764.3903430455295620
    One-Electron Energy =               -8997.9963632147755561
    Two-Electron Energy =                2859.0741821935989719
    Total Energy =                      -5374.5318379756463401
  Basis Set: (AUG-CC-PVTZ AUX)
    Blend: AUG-CC-PVTZ-RI
    Molecular point group: c1

    Geometry (in Angstrom), charge = 0, multiplicity = 1:

       Center              X                  Y                   Z               Mass
    ------------   -----------------  -----------------  -----------------  -----------------
         BR           2.840622922687    -0.547202654951     0.000043754121    78.918337600000
         BR          -2.842381077313    -0.547201654951    -0.000057245879    78.918337600000
         C           -0.000879077313    -0.310430654951    -0.000003245879    12.000000000000
         C            1.210845922687     0.420095545049     0.000027154121    12.000000000000
         C           -1.195475077313     0.409769345049    -0.000014245879    12.000000000000
         C            1.213979922687     1.804726345049     0.000042754121    12.000000000000
         C           -1.215736077313     1.804727345049    -0.000000245879    12.000000000000
         C           -0.000878077313     2.492412345049     0.000029754121    12.000000000000
         H           -0.000879077313    -1.395627654951    -0.000016245879     1.007825032230
         H            2.159790922687     2.337684345049     0.000066754121     1.007825032230
         H           -2.161547077313     2.337685345049    -0.000010245879     1.007825032230
         H           -0.000877077313     3.579549345049     0.000040754121     1.007825032230

  Basis Set: AUG-CC-PVTZ
    Blend: AUG-CC-PVTZ
  Basis Set: (AUG-CC-PVTZ AUX)
    Blend: AUG-CC-PVTZ-JKFIT
	 Reference Energy          =   -5374.5318379756463401 [Eh]
	 Singles Energy            =      -0.0000000000000000 [Eh]
	 Same-Spin Energy          =      -0.4437476291705250 [Eh]
	 Opposite-Spin Energy      =      -1.2073979308801515 [Eh]
	 Correlation Energy        =      -1.6511455600506766 [Eh]
	 Total Energy              =   -5376.1829835356966214 [Eh]

	 ================> DF-SCS-MP2 Energies <==================
	-----------------------------------------------------------
	 SCS Same-Spin Scale       =       0.3333333333333333 [-]
	 SCS Opposite-Spin Scale   =       1.2000000000000000 [-]
	 SCS Same-Spin Energy      =      -0.1479158763901750 [Eh]
	 SCS Opposite-Spin Energy  =      -1.4488775170561816 [Eh]
	 SCS Correlation Energy    =      -1.5967933934463565 [Eh]
	 SCS Total Energy          =   -5376.1286313690925454 [Eh]
	-----------------------------------------------------------

  Dipole Moment: [D]
     X:     0.0465      Y:     1.5965      Z:     0.0000     Total:     1.5972

*** Psi4 exiting successfully. Buy a developer a beer!
