                               Psi4 1.4a3.dev225

  ==> Input File <==

--------------------------------------------------------------------------
#psi4
#
memory 32 gb

molecule  {
0 1
 Br        2.8415020    -0.6219390     0.0000430
 Br       -2.8415020    -0.6219380    -0.0000580
  C        0.0000000    -0.3851670    -0.0000040
  C        1.1945970     0.3350330     0.0000260
  C       -1.1945960     0.3350330    -0.0000150
  C        1.2148590     1.7299900     0.0000420
  C       -1.2148570     1.7299910    -0.0000010
  C        0.0000010     2.4176760     0.0000290
  H        0.0000000    -1.4903640    -0.0000172
  H        2.1606700     2.2629480     0.0000660
  H       -2.1606680     2.2629490    -0.0000110
  H        0.0000020     3.5048130     0.0000400
units angstrom
no_reorient  #important for SAPT in psi4, default
symmetry c1  #important for SAPT in psi4, default
}

set PROPERTIES_ORIGIN ["COM"]
properties('MP2/aug-cc-pvtz', properties = ['dipole'])
--------------------------------------------------------------------------

    Molecular point group: c1
  Charge       = 0
  Multiplicity = 1
  Basis Set: AUG-CC-PVTZ
    Blend: AUG-CC-PVTZ
  Basis Set: (AUG-CC-PVTZ AUX)
    Blend: AUG-CC-PVTZ-JKFIT

    Orbital Energies [Eh]
    ---------------------

    Doubly Occupied:

       1A   -490.034319     2A   -490.034319     3A    -65.174036
       4A    -65.174036     5A    -58.529364     6A    -58.529364
       7A    -58.527948     8A    -58.527948     9A    -58.527920
      10A    -58.527920    11A    -11.317773    12A    -11.317762
      13A    -11.273776    14A    -11.268358    15A    -11.266757
      16A    -11.266290    17A     -9.846763    18A     -9.846763
      19A     -7.458419    20A     -7.458419    21A     -7.451508
      22A     -7.451508    23A     -7.451468    24A     -7.451468
      25A     -3.202219    26A     -3.202218    27A     -3.198631
      28A     -3.198630    29A     -3.198419    30A     -3.198418
      31A     -3.189599    32A     -3.189599    33A     -3.189591
      34A     -3.189591    35A     -1.196084    36A     -1.098778
      37A     -1.068366    38A     -0.999391    39A     -0.980156
      40A     -0.850861    41A     -0.816873    42A     -0.716170
      43A     -0.668583    44A     -0.637908    45A     -0.591754
      46A     -0.590086    47A     -0.556799    48A     -0.518372
      49A     -0.498855    50A     -0.470067    51A     -0.431707
      52A     -0.428438    53A     -0.422489    54A     -0.356840
      55A     -0.342341

  @DF-RHF Final Energy: -5374.53171877911882

   => Energetics <=

    Nuclear Repulsion Energy =            764.2745886149621128
    One-Electron Energy =               -8997.7885324299240892
    Two-Electron Energy =                2858.9822250358424753
    Total Energy =                      -5374.5317187791188189
  Basis Set: (AUG-CC-PVTZ AUX)
    Blend: AUG-CC-PVTZ-RI
    Molecular point group: c1

    Geometry (in Angstrom), charge = 0, multiplicity = 1:

       Center              X                  Y                   Z               Mass
    ------------   -----------------  -----------------  -----------------  -----------------
         BR           2.841501777518    -0.546586619770     0.000043775507    78.918337600000
         BR          -2.841502222482    -0.546585619770    -0.000057224493    78.918337600000
         C           -0.000000222482    -0.309814619770    -0.000003224493    12.000000000000
         C            1.194596777518     0.410385380230     0.000026775507    12.000000000000
         C           -1.194596222482     0.410385380230    -0.000014224493    12.000000000000
         C            1.214858777518     1.805342380230     0.000042775507    12.000000000000
         C           -1.214857222482     1.805343380230    -0.000000224493    12.000000000000
         C            0.000000777518     2.493028380230     0.000029775507    12.000000000000
         H           -0.000000222482    -1.415011619770    -0.000016424493     1.007825032230
         H            2.160669777518     2.338300380230     0.000066775507     1.007825032230
         H           -2.160668222482     2.338301380230    -0.000010224493     1.007825032230
         H            0.000001777518     3.580165380230     0.000040775507     1.007825032230

  Basis Set: AUG-CC-PVTZ
    Blend: AUG-CC-PVTZ
  Basis Set: (AUG-CC-PVTZ AUX)
    Blend: AUG-CC-PVTZ-JKFIT
	 Reference Energy          =   -5374.5317187791188189 [Eh]
	 Singles Energy            =      -0.0000000000000000 [Eh]
	 Same-Spin Energy          =      -0.4437363663749585 [Eh]
	 Opposite-Spin Energy      =      -1.2073867574489565 [Eh]
	 Correlation Energy        =      -1.6511231238239150 [Eh]
	 Total Energy              =   -5376.1828419029425277 [Eh]

	 ================> DF-SCS-MP2 Energies <==================
	-----------------------------------------------------------
	 SCS Same-Spin Scale       =       0.3333333333333333 [-]
	 SCS Opposite-Spin Scale   =       1.2000000000000000 [-]
	 SCS Same-Spin Energy      =      -0.1479121221249862 [Eh]
	 SCS Opposite-Spin Energy  =      -1.4488641089387477 [Eh]
	 SCS Correlation Energy    =      -1.5967762310637339 [Eh]
	 SCS Total Energy          =   -5376.1284950101826325 [Eh]
	-----------------------------------------------------------

  Dipole Moment: [D]
     X:     0.0000      Y:     1.6131      Z:     0.0000     Total:     1.6131

*** Psi4 exiting successfully. Buy a developer a beer!
