                               Psi4 1.3.2 release

  ==> Input File <==

--------------------------------------------------------------------------
#psi4
#
memory 32 gb

molecule  {
0 1
 Br       -2.8574687     0.5934578     0.0000435
 Br        2.8410110     0.6223260    -0.0000690
  C        0.0000010     0.3842340     0.0000060
  C       -1.1947360    -0.3356120     0.0000280
  C        1.1947310    -0.3356150     0.0000060
  C       -1.2149130    -1.7308340     0.0000450
  C        1.2148860    -1.7308340     0.0000120
  C       -0.0000170    -2.4179180     0.0000370
  H        0.0000090     1.4694240    -0.0000080
  H       -2.1604800    -2.2639390     0.0000780
  H        2.1604490    -2.2639450     0.0000000
  H       -0.0000260    -3.5052070     0.0000330
units angstrom
no_reorient  #important for SAPT in psi4, default
symmetry c1  #important for SAPT in psi4, default
}

set PROPERTIES_ORIGIN ["COM"]
properties('MP2/aug-cc-pvtz', properties = ['dipole'])
--------------------------------------------------------------------------

    Molecular point group: c1
  Charge       = 0
  Multiplicity = 1
  Basis Set: AUG-CC-PVTZ
    Blend: AUG-CC-PVTZ
  Basis Set: (AUG-CC-PVTZ AUX)
    Blend: AUG-CC-PVTZ-JKFIT

    Orbital Energies [Eh]
    ---------------------

    Doubly Occupied:

       1A   -490.034461     2A   -490.034364     3A    -65.174177
       4A    -65.174082     5A    -58.529505     6A    -58.529409
       7A    -58.528089     8A    -58.528061     9A    -58.527994
      10A    -58.527966    11A    -11.317822    12A    -11.317673
      13A    -11.271945    14A    -11.268109    15A    -11.266529
      16A    -11.265976    17A     -9.846903    18A     -9.846808
      19A     -7.458559    20A     -7.458463    21A     -7.451647
      22A     -7.451608    23A     -7.451554    24A     -7.451514
      25A     -3.202359    26A     -3.202262    27A     -3.198770
      28A     -3.198675    29A     -3.198560    30A     -3.198464
      31A     -3.189738    32A     -3.189731    33A     -3.189646
      34A     -3.189639    35A     -1.196169    36A     -1.098932
      37A     -1.068412    38A     -1.000376    39A     -0.979837
      40A     -0.851717    41A     -0.816964    42A     -0.717853
      43A     -0.668537    44A     -0.639610    45A     -0.592982
      46A     -0.590023    47A     -0.556753    48A     -0.518901
      49A     -0.499075    50A     -0.470178    51A     -0.431631
      52A     -0.428453    53A     -0.422617    54A     -0.357070
      55A     -0.342121

  @DF-RHF Final Energy: -5374.53237205348614

   => Energetics <=

    Nuclear Repulsion Energy =            764.0883961386490455
    One-Electron Energy =               -8997.4029925210052170
    Two-Electron Energy =                2858.7822243288687787
    Total Energy =                      -5374.5323720534870517
  Basis Set: (AUG-CC-PVTZ AUX)
    Blend: AUG-CC-PVTZ-RI
    Molecular point group: c1

    Geometry (in Angstrom), charge = 0, multiplicity = 1:

       Center              X                  Y                   Z               Mass
    ------------   -----------------  -----------------  -----------------  -----------------
         BR          -2.851912408257     0.527892343893     0.000044785390    78.918337600000
         BR           2.846567291743     0.556760543893    -0.000067714610    78.918337600000
         C            0.005557291743     0.318668543893     0.000007285390    12.000000000000
         C           -1.189179708257    -0.401177456107     0.000029285390    12.000000000000
         C            1.200287291743    -0.401180456107     0.000007285390    12.000000000000
         C           -1.209356708257    -1.796399456107     0.000046285390    12.000000000000
         C            1.220442291743    -1.796399456107     0.000013285390    12.000000000000
         C            0.005539291743    -2.483483456107     0.000038285390    12.000000000000
         H            0.005565291743     1.403858543893    -0.000006714610     1.007825032230
         H           -2.154923708257    -2.329504456107     0.000079285390     1.007825032230
         H            2.166005291743    -2.329510456107     0.000001285390     1.007825032230
         H            0.005530291743    -3.570772456107     0.000034285390     1.007825032230

  Basis Set: AUG-CC-PVTZ
    Blend: AUG-CC-PVTZ
  Basis Set: (AUG-CC-PVTZ AUX)
    Blend: AUG-CC-PVTZ-JKFIT
	 Reference Energy          =   -5374.5323720534861422 [Eh]
	 Singles Energy            =      -0.0000000000000000 [Eh]
	 Same-Spin Energy          =      -0.4436678753884432 [Eh]
	 Opposite-Spin Energy      =      -1.2072434443106834 [Eh]
	 Correlation Energy        =      -1.6509113196991265 [Eh]
	 Total Energy              =   -5376.1832833731850769 [Eh]

	 ================> DF-SCS-MP2 Energies <==================
	-----------------------------------------------------------
	 SCS Same-Spin Scale       =       0.3333333333333333 [-]
	 SCS Opposite-Spin Scale   =       1.2000000000000000 [-]
	 SCS Same-Spin Energy      =      -0.1478892917961477 [Eh]
	 SCS Opposite-Spin Energy  =      -1.4486921331728200 [Eh]
	 SCS Correlation Energy    =      -1.5965814249689676 [Eh]
	 SCS Total Energy          =   -5376.1289534784555144 [Eh]
	-----------------------------------------------------------

  Dipole Moment: [D]
     X:     0.0066      Y:    -1.6089      Z:     0.0000     Total:     1.6089

*** Psi4 exiting successfully. Buy a developer a beer!
