                               Psi4 1.3.2 release

  ==> Input File <==

--------------------------------------------------------------------------
#psi4
#
memory 32 gb

molecule  {
-1 1
  C        0.2864700    -1.2064390    -0.0000050
  C       -1.1050350    -1.1994800     0.0000040
  C       -1.8315300     0.0000000    -0.0000020
  C       -1.1050350     1.1994800     0.0000050
  C        0.2864700     1.2064400    -0.0000060
  C        1.0822590     0.0000000    -0.0000150
  O        2.1571420     0.0000000     0.0000061
  H        0.8322390    -2.1510540     0.0000040
  H       -1.6412820    -2.1526450     0.0000040
  H       -2.9206450    -0.0000010     0.0000130
  H       -1.6412830     2.1526450     0.0000060
  H        0.8322370     2.1510550     0.0000020
units angstrom
no_reorient  #important for SAPT in psi4, default
symmetry c1  #important for SAPT in psi4, default
}

set PROPERTIES_ORIGIN ["COM"]
properties('MP2/aug-cc-pvtz', properties = ['dipole'])
--------------------------------------------------------------------------

    Molecular point group: c1
  Charge       = -1
  Multiplicity = 1
  Basis Set: AUG-CC-PVTZ
    Blend: AUG-CC-PVTZ
  Basis Set: (AUG-CC-PVTZ AUX)
    Blend: AUG-CC-PVTZ-JKFIT

    Orbital Energies [Eh]
    ---------------------

    Doubly Occupied:

       1A    -20.300675     2A    -11.083230     3A    -11.064832
       4A    -11.064826     5A    -11.028335     6A    -11.016986
       7A    -11.016975     8A     -1.265953     9A     -0.938416
      10A     -0.821784    11A     -0.777462    12A     -0.644749
      13A     -0.602159    14A     -0.500463    15A     -0.473419
      16A     -0.468807    17A     -0.415813    18A     -0.409777
      19A     -0.393585    20A     -0.335002    21A     -0.331988
      22A     -0.281457    23A     -0.189316    24A     -0.161600
      25A     -0.069640

  @DF-RHF Final Energy:  -305.03949561951345

   => Energetics <=

    Nuclear Repulsion Energy =            265.5944825052058604
    One-Electron Energy =                -949.9534544561435041
    Two-Electron Energy =                 379.3194763314241982
    Total Energy =                       -305.0394956195134455
  Basis Set: (AUG-CC-PVTZ AUX)
    Blend: AUG-CC-PVTZ-RI
    Molecular point group: c1

    Geometry (in Angstrom), charge = -1, multiplicity = 1:

       Center              X                  Y                   Z               Mass
    ------------   -----------------  -----------------  -----------------  -----------------
         C            0.272580026228    -1.206439128985    -0.000003912182    12.000000000000
         C           -1.118924973772    -1.199480128985     0.000005087818    12.000000000000
         C           -1.845419973772    -0.000000128985    -0.000000912182    12.000000000000
         C           -1.118924973772     1.199479871015     0.000006087818    12.000000000000
         C            0.272580026228     1.206439871015    -0.000004912182    12.000000000000
         C            1.068369026228    -0.000000128985    -0.000013912182    12.000000000000
         O            2.143252026228    -0.000000128985     0.000007187818    15.994914619570
         H            0.818349026228    -2.151054128985     0.000005087818     1.007825032230
         H           -1.655171973772    -2.152645128985     0.000005087818     1.007825032230
         H           -2.934534973772    -0.000001128985     0.000014087818     1.007825032230
         H           -1.655172973772     2.152644871015     0.000007087818     1.007825032230
         H            0.818347026228     2.151054871015     0.000003087818     1.007825032230

  Basis Set: AUG-CC-PVTZ
    Blend: AUG-CC-PVTZ
  Basis Set: (AUG-CC-PVTZ AUX)
    Blend: AUG-CC-PVTZ-JKFIT
	 Reference Energy          =    -305.0394956195134455 [Eh]
	 Singles Energy            =      -0.0000000000000000 [Eh]
	 Same-Spin Energy          =      -0.3296613377304136 [Eh]
	 Opposite-Spin Energy      =      -1.0050819494333707 [Eh]
	 Correlation Energy        =      -1.3347432871637843 [Eh]
	 Total Energy              =    -306.3742389066772489 [Eh]

	 ================> DF-SCS-MP2 Energies <==================
	-----------------------------------------------------------
	 SCS Same-Spin Scale       =       0.3333333333333333 [-]
	 SCS Opposite-Spin Scale   =       1.2000000000000000 [-]
	 SCS Same-Spin Energy      =      -0.1098871125768045 [Eh]
	 SCS Opposite-Spin Energy  =      -1.2060983393200448 [Eh]
	 SCS Correlation Energy    =      -1.3159854518968495 [Eh]
	 SCS Total Energy          =    -306.3554810714102814 [Eh]
	-----------------------------------------------------------

  Dipole Moment: [D]
     X:    -2.1440      Y:     0.0000      Z:     0.0000     Total:     2.1440

*** Psi4 exiting successfully. Buy a developer a beer!
