                               Psi4 1.4a3.dev225

  ==> Input File <==

--------------------------------------------------------------------------
#psi4
#
memory 32 gb

molecule  {
-1 1
  C        0.0000010     0.2878930     1.2051000
  C        0.0000010    -1.1055730     1.2008750
  C        0.0000040    -1.8274530     0.0000000
  C        0.0000010    -1.1055730    -1.2008750
  C        0.0000010     0.2878930    -1.2051000
  C        0.0000030     1.0721960     0.0000000
  O       -0.0000088     2.3402180     0.0000000
  H       -0.0000030     0.8289580     2.1521280
  H        0.0000010    -1.6403820     2.1520340
  H        0.0000030    -2.9151880     0.0000000
  H        0.0000010    -1.6403820    -2.1520340
  H       -0.0000030     0.8289580    -2.1521280
units angstrom
no_reorient  #important for SAPT in psi4, default
symmetry c1  #important for SAPT in psi4, default
}

set PROPERTIES_ORIGIN ["COM"]
properties('MP2/aug-cc-pvtz', properties = ['dipole'])
--------------------------------------------------------------------------

    Molecular point group: c1
  Charge       = -1
  Multiplicity = 1
  Basis Set: AUG-CC-PVTZ
    Blend: AUG-CC-PVTZ
  Basis Set: (AUG-CC-PVTZ AUX)
    Blend: AUG-CC-PVTZ-JKFIT

    Orbital Energies [Eh]
    ---------------------

    Doubly Occupied:

       1A    -20.287300     2A    -11.104613     3A    -11.076726
       4A    -11.076713     5A    -11.049781     6A    -11.039656
       7A    -11.039645     8A     -1.117535     9A     -0.953555
      10A     -0.835187    11A     -0.796300    12A     -0.646230
      13A     -0.620036    14A     -0.512783    15A     -0.457208
      16A     -0.454236    17A     -0.408109    18A     -0.390040
      19A     -0.349843    20A     -0.335296    21A     -0.324650
      22A     -0.269134    23A     -0.196710    24A     -0.172103
      25A     -0.088362

  @DF-RHF Final Energy:  -305.09005740416114

   => Energetics <=

    Nuclear Repulsion Energy =            259.5776340638877286
    One-Electron Energy =                -938.1318889352613724
    Two-Electron Energy =                 373.4641974672124434
    Total Energy =                       -305.0900574041611435
  Basis Set: (AUG-CC-PVTZ AUX)
    Blend: AUG-CC-PVTZ-RI
    Molecular point group: c1

    Geometry (in Angstrom), charge = -1, multiplicity = 1:

       Center              X                  Y                   Z               Mass
    ------------   -----------------  -----------------  -----------------  -----------------
         C            0.000001104941     0.243063851088     1.205100000000    12.000000000000
         C            0.000001104941    -1.150402148912     1.200875000000    12.000000000000
         C            0.000004104941    -1.872282148912     0.000000000000    12.000000000000
         C            0.000001104941    -1.150402148912    -1.200875000000    12.000000000000
         C            0.000001104941     0.243063851088    -1.205100000000    12.000000000000
         C            0.000003104941     1.027366851088     0.000000000000    12.000000000000
         O           -0.000008695059     2.295388851088     0.000000000000    15.994914619570
         H           -0.000002895059     0.784128851088     2.152128000000     1.007825032230
         H            0.000001104941    -1.685211148912     2.152034000000     1.007825032230
         H            0.000003104941    -2.960017148912     0.000000000000     1.007825032230
         H            0.000001104941    -1.685211148912    -2.152034000000     1.007825032230
         H           -0.000002895059     0.784128851088    -2.152128000000     1.007825032230

  Basis Set: AUG-CC-PVTZ
    Blend: AUG-CC-PVTZ
  Basis Set: (AUG-CC-PVTZ AUX)
    Blend: AUG-CC-PVTZ-JKFIT
	 Reference Energy          =    -305.0900574041611435 [Eh]
	 Singles Energy            =      -0.0000000000000000 [Eh]
	 Same-Spin Energy          =      -0.3336130090455462 [Eh]
	 Opposite-Spin Energy      =      -1.0135347773143826 [Eh]
	 Correlation Energy        =      -1.3471477863599288 [Eh]
	 Total Energy              =    -306.4372051905210697 [Eh]

	 ================> DF-SCS-MP2 Energies <==================
	-----------------------------------------------------------
	 SCS Same-Spin Scale       =       0.3333333333333333 [-]
	 SCS Opposite-Spin Scale   =       1.2000000000000000 [-]
	 SCS Same-Spin Energy      =      -0.1112043363485154 [Eh]
	 SCS Opposite-Spin Energy  =      -1.2162417327772590 [Eh]
	 SCS Correlation Energy    =      -1.3274460691257743 [Eh]
	 SCS Total Energy          =    -306.4175034732868994 [Eh]
	-----------------------------------------------------------

  Dipole Moment: [D]
     X:     0.0000      Y:    -4.2571      Z:     0.0000     Total:     4.2571

*** Psi4 exiting successfully. Buy a developer a beer!
