                               Psi4 1.3.2 release

  ==> Input File <==

--------------------------------------------------------------------------
#psi4
#
memory 32 gb

molecule  {
-1 1
  C        0.2864700    -1.2064390    -0.0000050
  C       -1.1050350    -1.1994800     0.0000040
  C       -1.8315300     0.0000000    -0.0000020
  C       -1.1050350     1.1994800     0.0000050
  C        0.2864700     1.2064400    -0.0000060
  C        1.0822590     0.0000000    -0.0000150
  O        2.4571420     0.0000000     0.0000120
  H        0.8322390    -2.1510540     0.0000040
  H       -1.6412820    -2.1526450     0.0000040
  H       -2.9206450    -0.0000010     0.0000130
  H       -1.6412830     2.1526450     0.0000060
  H        0.8322370     2.1510550     0.0000020
units angstrom
no_reorient  #important for SAPT in psi4, default
symmetry c1  #important for SAPT in psi4, default
}

set PROPERTIES_ORIGIN ["COM"]
properties('MP2/aug-cc-pvtz', properties = ['dipole'])
--------------------------------------------------------------------------

    Molecular point group: c1
  Charge       = -1
  Multiplicity = 1
  Basis Set: AUG-CC-PVTZ
    Blend: AUG-CC-PVTZ
  Basis Set: (AUG-CC-PVTZ AUX)
    Blend: AUG-CC-PVTZ-JKFIT

    Orbital Energies [Eh]
    ---------------------

    Doubly Occupied:

       1A    -20.284997     2A    -11.116241     3A    -11.083363
       4A    -11.083344     5A    -11.061775     6A    -11.051843
       7A    -11.051832     8A     -1.057260     9A     -0.959164
      10A     -0.842141    11A     -0.804767    12A     -0.648714
      13A     -0.628698    14A     -0.520653    15A     -0.459808
      16A     -0.452438    17A     -0.413969    18A     -0.383046
      19A     -0.342073    20A     -0.321493    21A     -0.320941
      22A     -0.252692    23A     -0.193017    24A     -0.178119
      25A     -0.098989

  @DF-RHF Final Energy:  -305.07419850276972

   => Energetics <=

    Nuclear Repulsion Energy =            256.1589113192891887
    One-Electron Energy =                -931.2434663610022199
    Two-Electron Energy =                 370.0103565389432561
    Total Energy =                       -305.0741985027697183
  Basis Set: (AUG-CC-PVTZ AUX)
    Blend: AUG-CC-PVTZ-RI
    Molecular point group: c1

    Geometry (in Angstrom), charge = -1, multiplicity = 1:

       Center              X                  Y                   Z               Mass
    ------------   -----------------  -----------------  -----------------  -----------------
         C            0.221002405852    -1.206439128985    -0.000004926542    12.000000000000
         C           -1.170502594148    -1.199480128985     0.000004073458    12.000000000000
         C           -1.896997594148    -0.000000128985    -0.000001926542    12.000000000000
         C           -1.170502594148     1.199479871015     0.000005073458    12.000000000000
         C            0.221002405852     1.206439871015    -0.000005926542    12.000000000000
         C            1.016791405852    -0.000000128985    -0.000014926542    12.000000000000
         O            2.391674405852    -0.000000128985     0.000012073458    15.994914619570
         H            0.766771405852    -2.151054128985     0.000004073458     1.007825032230
         H           -1.706749594148    -2.152645128985     0.000004073458     1.007825032230
         H           -2.986112594148    -0.000001128985     0.000013073458     1.007825032230
         H           -1.706750594148     2.152644871015     0.000006073458     1.007825032230
         H            0.766769405852     2.151054871015     0.000002073458     1.007825032230

  Basis Set: AUG-CC-PVTZ
    Blend: AUG-CC-PVTZ
  Basis Set: (AUG-CC-PVTZ AUX)
    Blend: AUG-CC-PVTZ-JKFIT
	 Reference Energy          =    -305.0741985027697183 [Eh]
	 Singles Energy            =      -0.0000000000000000 [Eh]
	 Same-Spin Energy          =      -0.3352206981674903 [Eh]
	 Opposite-Spin Energy      =      -1.0179468075588285 [Eh]
	 Correlation Energy        =      -1.3531675057263188 [Eh]
	 Total Energy              =    -306.4273660084960511 [Eh]

	 ================> DF-SCS-MP2 Energies <==================
	-----------------------------------------------------------
	 SCS Same-Spin Scale       =       0.3333333333333333 [-]
	 SCS Opposite-Spin Scale   =       1.2000000000000000 [-]
	 SCS Same-Spin Energy      =      -0.1117402327224968 [Eh]
	 SCS Opposite-Spin Energy  =      -1.2215361690705941 [Eh]
	 SCS Correlation Energy    =      -1.3332764017930909 [Eh]
	 SCS Total Energy          =    -306.4074749045628323 [Eh]
	-----------------------------------------------------------

  Dipole Moment: [D]
     X:    -5.3073      Y:     0.0000      Z:    -0.0000     Total:     5.3073

*** Psi4 exiting successfully. Buy a developer a beer!
