                               Psi4 1.3.2 release

  ==> Input File <==

--------------------------------------------------------------------------
#psi4
#
memory 32 gb

molecule  {
-1 1
  C        0.2864700    -1.2064390    -0.0000050
  C       -1.1050350    -1.1994800     0.0000040
  C       -1.8315300     0.0000000    -0.0000020
  C       -1.1050350     1.1994800     0.0000050
  C        0.2655359     1.1923678    -0.0000067
  C        1.0822590     0.0000000    -0.0000150
  O        2.3571420     0.0000000     0.0000100
  H        0.8322390    -2.1510540     0.0000040
  H       -1.6412820    -2.1526450     0.0000040
  H       -2.9206450    -0.0000010     0.0000130
  H       -1.6412830     2.1526450     0.0000060
  H        0.8322370     2.1510550     0.0000020
units angstrom
no_reorient  #important for SAPT in psi4, default
symmetry c1  #important for SAPT in psi4, default
}

set PROPERTIES_ORIGIN ["COM"]
properties('MP2/aug-cc-pvtz', properties = ['dipole'])
--------------------------------------------------------------------------

    Molecular point group: c1
  Charge       = -1
  Multiplicity = 1
  Basis Set: AUG-CC-PVTZ
    Blend: AUG-CC-PVTZ
  Basis Set: (AUG-CC-PVTZ AUX)
    Blend: AUG-CC-PVTZ-JKFIT

    Orbital Energies [Eh]
    ---------------------

    Doubly Occupied:

       1A    -20.290958     2A    -11.108657     3A    -11.077097
       4A    -11.075280     5A    -11.050129     6A    -11.041683
       7A    -11.040067     8A     -1.114938     9A     -0.955903
      10A     -0.837479    11A     -0.796186    12A     -0.643067
      13A     -0.622180    14A     -0.513070    15A     -0.455838
      16A     -0.453874    17A     -0.407260    18A     -0.389384
      19A     -0.349917    20A     -0.338635    21A     -0.318968
      22A     -0.269916    23A     -0.197795    24A     -0.175170
      25A     -0.089058

  @DF-RHF Final Energy:  -305.08830611126530

   => Energetics <=

    Nuclear Repulsion Energy =            259.2688751447008713
    One-Electron Energy =                -937.4893427361204203
    Two-Electron Energy =                 373.1321614801541955
    Total Energy =                       -305.0883061112652967
  Basis Set: (AUG-CC-PVTZ AUX)
    Blend: AUG-CC-PVTZ-RI
    Molecular point group: c1

    Geometry (in Angstrom), charge = -1, multiplicity = 1:

       Center              X                  Y                   Z               Mass
    ------------   -----------------  -----------------  -----------------  -----------------
         C            0.240895131851    -1.204624025606    -0.000004492402    12.000000000000
         C           -1.150609868149    -1.197665025606     0.000004507598    12.000000000000
         C           -1.877104868149     0.001814974394    -0.000001492402    12.000000000000
         C           -1.150609868149     1.201294974394     0.000005507598    12.000000000000
         C            0.219961031851     1.194182774394    -0.000006192402    12.000000000000
         C            1.036684131851     0.001814974394    -0.000014492402    12.000000000000
         O            2.311567131851     0.001814974394     0.000010507598    15.994914619570
         H            0.786664131851    -2.149239025606     0.000004507598     1.007825032230
         H           -1.686856868149    -2.150830025606     0.000004507598     1.007825032230
         H           -2.966219868149     0.001813974394     0.000013507598     1.007825032230
         H           -1.686857868149     2.154459974394     0.000006507598     1.007825032230
         H            0.786662131851     2.152869974394     0.000002507598     1.007825032230

  Basis Set: AUG-CC-PVTZ
    Blend: AUG-CC-PVTZ
  Basis Set: (AUG-CC-PVTZ AUX)
    Blend: AUG-CC-PVTZ-JKFIT
	 Reference Energy          =    -305.0883061112652967 [Eh]
	 Singles Energy            =      -0.0000000000000000 [Eh]
	 Same-Spin Energy          =      -0.3338204793631840 [Eh]
	 Opposite-Spin Energy      =      -1.0140406202878742 [Eh]
	 Correlation Energy        =      -1.3478610996510583 [Eh]
	 Total Energy              =    -306.4361672109163806 [Eh]

	 ================> DF-SCS-MP2 Energies <==================
	-----------------------------------------------------------
	 SCS Same-Spin Scale       =       0.3333333333333333 [-]
	 SCS Opposite-Spin Scale   =       1.2000000000000000 [-]
	 SCS Same-Spin Energy      =      -0.1112734931210613 [Eh]
	 SCS Opposite-Spin Energy  =      -1.2168487443454490 [Eh]
	 SCS Correlation Energy    =      -1.3281222374665103 [Eh]
	 SCS Total Energy          =    -306.4164283487318130 [Eh]
	-----------------------------------------------------------

  Dipole Moment: [D]
     X:    -4.2935      Y:     0.0022      Z:     0.0000     Total:     4.2935

*** Psi4 exiting successfully. Buy a developer a beer!
