                               Psi4 1.4a3.dev225

  ==> Input File <==

--------------------------------------------------------------------------
#psi4
#
memory 32 gb

molecule  {
-1 1
  C        0.0000010     0.2878930     1.2051000
  C        0.0000010    -1.1055730     1.2008750
  C        0.0000040    -1.8274530     0.0000000
  C        0.0000010    -1.1055730    -1.2008750
  C        0.0000010     0.2878930    -1.2051000
  C        0.0000030     1.0721960     0.0000000
  O       -0.0000085     2.3102180     0.0000000
  H       -0.0000030     0.8289580     2.1521280
  H        0.0000010    -1.6403820     2.1520340
  H        0.0000030    -2.9151880     0.0000000
  H        0.0000010    -1.6403820    -2.1520340
  H       -0.0000030     0.8289580    -2.1521280
units angstrom
no_reorient  #important for SAPT in psi4, default
symmetry c1  #important for SAPT in psi4, default
}

set PROPERTIES_ORIGIN ["COM"]
properties('MP2/aug-cc-pvtz', properties = ['dipole'])
--------------------------------------------------------------------------

    Molecular point group: c1
  Charge       = -1
  Multiplicity = 1
  Basis Set: AUG-CC-PVTZ
    Blend: AUG-CC-PVTZ
  Basis Set: (AUG-CC-PVTZ AUX)
    Blend: AUG-CC-PVTZ-JKFIT

    Orbital Energies [Eh]
    ---------------------

    Doubly Occupied:

       1A    -20.288894     2A    -11.101426     3A    -11.074876
       4A    -11.074864     5A    -11.046365     6A    -11.036179
       7A    -11.036168     8A     -1.137528     9A     -0.951480
      10A     -0.833089    11A     -0.793559    12A     -0.645419
      13A     -0.617376    14A     -0.510497    15A     -0.456791
      16A     -0.455541    17A     -0.406022    18A     -0.394547
      19A     -0.354508    20A     -0.337025    21A     -0.325504
      22A     -0.273053    23A     -0.197217    24A     -0.170448
      25A     -0.085392

  @DF-RHF Final Energy:  -305.09065647587408

   => Energetics <=

    Nuclear Repulsion Energy =            260.4869183590485022
    One-Electron Energy =                -939.9476129047783388
    Two-Electron Energy =                 374.3700380698558092
    Total Energy =                       -305.0906564758740842
  Basis Set: (AUG-CC-PVTZ AUX)
    Blend: AUG-CC-PVTZ-RI
    Molecular point group: c1

    Geometry (in Angstrom), charge = -1, multiplicity = 1:

       Center              X                  Y                   Z               Mass
    ------------   -----------------  -----------------  -----------------  -----------------
         C            0.000001053363     0.248221613126     1.205100000000    12.000000000000
         C            0.000001053363    -1.145244386874     1.200875000000    12.000000000000
         C            0.000004053363    -1.867124386874     0.000000000000    12.000000000000
         C            0.000001053363    -1.145244386874    -1.200875000000    12.000000000000
         C            0.000001053363     0.248221613126    -1.205100000000    12.000000000000
         C            0.000003053363     1.032524613126     0.000000000000    12.000000000000
         O           -0.000008446637     2.270546613126     0.000000000000    15.994914619570
         H           -0.000002946637     0.789286613126     2.152128000000     1.007825032230
         H            0.000001053363    -1.680053386874     2.152034000000     1.007825032230
         H            0.000003053363    -2.954859386874     0.000000000000     1.007825032230
         H            0.000001053363    -1.680053386874    -2.152034000000     1.007825032230
         H           -0.000002946637     0.789286613126    -2.152128000000     1.007825032230

  Basis Set: AUG-CC-PVTZ
    Blend: AUG-CC-PVTZ
  Basis Set: (AUG-CC-PVTZ AUX)
    Blend: AUG-CC-PVTZ-JKFIT
	 Reference Energy          =    -305.0906564758740842 [Eh]
	 Singles Energy            =      -0.0000000000000000 [Eh]
	 Same-Spin Energy          =      -0.3330634556078906 [Eh]
	 Opposite-Spin Energy      =      -1.0122563003307734 [Eh]
	 Correlation Energy        =      -1.3453197559386640 [Eh]
	 Total Energy              =    -306.4359762318127309 [Eh]

	 ================> DF-SCS-MP2 Energies <==================
	-----------------------------------------------------------
	 SCS Same-Spin Scale       =       0.3333333333333333 [-]
	 SCS Opposite-Spin Scale   =       1.2000000000000000 [-]
	 SCS Same-Spin Energy      =      -0.1110211518692969 [Eh]
	 SCS Opposite-Spin Energy  =      -1.2147075603969280 [Eh]
	 SCS Correlation Energy    =      -1.3257287122662249 [Eh]
	 SCS Total Energy          =    -306.4163851881402820 [Eh]
	-----------------------------------------------------------

  Dipole Moment: [D]
     X:     0.0000      Y:    -3.9453      Z:     0.0000     Total:     3.9453

*** Psi4 exiting successfully. Buy a developer a beer!
