                               Psi4 1.3.2 release

  ==> Input File <==

--------------------------------------------------------------------------
#psi4
#
memory 32 gb

molecule  {
-1 1
  C        0.2864700    -1.2064390    -0.0000050
  C       -1.1050350    -1.1994800     0.0000040
  C       -1.8315300     0.0000000    -0.0000020
  C       -1.1050350     1.1994800     0.0000050
  C        0.4169367     1.2830136    -0.0000019
  C        1.0822590     0.0000000    -0.0000150
  O        2.3571420     0.0000000     0.0000100
  H        0.8322390    -2.1510540     0.0000040
  H       -1.6412820    -2.1526450     0.0000040
  H       -2.9206450    -0.0000010     0.0000130
  H       -1.6412830     2.1526450     0.0000060
  H        0.8322370     2.1510550     0.0000020
units angstrom
no_reorient  #important for SAPT in psi4, default
symmetry c1  #important for SAPT in psi4, default
}

set PROPERTIES_ORIGIN ["COM"]
properties('MP2/aug-cc-pvtz', properties = ['dipole'])
--------------------------------------------------------------------------

    Molecular point group: c1
  Charge       = -1
  Multiplicity = 1
  Basis Set: AUG-CC-PVTZ
    Blend: AUG-CC-PVTZ
  Basis Set: (AUG-CC-PVTZ AUX)
    Blend: AUG-CC-PVTZ-JKFIT

    Orbital Energies [Eh]
    ---------------------

    Doubly Occupied:

       1A    -20.281707     2A    -11.106795     3A    -11.090238
       4A    -11.081663     5A    -11.056168     6A    -11.048248
       7A    -11.038360     8A     -1.111523     9A     -0.944338
      10A     -0.825083    11A     -0.796293    12A     -0.659721
      13A     -0.611957    14A     -0.519471    15A     -0.476326
      16A     -0.446741    17A     -0.403694    18A     -0.392754
      19A     -0.343181    20A     -0.342853    21A     -0.319915
      22A     -0.265880    23A     -0.192003    24A     -0.161039
      25A     -0.089240

  @DF-RHF Final Energy:  -305.05847692910993

   => Energetics <=

    Nuclear Repulsion Energy =            257.3183587590629600
    One-Electron Energy =                -933.5432882204403313
    Two-Electron Energy =                 371.1664525322673853
    Total Energy =                       -305.0584769291099292
  Basis Set: (AUG-CC-PVTZ AUX)
    Blend: AUG-CC-PVTZ-RI
    Molecular point group: c1

    Geometry (in Angstrom), charge = -1, multiplicity = 1:

       Center              X                  Y                   Z               Mass
    ------------   -----------------  -----------------  -----------------  -----------------
         C            0.221366692537    -1.216315978385    -0.000005111530    12.000000000000
         C           -1.170138307463    -1.209356978385     0.000003888470    12.000000000000
         C           -1.896633307463    -0.009876978385    -0.000002111530    12.000000000000
         C           -1.170138307463     1.189603021615     0.000004888470    12.000000000000
         C            0.351833392537     1.273136621615    -0.000002011530    12.000000000000
         C            1.017155692537    -0.009876978385    -0.000015111530    12.000000000000
         O            2.292038692537    -0.009876978385     0.000009888470    15.994914619570
         H            0.767135692537    -2.160930978385     0.000003888470     1.007825032230
         H           -1.706385307463    -2.162521978385     0.000003888470     1.007825032230
         H           -2.985748307463    -0.009877978385     0.000012888470     1.007825032230
         H           -1.706386307463     2.142768021615     0.000005888470     1.007825032230
         H            0.767133692537     2.141178021615     0.000001888470     1.007825032230

  Basis Set: AUG-CC-PVTZ
    Blend: AUG-CC-PVTZ
  Basis Set: (AUG-CC-PVTZ AUX)
    Blend: AUG-CC-PVTZ-JKFIT
	 Reference Energy          =    -305.0584769291099292 [Eh]
	 Singles Energy            =      -0.0000000000000000 [Eh]
	 Same-Spin Energy          =      -0.3336345433020363 [Eh]
	 Opposite-Spin Energy      =      -1.0158508439150540 [Eh]
	 Correlation Energy        =      -1.3494853872170904 [Eh]
	 Total Energy              =    -306.4079623163270298 [Eh]

	 ================> DF-SCS-MP2 Energies <==================
	-----------------------------------------------------------
	 SCS Same-Spin Scale       =       0.3333333333333333 [-]
	 SCS Opposite-Spin Scale   =       1.2000000000000000 [-]
	 SCS Same-Spin Energy      =      -0.1112115144340121 [Eh]
	 SCS Opposite-Spin Energy  =      -1.2190210126980647 [Eh]
	 SCS Correlation Energy    =      -1.3302325271320767 [Eh]
	 SCS Total Energy          =    -306.3887094562419975 [Eh]
	-----------------------------------------------------------

  Dipole Moment: [D]
     X:    -4.2900      Y:    -0.0879      Z:     0.0000     Total:     4.2909

*** Psi4 exiting successfully. Buy a developer a beer!
