                               Psi4 1.3.2 release

  ==> Input File <==

--------------------------------------------------------------------------
#psi4
#
memory 32 gb

molecule  {
-1 1
  C        0.2864700    -1.2064390    -0.0000050
  C       -1.1050350    -1.1994800     0.0000040
  C       -1.8315300     0.0000000    -0.0000020
  C       -1.1050350     1.1994800     0.0000050
  C        0.2864700     1.2064400    -0.0000060
  C        1.0822590     0.0000000    -0.0000150
  O        2.2571420     0.0000000     0.0000080
  H        0.8322390    -2.1510540     0.0000040
  H       -1.6412820    -2.1526450     0.0000040
  H       -2.9206450    -0.0000010     0.0000130
  H       -1.6412830     2.1526450     0.0000060
  H        0.8322370     2.1510550     0.0000020
units angstrom
no_reorient  #important for SAPT in psi4, default
symmetry c1  #important for SAPT in psi4, default
}

set PROPERTIES_ORIGIN ["COM"]
properties('MP2/aug-cc-pvtz', properties = ['dipole'])
--------------------------------------------------------------------------

    Molecular point group: c1
  Charge       = -1
  Multiplicity = 1
  Basis Set: AUG-CC-PVTZ
    Blend: AUG-CC-PVTZ
  Basis Set: (AUG-CC-PVTZ AUX)
    Blend: AUG-CC-PVTZ-JKFIT

    Orbital Energies [Eh]
    ---------------------

    Doubly Occupied:

       1A    -20.295138     2A    -11.096592     3A    -11.071348
       4A    -11.071339     5A    -11.039472     6A    -11.029306
       7A    -11.029295     8A     -1.184645     9A     -0.946254
      10A     -0.828422    11A     -0.786909    12A     -0.643026
      13A     -0.611355    14A     -0.505792    15A     -0.459796
      16A     -0.457877    17A     -0.405612    18A     -0.400519
      19A     -0.369698    20A     -0.339295    21A     -0.327335
      22A     -0.279463    23A     -0.196649    24A     -0.167345
      25A     -0.079246

  @DF-RHF Final Energy:  -305.08408301990096

   => Energetics <=

    Nuclear Repulsion Energy =            262.0820378229621497
    One-Electron Energy =                -943.0887890815298533
    Two-Electron Energy =                 375.9226682386666880
    Total Energy =                       -305.0840830199009588
  Basis Set: (AUG-CC-PVTZ AUX)
    Blend: AUG-CC-PVTZ-RI
    Molecular point group: c1

    Geometry (in Angstrom), charge = -1, multiplicity = 1:

       Center              X                  Y                   Z               Mass
    ------------   -----------------  -----------------  -----------------  -----------------
         C            0.255387486103    -1.206439128985    -0.000004238840    12.000000000000
         C           -1.136117513897    -1.199480128985     0.000004761160    12.000000000000
         C           -1.862612513897    -0.000000128985    -0.000001238840    12.000000000000
         C           -1.136117513897     1.199479871015     0.000005761160    12.000000000000
         C            0.255387486103     1.206439871015    -0.000005238840    12.000000000000
         C            1.051176486103    -0.000000128985    -0.000014238840    12.000000000000
         O            2.226059486103    -0.000000128985     0.000008761160    15.994914619570
         H            0.801156486103    -2.151054128985     0.000004761160     1.007825032230
         H           -1.672364513897    -2.152645128985     0.000004761160     1.007825032230
         H           -2.951727513897    -0.000001128985     0.000013761160     1.007825032230
         H           -1.672365513897     2.152644871015     0.000006761160     1.007825032230
         H            0.801154486103     2.151054871015     0.000002761160     1.007825032230

  Basis Set: AUG-CC-PVTZ
    Blend: AUG-CC-PVTZ
  Basis Set: (AUG-CC-PVTZ AUX)
    Blend: AUG-CC-PVTZ-JKFIT
	 Reference Energy          =    -305.0840830199009588 [Eh]
	 Singles Energy            =      -0.0000000000000000 [Eh]
	 Same-Spin Energy          =      -0.3317579714290834 [Eh]
	 Opposite-Spin Energy      =      -1.0095920895181507 [Eh]
	 Correlation Energy        =      -1.3413500609472342 [Eh]
	 Total Energy              =    -306.4254330808481654 [Eh]

	 ================> DF-SCS-MP2 Energies <==================
	-----------------------------------------------------------
	 SCS Same-Spin Scale       =       0.3333333333333333 [-]
	 SCS Opposite-Spin Scale   =       1.2000000000000000 [-]
	 SCS Same-Spin Energy      =      -0.1105859904763611 [Eh]
	 SCS Opposite-Spin Energy  =      -1.2115105074217809 [Eh]
	 SCS Correlation Energy    =      -1.3220964978981420 [Eh]
	 SCS Total Energy          =    -306.4061795177991030 [Eh]
	-----------------------------------------------------------

  Dipole Moment: [D]
     X:    -3.2377      Y:     0.0000      Z:     0.0000     Total:     3.2377

*** Psi4 exiting successfully. Buy a developer a beer!
