                               Psi4 1.3.2 release

  ==> Input File <==

--------------------------------------------------------------------------
#psi4
#
memory 32 gb

molecule  {
-1 1
  C        0.2864700    -1.2064390    -0.0000050
  C       -1.1050350    -1.1994800     0.0000040
  C       -1.8315300     0.0000000    -0.0000020
  C       -1.1050350     1.1994800     0.0000050
  C        0.3290589     1.2334777    -0.0000046
  C        1.0822590     0.0000000    -0.0000150
  O        2.3571420     0.0000000     0.0000100
  H        0.8322390    -2.1510540     0.0000040
  H       -1.6412820    -2.1526450     0.0000040
  H       -2.9206450    -0.0000010     0.0000130
  H       -1.6412830     2.1526450     0.0000060
  H        0.8322370     2.1510550     0.0000020
units angstrom
no_reorient  #important for SAPT in psi4, default
symmetry c1  #important for SAPT in psi4, default
}

set PROPERTIES_ORIGIN ["COM"]
properties('MP2/aug-cc-pvtz', properties = ['dipole'])
--------------------------------------------------------------------------

    Molecular point group: c1
  Charge       = -1
  Multiplicity = 1
  Basis Set: AUG-CC-PVTZ
    Blend: AUG-CC-PVTZ
  Basis Set: (AUG-CC-PVTZ AUX)
    Blend: AUG-CC-PVTZ-JKFIT

    Orbital Energies [Eh]
    ---------------------

    Doubly Occupied:

       1A    -20.286828     2A    -11.107219     3A    -11.082191
       4A    -11.078820     5A    -11.052517     6A    -11.043287
       7A    -11.039998     8A     -1.113186     9A     -0.949560
      10A     -0.831547    11A     -0.796167    12A     -0.649565
      13A     -0.616943    14A     -0.514212    15A     -0.462598
      16A     -0.450370    17A     -0.407346    18A     -0.391105
      19A     -0.346256    20A     -0.333979    21A     -0.329455
      22A     -0.267615    23A     -0.195849    24A     -0.168662
      25A     -0.089116

  @DF-RHF Final Energy:  -305.08592868387933

   => Energetics <=

    Nuclear Repulsion Energy =            258.3744034220107437
    One-Electron Energy =                -935.7118763959914531
    Two-Electron Energy =                 372.2515442901014353
    Total Energy =                       -305.0859286838793309
  Basis Set: (AUG-CC-PVTZ AUX)
    Blend: AUG-CC-PVTZ-RI
    Molecular point group: c1

    Geometry (in Angstrom), charge = -1, multiplicity = 1:

       Center              X                  Y                   Z               Mass
    ------------   -----------------  -----------------  -----------------  -----------------
         C            0.232701614706    -1.209926587992    -0.000004763270    12.000000000000
         C           -1.158803385294    -1.202967587992     0.000004236730    12.000000000000
         C           -1.885298385294    -0.003487587992    -0.000001763270    12.000000000000
         C           -1.158803385294     1.195992412008     0.000005236730    12.000000000000
         C            0.275290514706     1.229990112008    -0.000004363270    12.000000000000
         C            1.028490614706    -0.003487587992    -0.000014763270    12.000000000000
         O            2.303373614706    -0.003487587992     0.000010236730    15.994914619570
         H            0.778470614706    -2.154541587992     0.000004236730     1.007825032230
         H           -1.695050385294    -2.156132587992     0.000004236730     1.007825032230
         H           -2.974413385294    -0.003488587992     0.000013236730     1.007825032230
         H           -1.695051385294     2.149157412008     0.000006236730     1.007825032230
         H            0.778468614706     2.147567412008     0.000002236730     1.007825032230

  Basis Set: AUG-CC-PVTZ
    Blend: AUG-CC-PVTZ
  Basis Set: (AUG-CC-PVTZ AUX)
    Blend: AUG-CC-PVTZ-JKFIT
	 Reference Energy          =    -305.0859286838793309 [Eh]
	 Singles Energy            =      -0.0000000000000000 [Eh]
	 Same-Spin Energy          =      -0.3335936836338693 [Eh]
	 Opposite-Spin Energy      =      -1.0142438492391561 [Eh]
	 Correlation Energy        =      -1.3478375328730254 [Eh]
	 Total Energy              =    -306.4337662167523604 [Eh]

	 ================> DF-SCS-MP2 Energies <==================
	-----------------------------------------------------------
	 SCS Same-Spin Scale       =       0.3333333333333333 [-]
	 SCS Opposite-Spin Scale   =       1.2000000000000000 [-]
	 SCS Same-Spin Energy      =      -0.1111978945446231 [Eh]
	 SCS Opposite-Spin Energy  =      -1.2170926190869873 [Eh]
	 SCS Correlation Energy    =      -1.3282905136316103 [Eh]
	 SCS Total Energy          =    -306.4142191975109313 [Eh]
	-----------------------------------------------------------

  Dipole Moment: [D]
     X:    -4.2868      Y:    -0.0162      Z:     0.0000     Total:     4.2869

*** Psi4 exiting successfully. Buy a developer a beer!
